   * xtb version 6.7.1 (edcfbbe) compiled by 'albert@albert-system' on 2024-07-22

   ID    Z sym.   atoms
    1    6 C      1-36
    2    1 H      37-80

          program call               : xtb data2507/toluene/TBPe/TBPe_toluene_T1_crest.xyz --gfn 2 --uhf 2 --gbsa toluene --ohess vtight --parallel 40 --molden --ceasefiles --namespace data2507/toluene/TBPe/TBPe_toluene_T1_finalOpt
      * Solvation model:               GBSA
        Solvent                        toluene
        Solvent mass                       9.2140E+01 g/mol
          :  Hamiltonian                  GFN2-xTB          :
 * total energy  :   -99.6078030 Eh     change       -0.4043542E-08 Eh
 * total energy  :   -99.6078341 Eh     change       -0.3107579E-04 Eh
 * total energy  :   -99.6078421 Eh     change       -0.7956923E-05 Eh
 * total energy  :   -99.6078443 Eh     change       -0.2223124E-05 Eh
 * total energy  :   -99.6078453 Eh     change       -0.1050690E-05 Eh
 * total energy  :   -99.6078464 Eh     change       -0.1076679E-05 Eh
 * total energy  :   -99.6078472 Eh     change       -0.7891977E-06 Eh
 * total energy  :   -99.6078477 Eh     change       -0.4979034E-06 Eh
 * total energy  :   -99.6078481 Eh     change       -0.3760830E-06 Eh
 * total energy  :   -99.6078485 Eh     change       -0.4345568E-06 Eh
 * total energy  :   -99.6078490 Eh     change       -0.4729430E-06 Eh
 * total energy  :   -99.6078493 Eh     change       -0.3359374E-06 Eh
 * total energy  :   -99.6078493 Eh     change       -0.3637503E-07 Eh
   *** GEOMETRY OPTIMIZATION CONVERGED AFTER 13 ITERATIONS ***

 final structure:
================
80
 xtb: 6.7.1 (edcfbbe)
C            4.55293758000886        3.79789864824104        1.14764141161501
C            3.67454200405232        3.72499211896275       -0.11036423062757
C            4.56144501563674        3.70911806350092       -1.36438124371376
C            2.80660242152726        4.98631939154397       -0.15874545517354
C            2.85502140143002        2.44264530050958       -0.06569358892108
C            3.51834693579066        1.21410035280573       -0.03071747883514
C            2.82091384206328       -0.00376873281361        0.00053295529142
C            3.51530893291579       -1.22339674882304        0.03084011399012
C            2.84893351924053       -2.45024024306426        0.06754875545221
C            3.66524529612590       -3.73459120135261        0.11287264153533
C            4.54404061105754       -3.81058365592414       -1.14465218953605
C            2.79398560977423       -4.99362439904958        0.16165367306706
C            4.55149009499206       -3.71985010217130        1.36739655654445
C            1.47173931791565       -2.43944976889592        0.05866819294567
C            0.71101844847390       -1.23959265405443        0.01648726708271
C           -0.71412243781768       -1.23778911196422       -0.00967082263149
C           -1.47790166078419       -2.43572204479192       -0.05144231801912
C           -2.85511644939806       -2.44298228249515       -0.06091259495370
C           -3.67475801166682       -3.72519790191500       -0.10656914761286
C           -4.55500949911511       -3.79863650843188        1.15007858156845
C           -4.55970622505770       -3.70834080121999       -1.36199560711583
C           -2.80677158838186       -4.98652187218567       -0.15422215584203
C           -3.51835551763220       -1.21442712998988       -0.02483825374118
C           -2.82084901367823        0.00341603539093        0.00543335725327
C           -3.51518687626555        1.22305058640870        0.03632070917740
C           -2.84874871664478        2.44992842740729        0.07053840390594
C           -3.66507903045644        3.73432640084142        0.11452362970577
C           -4.55210652617672        3.72122767485144        1.36849168137926
C           -2.79403394218534        4.99353377719059        0.16234590923050
C           -4.54321150475932        3.80875612502075       -1.14357017832859
C           -1.47156709515453        2.43913656184434        0.05935470834166
C           -0.71093527143346        1.23923633400788        0.01701840349278
C            0.71413949416949        1.23740787742742       -0.01158622444440
C            1.47781383632356        2.43533781147877       -0.05471032380352
C            1.39950685587374       -0.00196319924190        0.00181070301245
C           -1.39944657179411        0.00160249144594        0.00430627645646
H            5.23885453692355        2.95685645373021        1.20168206577214
H            5.13834486602621        4.71520309029379        1.14340373979828
H            3.93181647348828        3.78826747917503        2.04155016791733
H            3.94639536018272        3.63426658381099       -2.25936908090215
H            5.24959452078325        2.86833211862691       -1.35390671793286
H            5.14517495015012        4.62572545220160       -1.42194153335812
H            2.17882602250420        5.06493417332113        0.72626282517026
H            3.44774074708961        5.86520954908727       -0.19303275498868
H            2.17810793862093        4.99562119447643       -1.04677131949874
H            4.59710769334649        1.17351149163043       -0.03191474855461
H            4.59416732798600       -1.18554123363524        0.03026818049428
H            5.23189397021443       -2.97116310507308       -1.19927627879730
H            3.92341314623997       -3.80059684798484       -2.03890386334683
H            5.12741560901120       -4.72916900893351       -1.13908322591431
H            3.43295961278218       -5.87406568234664        0.19615914462058
H            2.16553953269520       -5.00118656916076        1.04973061223035
H            2.16596206140793       -5.07092960660578       -0.72330744760423
H            5.24165494979835       -2.88070425602404        1.35659775756616
H            3.93613533785431       -3.64278669179713        2.26200186140895
H            5.13292983883340       -4.63783616896966        1.42598077076487
H            0.94259448496171       -3.37355168831944        0.09169727176028
H           -0.95114822353105       -3.37120018628578       -0.08382475358577
H           -5.14183544549712       -4.71501778701016        1.14338488344364
H           -3.93519107038085       -3.79154364157952        2.04491581976059
H           -5.23974898333614       -2.95667307451828        1.20459743289140
H           -5.14254224635811       -4.62536276760038       -1.42172338985846
H           -5.24855743811963       -2.86811591495620       -1.35137950142696
H           -3.94334134061536       -3.63172380550447       -2.25593797414639
H           -3.44800872494771       -5.86532245847744       -0.18864173450361
H           -2.17947754246152       -5.06500689878099        0.73114932974495
H           -2.17781602153050       -4.99617192529356       -1.04191941623940
H           -4.59711180114958       -1.17378920198560       -0.02483105576914
H           -4.59404389514866        1.18517964580165        0.03777240598891
H           -3.93735735658972        3.64430543242054        2.26351409171672
H           -5.13285167125811        4.63972935883894        1.42609132265033
H           -5.24299576192714        2.88269347548505        1.35789997931356
H           -3.43302327301251        5.87400085430443        0.19623591437263
H           -2.16551555663079        5.00168233882637        1.05036286467324
H           -2.16607210286800        5.07022713469013       -0.72270054465044
H           -3.92198014196534        3.79831812643725       -2.03739338613593
H           -5.12724828844748        4.72693176268080       -1.13927746788177
H           -5.23035826834077        2.96872903806318       -1.19784634910131
H           -0.94235888804042        3.37328161374746        0.09040011377776
H            0.95096016768720        3.37078478859788       -0.08650817238743

          :  Hamiltonian                  GFN2-xTB          :
         :: gradient norm              0.000107675065 Eh/a0 ::
         :: HOMO-LUMO gap              1.767121972051 eV    ::
         :: SCC energy              -101.318657274187 Eh    ::
         :: -> dispersion             -0.095594960469 Eh    ::
         :: -> Gsolv                  -0.036420681854 Eh    ::
         :: repulsion energy           1.710807927528 Eh    ::

    * Orbital Energies and Occupations

         #    Occupation            Energy/Eh            Energy/eV
      -------------------------------------------------------------
         1        2.0000           -0.6443735             -17.5343
       ...           ...                  ...                  ...
        83        2.0000           -0.4184363             -11.3862
        84        2.0000           -0.4171976             -11.3525
        85        2.0000           -0.4165931             -11.3361
        86        2.0000           -0.4135486             -11.2532
        87        2.0000           -0.4090880             -11.1319
        88        2.0000           -0.3925181             -10.6810
        89        2.0000           -0.3907638             -10.6332
        90        2.0000           -0.3893940             -10.5960
        91        2.0000           -0.3878427             -10.5537
        92        2.0000           -0.3858497             -10.4995
        93        2.0000           -0.3852265             -10.4825
        94        1.0000           -0.3386908              -9.2162
        95        1.0000           -0.2841198              -7.7313 (HOMO)
        96                         -0.2191793              -5.9642 (LUMO)
        97                         -0.2174678              -5.9176
        98                         -0.2146140              -5.8399
        99                         -0.2112535              -5.7485
       100                         -0.1501197              -4.0850
       101                         -0.1488290              -4.0498
       102                         -0.1107235              -3.0129
       103                         -0.0695107              -1.8915
       104                         -0.0139343              -0.3792
       105                          0.0590300               1.6063
       106                          0.0622553               1.6941
       ...                                ...                  ...
       188                          0.7368589              20.0510
      -------------------------------------------------------------
                  HL-Gap            0.0649405 Eh            1.7671 eV

     #   Z          covCN         q      C6AA      α(0)
     1   6 C        3.761    -0.103    22.523     6.765
     2   6 C        3.903     0.024    20.110     6.374
     3   6 C        3.761    -0.104    22.525     6.766
     4   6 C        3.761    -0.105    22.559     6.771
     5   6 C        2.963     0.006    27.891     8.663
     6   6 C        2.930    -0.047    29.169     8.857
     7   6 C        2.975     0.006    27.891     8.663
     8   6 C        2.930    -0.047    29.169     8.857
     9   6 C        2.963     0.006    27.891     8.663
    10   6 C        3.903     0.024    20.110     6.374
    11   6 C        3.761    -0.103    22.523     6.765
    12   6 C        3.761    -0.105    22.560     6.771
    13   6 C        3.761    -0.104    22.525     6.766
    14   6 C        2.924    -0.052    29.300     8.877
    15   6 C        2.974    -0.002    28.067     8.690
    16   6 C        2.974    -0.002    28.067     8.690
    17   6 C        2.924    -0.052    29.300     8.877
    18   6 C        2.963     0.006    27.891     8.663
    19   6 C        3.903     0.024    20.110     6.374
    20   6 C        3.761    -0.104    22.523     6.765
    21   6 C        3.761    -0.104    22.524     6.766
    22   6 C        3.761    -0.105    22.560     6.771
    23   6 C        2.930    -0.047    29.169     8.857
    24   6 C        2.975     0.006    27.891     8.663
    25   6 C        2.930    -0.047    29.169     8.857
    26   6 C        2.963     0.006    27.891     8.663
    27   6 C        3.903     0.024    20.110     6.374
    28   6 C        3.761    -0.104    22.525     6.766
    29   6 C        3.761    -0.105    22.559     6.771
    30   6 C        3.761    -0.103    22.523     6.765
    31   6 C        2.924    -0.052    29.300     8.877
    32   6 C        2.974    -0.002    28.067     8.690
    33   6 C        2.974    -0.002    28.067     8.690
    34   6 C        2.924    -0.052    29.300     8.877
    35   6 C        2.995    -0.006    28.164     8.705
    36   6 C        2.995    -0.006    28.164     8.705
    37   1 H        0.925     0.036     2.507     2.476
    38   1 H        0.925     0.038     2.477     2.461
    39   1 H        0.925     0.032     2.560     2.502
    40   1 H        0.925     0.032     2.561     2.502
    41   1 H        0.925     0.036     2.506     2.476
    42   1 H        0.925     0.038     2.479     2.462
    43   1 H        0.925     0.035     2.514     2.479
    44   1 H        0.925     0.037     2.494     2.470
    45   1 H        0.925     0.035     2.515     2.480
    46   1 H        0.926     0.026     2.639     2.540
    47   1 H        0.926     0.026     2.639     2.540
    48   1 H        0.925     0.036     2.506     2.476
    49   1 H        0.925     0.032     2.559     2.502
    50   1 H        0.925     0.038     2.477     2.461
    51   1 H        0.925     0.037     2.494     2.470
    52   1 H        0.925     0.035     2.515     2.480
    53   1 H        0.925     0.035     2.514     2.480
    54   1 H        0.925     0.036     2.506     2.476
    55   1 H        0.925     0.032     2.561     2.502
    56   1 H        0.925     0.038     2.479     2.462
    57   1 H        0.926     0.040     2.453     2.449
    58   1 H        0.926     0.040     2.453     2.449
    59   1 H        0.925     0.038     2.477     2.461
    60   1 H        0.925     0.032     2.559     2.502
    61   1 H        0.925     0.036     2.506     2.476
    62   1 H        0.925     0.038     2.479     2.462
    63   1 H        0.925     0.036     2.506     2.476
    64   1 H        0.925     0.032     2.561     2.502
    65   1 H        0.925     0.037     2.494     2.470
    66   1 H        0.925     0.035     2.514     2.480
    67   1 H        0.925     0.035     2.515     2.480
    68   1 H        0.926     0.026     2.639     2.540
    69   1 H        0.926     0.026     2.639     2.540
    70   1 H        0.925     0.032     2.561     2.502
    71   1 H        0.925     0.038     2.479     2.462
    72   1 H        0.925     0.036     2.506     2.476
    73   1 H        0.925     0.037     2.494     2.470
    74   1 H        0.925     0.035     2.515     2.480
    75   1 H        0.925     0.035     2.514     2.480
    76   1 H        0.925     0.032     2.559     2.502
    77   1 H        0.925     0.038     2.477     2.461
    78   1 H        0.925     0.036     2.507     2.476
    79   1 H        0.926     0.040     2.453     2.449
    80   1 H        0.926     0.040     2.453     2.449

molecular dipole:
                 x           y           z       tot (Debye)
 q only:       -0.000      -0.000      -0.000
   full:       -0.000      -0.000      -0.000       0.001

 projected vibrational frequencies (cm⁻¹)
eigval :       -0.00    -0.00     0.00     0.00     0.00     0.00
eigval :        7.80    34.88    35.09    40.18    40.43    41.52
eigval :       57.15    84.33    86.32    89.14    96.43   113.18
eigval :      117.39   148.81   164.30   166.65   172.68   178.42
eigval :      185.89   190.09   190.77   207.72   213.21   218.78
eigval :      220.88   221.96   224.01   226.47   240.05   251.25
eigval :      273.00   280.86   287.94   310.07   321.84   323.57
eigval :      325.08   327.34   334.19   335.47   339.36   340.22
eigval :      352.45   359.08   362.67   379.85   394.70   395.01
eigval :      400.30   418.86   425.44   425.73   461.34   470.89
eigval :      484.67   492.57   499.36   502.91   508.69   539.45
eigval :      543.91   552.64   567.49   587.04   590.58   600.99
eigval :      615.54   615.76   621.49   636.98   684.40   698.58
eigval :      702.94   709.38   738.81   774.08   780.62   782.98
eigval :      789.73   816.82   826.98   827.86   828.42   837.92
eigval :      839.52   839.92   859.04   869.56   937.46   955.55
eigval :      959.14   959.15   959.64   959.68   960.51   962.15
eigval :      962.89   963.80   963.94   963.94   964.06   965.95
eigval :      966.02   985.52  1031.64  1031.93  1034.50  1034.57
eigval :     1034.59  1034.66  1036.05  1036.44  1042.96  1074.81
eigval :     1138.38  1146.23  1173.98  1180.04  1182.32  1207.23
eigval :     1218.11  1225.07  1225.15  1225.27  1225.31  1225.33
eigval :     1230.43  1231.82  1232.15  1234.43  1270.48  1273.86
eigval :     1274.79  1284.51  1302.92  1313.92  1315.36  1317.78
eigval :     1340.45  1374.03  1383.28  1383.50  1398.22  1401.32
eigval :     1401.76  1401.81  1403.56  1403.89  1403.92  1403.99
eigval :     1404.07  1408.13  1418.45  1420.49  1427.56  1427.95
eigval :     1428.05  1428.10  1462.70  1480.63  1488.82  1489.70
eigval :     1489.75  1489.78  1489.85  1492.25  1492.32  1492.84
eigval :     1492.91  1496.36  1497.91  1498.63  1498.67  1501.41
eigval :     1502.08  1502.73  1504.52  1510.92  1512.60  1512.62
eigval :     1513.14  1513.14  1518.38  1518.76  1520.07  1521.31
eigval :     1525.42  1539.78  1544.10  1566.12  3017.29  3017.32
eigval :     3017.52  3017.56  3019.09  3019.11  3019.15  3019.16
eigval :     3021.89  3021.92  3021.94  3021.96  3023.71  3023.76
eigval :     3023.80  3024.11  3025.76  3025.78  3025.84  3025.95
eigval :     3028.39  3028.44  3028.59  3028.64  3033.68  3033.69
eigval :     3033.77  3033.95  3043.73  3043.75  3043.82  3043.83
eigval :     3046.81  3046.81  3046.90  3046.96  3077.00  3077.40
eigval :     3081.53  3082.57  3144.12  3144.54  3155.73  3156.99

   temp. (K)  partition function   enthalpy   heat capacity  entropy
                                   cal/mol     cal/K/mol   cal/K/mol   J/K/mol
 298.15  VIB  0.983E+15            21725.042    137.522    131.937
         ROT  0.967E+07              888.752      2.981     34.946
         INT  0.951E+22            22613.794    140.503    166.883
         TR   0.101E+29             1481.254      4.968     44.353
         TOT                       24095.0479   145.4708   211.2358   883.8106

       T/K    H(0)-H(T)+PV         H(T)/Eh          T*S/Eh         G(T)/Eh
   ------------------------------------------------------------------------
    298.15    0.383979E-01    0.725772E+00    0.100365E+00    0.625407E+00
   ------------------------------------------------------------------------

         :::::::::::::::::::::::::::::::::::::::::::::::::::::
         ::                  THERMODYNAMIC                  ::
         :::::::::::::::::::::::::::::::::::::::::::::::::::::
         :: total free energy         -98.982442781490 Eh   ::
         ::.................................................::
         :: total energy              -99.607849346762 Eh   ::
         :: zero point energy           0.687373606069 Eh   ::
         :: G(RRHO) w/o ZPVE           -0.061967040797 Eh   ::
         :: G(RRHO) contrib.            0.625406565271 Eh   ::
         :::::::::::::::::::::::::::::::::::::::::::::::::::::

           -------------------------------------------------
          | TOTAL ENERGY              -99.607849346762 Eh   |
          | TOTAL ENTHALPY            -98.882077837746 Eh   |
          | TOTAL FREE ENERGY         -98.982442781490 Eh   |
          | GRADIENT NORM               0.000107693301 Eh/α |
          | HOMO-LUMO GAP               1.767121128898 eV   |
           -------------------------------------------------

 * finished run on 2025/07/16 at 11:52:17.083
