   * xtb version 6.7.1 (edcfbbe) compiled by 'albert@albert-system' on 2024-07-22

   ID    Z sym.   atoms
    1    6 C      1-36
    2    1 H      37-80

          program call               : xtb data2507/toluene/TBPe/TBPe_toluene_S0_finalOpt.xtbopt.xyz --gfn 2 --uhf 2 --gbsa toluene --ohess vtight --parallel 40 --molden --ceasefiles --namespace data2507/toluene/TBPe/TBPe_toluene_T1_preOpt
      * Solvation model:               GBSA
        Solvent                        toluene
        Solvent mass                       9.2140E+01 g/mol
          :  Hamiltonian                  GFN2-xTB          :
 * total energy  :   -99.5993683 Eh     change       -0.3232657E-08 Eh
 * total energy  :   -99.6051136 Eh     change       -0.5745260E-02 Eh
 * total energy  :   -99.6065067 Eh     change       -0.1393071E-02 Eh
 * total energy  :   -99.6065517 Eh     change       -0.4502589E-04 Eh
 * total energy  :   -99.6065645 Eh     change       -0.1275572E-04 Eh
 * total energy  :   -99.6065679 Eh     change       -0.3440656E-05 Eh
 * total energy  :   -99.6065696 Eh     change       -0.1671164E-05 Eh
 * total energy  :   -99.6065705 Eh     change       -0.9140666E-06 Eh
 * total energy  :   -99.6065712 Eh     change       -0.6959275E-06 Eh
 * total energy  :   -99.6065716 Eh     change       -0.3758193E-06 Eh
 * total energy  :   -99.6065717 Eh     change       -0.1059916E-06 Eh
 * total energy  :   -99.6065717 Eh     change       -0.6916171E-07 Eh
   *** GEOMETRY OPTIMIZATION CONVERGED AFTER 12 ITERATIONS ***

 final structure:
================
80
 xtb: 6.7.1 (edcfbbe)
C            3.19226614985487        4.56900558315709        1.27592335557034
C            3.58940506688073        3.78340018347954        0.01711345463687
C            5.11211826133427        3.61752918381652        0.02211948989691
C            3.20115404310507        4.57890530699498       -1.23824828809156
C            2.85391045612580        2.44942796387942        0.00883259912733
C            3.51961448767923        1.22539328729646        0.00351410472200
C            2.82005608639669        0.00560859722451       -0.00269304306680
C            3.52456268681762       -1.21132746259983       -0.00762273824546
C            2.86383778262708       -2.43804616881980       -0.01453959504765
C            3.60474505130605       -3.76902395578071       -0.02225654869664
C            3.21700873391811       -4.55283084055916       -1.28510251190563
C            3.21350515386938       -4.56944212765928        1.22905686288765
C            5.12678865525369       -3.59703265728771       -0.01887117501238
C            1.48343999783876       -2.43054058432856       -0.01408247261880
C            0.71496928689418       -1.23752628468562       -0.00671053517880
C           -0.71018581504176       -1.24041953909051       -0.00197922474808
C           -1.47380043129059       -2.43654462529034        0.00588509467041
C           -2.85415358295130       -2.44963557216245        0.00848535449052
C           -3.58964855324643       -3.78360515077132        0.01752781794333
C           -3.19333227249020       -4.56792832150360        1.27739989364476
C           -5.11236597724975       -3.61773595236028        0.02134177579061
C           -3.20056336304692       -4.58037886550798       -1.23676787096655
C           -3.51985603230854       -1.22560556512165        0.00209659485201
C           -2.82029844250507       -0.00582323236561       -0.00420424334984
C           -3.52480240172633        1.21111720422028       -0.00995616424209
C           -2.86406636158713        2.43783605553635       -0.01624632465160
C           -3.60493801626896        3.76883304741788       -0.02392879797019
C           -3.21325876658135        4.55529595052389       -1.28390509110362
C           -5.12698417372920        3.59685175638370       -0.02592648243718
C           -3.21758733904740        4.56661529442901        1.23027414394452
C           -1.48366886177300        2.43032651086080       -0.01452880087856
C           -0.71520681793743        1.23730480493968       -0.00707883856875
C            0.70994606327093        1.24020031128051       -0.00183313438262
C            1.47355722543079        2.43633551542189        0.00570505488250
C            1.40057868835885        0.00273088793371       -0.00378581319097
C           -1.40081944940586       -0.00295242714629       -0.00447414264192
H            3.43992013244139        3.99830355273347        2.16911637232771
H            3.72757078278190        5.51578109889109        1.31125049698857
H            2.12657404367137        4.78081238490346        1.29378496985095
H            5.45122899620299        3.08896548773854       -0.86607277141360
H            5.44413805271711        3.07982112654893        0.90751733579323
H            5.58321697967105        4.59868670522894        0.02900009472000
H            2.13555543308724        4.79071492450964       -1.26172352205924
H            3.73662900772803        5.52593044573097       -1.26243024535623
H            3.45499660240367        4.01524166101866       -2.13417285837086
H            4.59602735262506        1.17824565994538        0.00478963691773
H            4.60077747908645       -1.15981628174632       -0.00680756638290
H            3.46851923559630       -3.97954091552525       -2.17556048028532
H            2.15190967556599       -4.76701909321708       -1.30966473794516
H            3.75480339673539       -5.49823398181137       -1.31935079193275
H            3.75366591206270       -5.51378254873680        1.25399143290183
H            3.45949953313957       -4.00662908710808        2.12770052774742
H            2.14893374455520       -4.78686480694737        1.24616158762904
H            5.46157955015506       -3.05681094855480       -0.90167601481265
H            5.45878430075095       -3.06829315178217        0.87191636244502
H            5.60183226183426       -4.57629097063422       -0.02451885749917
H            0.96480304851036       -3.37355484105701       -0.02071342653632
H           -0.95134140643444       -3.37745327621218        0.01142884990025
H           -3.72844892227004       -5.51479242611346        1.31320338625285
H           -2.12760115396926       -4.77945727495717        1.29631046901724
H           -3.44182347067534       -3.99643167299794        2.16985309052153
H           -5.58345832924898       -4.59889270799688        0.02874502670150
H           -5.44501927121780       -3.07927202047234        0.90604164854054
H           -5.45085493143711       -3.08994061829973       -0.86754553409032
H           -3.73619107440136       -5.52733043288826       -1.26044470976440
H           -2.13499100636880       -4.79242278244389       -1.25921274842657
H           -3.45361406289824       -4.01754109052898       -2.13343544104109
H           -4.59627137165379       -1.17846143080084        0.00274679638085
H           -4.60101715279774        1.15961205557311       -0.01007001896026
H           -3.46086047210682        3.98337430575756       -2.17633269106442
H           -3.75190474915299        5.50020405480735       -1.31844273365188
H           -2.14833551626654        4.77074515487364       -1.30414523087582
H           -5.60201604522919        4.57611291326275       -0.03214320915690
H           -5.45861028104859        3.05756215874032       -0.91050487154866
H           -5.46215883699787        3.06716850915583        0.86309643310690
H           -3.75698458123845        5.51139645239478        1.25501038123195
H           -2.15285516067766        4.78293648216489        1.25159432124568
H           -3.46731989350205        4.00234967664441        2.12697545644903
H           -0.96502634563389        3.37334164323367       -0.02009766461168
H            0.95109807107598        3.37724699140571        0.01036911345824

          :  Hamiltonian                  GFN2-xTB          :
         :: gradient norm              0.000076482110 Eh/a0 ::
         :: HOMO-LUMO gap              1.726931796366 eV    ::
         :: SCC energy              -101.316775060042 Eh    ::
         :: -> dispersion             -0.095547111947 Eh    ::
         :: -> Gsolv                  -0.036422588006 Eh    ::
         :: repulsion energy           1.710203330315 Eh    ::

    * Orbital Energies and Occupations

         #    Occupation            Energy/Eh            Energy/eV
      -------------------------------------------------------------
         1        2.0000           -0.6449474             -17.5499
       ...           ...                  ...                  ...
        83        2.0000           -0.4200530             -11.4302
        84        2.0000           -0.4190277             -11.4023
        85        2.0000           -0.4184450             -11.3865
        86        2.0000           -0.4144070             -11.2766
        87        2.0000           -0.4071178             -11.0782
        88        2.0000           -0.3938820             -10.7181
        89        2.0000           -0.3908334             -10.6351
        90        2.0000           -0.3891004             -10.5880
        91        2.0000           -0.3880507             -10.5594
        92        2.0000           -0.3873993             -10.5417
        93        2.0000           -0.3853491             -10.4859
        94        1.0000           -0.3405840              -9.2678
        95        1.0000           -0.2831824              -7.7058 (HOMO)
        96                         -0.2197188              -5.9789 (LUMO)
        97                         -0.2164863              -5.8909
        98                         -0.2162778              -5.8852
        99                         -0.2133923              -5.8067
       100                         -0.1510751              -4.1110
       101                         -0.1485484              -4.0422
       102                         -0.1117263              -3.0402
       103                         -0.0697580              -1.8982
       104                         -0.0143225              -0.3897
       105                          0.0583115               1.5867
       106                          0.0631715               1.7190
       ...                                ...                  ...
       188                          0.7311073              19.8944
      -------------------------------------------------------------
                  HL-Gap            0.0634636 Eh            1.7269 eV

     #   Z          covCN         q      C6AA      α(0)
     1   6 C        3.761    -0.103    22.513     6.764
     2   6 C        3.903     0.024    20.110     6.374
     3   6 C        3.761    -0.106    22.570     6.772
     4   6 C        3.761    -0.103    22.513     6.764
     5   6 C        2.963     0.006    27.890     8.662
     6   6 C        2.929    -0.051    29.278     8.874
     7   6 C        2.976     0.006    27.892     8.663
     8   6 C        2.929    -0.051    29.278     8.874
     9   6 C        2.963     0.006    27.890     8.662
    10   6 C        3.903     0.024    20.110     6.374
    11   6 C        3.761    -0.103    22.513     6.764
    12   6 C        3.761    -0.103    22.513     6.764
    13   6 C        3.761    -0.106    22.570     6.772
    14   6 C        2.926    -0.047    29.166     8.857
    15   6 C        2.974    -0.001    28.058     8.689
    16   6 C        2.974    -0.001    28.058     8.689
    17   6 C        2.926    -0.047    29.166     8.857
    18   6 C        2.963     0.006    27.890     8.662
    19   6 C        3.903     0.024    20.110     6.374
    20   6 C        3.761    -0.103    22.514     6.764
    21   6 C        3.761    -0.106    22.570     6.772
    22   6 C        3.761    -0.103    22.513     6.764
    23   6 C        2.929    -0.051    29.278     8.874
    24   6 C        2.976     0.006    27.892     8.663
    25   6 C        2.929    -0.051    29.278     8.874
    26   6 C        2.963     0.006    27.890     8.662
    27   6 C        3.903     0.024    20.110     6.374
    28   6 C        3.761    -0.103    22.513     6.764
    29   6 C        3.761    -0.106    22.570     6.772
    30   6 C        3.761    -0.103    22.513     6.764
    31   6 C        2.926    -0.047    29.166     8.857
    32   6 C        2.974    -0.001    28.058     8.689
    33   6 C        2.974    -0.001    28.058     8.689
    34   6 C        2.926    -0.047    29.166     8.857
    35   6 C        2.995    -0.006    28.158     8.705
    36   6 C        2.995    -0.006    28.158     8.705
    37   1 H        0.925     0.032     2.560     2.502
    38   1 H        0.925     0.038     2.477     2.461
    39   1 H        0.925     0.035     2.520     2.483
    40   1 H        0.925     0.035     2.510     2.478
    41   1 H        0.925     0.035     2.510     2.478
    42   1 H        0.925     0.036     2.497     2.471
    43   1 H        0.925     0.035     2.521     2.483
    44   1 H        0.925     0.038     2.477     2.461
    45   1 H        0.925     0.032     2.560     2.502
    46   1 H        0.926     0.035     2.513     2.479
    47   1 H        0.926     0.035     2.513     2.479
    48   1 H        0.925     0.032     2.560     2.502
    49   1 H        0.925     0.035     2.520     2.483
    50   1 H        0.925     0.038     2.477     2.461
    51   1 H        0.925     0.038     2.477     2.461
    52   1 H        0.925     0.032     2.560     2.502
    53   1 H        0.925     0.035     2.521     2.483
    54   1 H        0.925     0.035     2.511     2.478
    55   1 H        0.925     0.035     2.510     2.478
    56   1 H        0.925     0.036     2.497     2.471
    57   1 H        0.926     0.030     2.585     2.514
    58   1 H        0.926     0.030     2.585     2.514
    59   1 H        0.925     0.038     2.477     2.461
    60   1 H        0.925     0.035     2.520     2.483
    61   1 H        0.925     0.032     2.560     2.502
    62   1 H        0.925     0.036     2.497     2.471
    63   1 H        0.925     0.035     2.511     2.478
    64   1 H        0.925     0.035     2.510     2.478
    65   1 H        0.925     0.038     2.477     2.461
    66   1 H        0.925     0.035     2.521     2.483
    67   1 H        0.925     0.032     2.560     2.502
    68   1 H        0.926     0.035     2.513     2.479
    69   1 H        0.926     0.035     2.513     2.479
    70   1 H        0.925     0.032     2.560     2.502
    71   1 H        0.925     0.038     2.477     2.461
    72   1 H        0.925     0.035     2.520     2.483
    73   1 H        0.925     0.036     2.497     2.471
    74   1 H        0.925     0.035     2.511     2.478
    75   1 H        0.925     0.035     2.510     2.478
    76   1 H        0.925     0.038     2.477     2.461
    77   1 H        0.925     0.035     2.521     2.483
    78   1 H        0.925     0.032     2.560     2.502
    79   1 H        0.926     0.030     2.585     2.514
    80   1 H        0.926     0.030     2.585     2.514

molecular dipole:
                 x           y           z       tot (Debye)
 q only:        0.000       0.000       0.000
   full:        0.000       0.000       0.000       0.001

 projected vibrational frequencies (cm⁻¹)
eigval :       -0.00    -0.00     0.00     0.00     0.00     0.00
eigval :        7.84    28.65    31.20    32.09    33.35    41.93
eigval :       63.20    81.06    84.09    91.09    96.09   107.50
eigval :      120.75   136.77   155.56   173.16   174.85   179.71
eigval :      185.10   203.92   210.57   211.22   219.60   221.75
eigval :      224.64   228.31   233.58   233.96   249.40   256.48
eigval :      258.58   267.09   298.01   306.05   312.85   316.73
eigval :      320.05   320.68   321.16   323.34   323.95   344.34
eigval :      359.69   362.07   370.17   382.80   393.53   395.21
eigval :      400.02   413.52   426.09   433.04   456.45   469.78
eigval :      482.89   491.69   500.40   504.69   506.29   535.26
eigval :      546.57   555.94   570.22   587.76   590.63   597.57
eigval :      614.42   617.41   618.72   636.28   684.15   699.01
eigval :      701.63   709.37   739.54   770.24   774.77   789.52
eigval :      793.73   818.02   825.20   829.20   831.24   833.12
eigval :      836.65   838.68   858.38   870.92   934.88   956.49
eigval :      956.89   957.18   957.47   957.80   958.10   961.41
eigval :      962.17   962.65   962.70   962.86   963.15   963.27
eigval :      969.89   988.82  1030.71  1031.43  1034.81  1035.00
eigval :     1035.16  1035.25  1035.58  1036.25  1042.93  1077.38
eigval :     1137.16  1150.81  1173.87  1177.45  1187.28  1214.77
eigval :     1219.09  1219.19  1224.75  1224.88  1224.93  1225.00
eigval :     1231.34  1231.59  1235.61  1241.03  1265.59  1269.35
eigval :     1273.83  1288.05  1302.57  1310.46  1314.38  1317.33
eigval :     1343.00  1370.76  1374.95  1386.06  1396.00  1398.52
eigval :     1399.81  1400.25  1401.64  1404.32  1404.36  1404.48
eigval :     1404.56  1406.83  1413.08  1421.25  1427.04  1427.23
eigval :     1427.32  1428.74  1459.58  1474.05  1490.00  1490.12
eigval :     1490.33  1490.43  1492.15  1492.20  1493.00  1493.16
eigval :     1493.92  1495.45  1496.78  1497.29  1502.24  1502.46
eigval :     1503.07  1503.24  1503.43  1511.02  1511.07  1511.20
eigval :     1511.27  1515.01  1517.22  1517.33  1517.61  1518.37
eigval :     1519.09  1531.82  1540.89  1566.28  3018.44  3018.45
eigval :     3018.53  3018.54  3019.47  3019.50  3019.56  3019.58
eigval :     3022.42  3022.43  3022.44  3022.45  3023.90  3023.98
eigval :     3024.10  3024.36  3026.04  3026.09  3026.13  3026.34
eigval :     3029.43  3029.45  3029.52  3029.58  3034.51  3034.57
eigval :     3034.58  3034.72  3042.12  3042.14  3042.17  3042.18
eigval :     3045.23  3045.38  3045.55  3045.58  3107.36  3107.45
eigval :     3110.87  3111.87  3112.39  3113.24  3123.60  3125.77

   temp. (K)  partition function   enthalpy   heat capacity  entropy
                                   cal/mol     cal/K/mol   cal/K/mol   J/K/mol
 298.15  VIB  0.173E+16            21746.459    137.207    131.953
         ROT  0.958E+07              888.752      2.981     34.926
         INT  0.166E+23            22635.211    140.188    166.879
         TR   0.101E+29             1481.254      4.968     44.353
         TOT                       24116.4653   145.1563   211.2323   883.7960

       T/K    H(0)-H(T)+PV         H(T)/Eh          T*S/Eh         G(T)/Eh
   ------------------------------------------------------------------------
    298.15    0.384320E-01    0.725611E+00    0.100363E+00    0.625247E+00
   ------------------------------------------------------------------------

         :::::::::::::::::::::::::::::::::::::::::::::::::::::
         ::                  THERMODYNAMIC                  ::
         :::::::::::::::::::::::::::::::::::::::::::::::::::::
         :: total free energy         -98.981324442211 Eh   ::
         ::.................................................::
         :: total energy              -99.606571729842 Eh   ::
         :: zero point energy           0.687178542158 Eh   ::
         :: G(RRHO) w/o ZPVE           -0.061931254527 Eh   ::
         :: G(RRHO) contrib.            0.625247287631 Eh   ::
         :::::::::::::::::::::::::::::::::::::::::::::::::::::

           -------------------------------------------------
          | TOTAL ENERGY              -99.606571729842 Eh   |
          | TOTAL ENTHALPY            -98.880961153877 Eh   |
          | TOTAL FREE ENERGY         -98.981324442211 Eh   |
          | GRADIENT NORM               0.000076503842 Eh/α |
          | HOMO-LUMO GAP               1.726932424949 eV   |
           -------------------------------------------------

 * finished run on 2025/07/16 at 11:45:35.353
