   * xtb version 6.7.1 (edcfbbe) compiled by 'albert@albert-system' on 2024-07-22

   ID    Z sym.   atoms
    1    8 O      1, 3, 20, 36
    2   16 S      2
    3    6 C      4-7, 9-12, 14-19, 21-28, 30-35, 37-43
    4    7 N      8, 13, 29
    5    1 H      44-66

          program call               : xtb data2507/gas/PSPBP/PSPBP.xyz --gfn 2 --ohess vtight --parallel 40 --molden --ceasefiles --namespace data2507/gas/PSPBP/PSPBP_gas_S0_preOpt
          :  Hamiltonian                  GFN2-xTB          :
 * total energy  :  -114.9509836 Eh     change       -0.1114870E-08 Eh
 * total energy  :  -114.9625810 Eh     change       -0.1159733E-01 Eh
 * total energy  :  -114.9666289 Eh     change       -0.4047874E-02 Eh
 * total energy  :  -114.9676887 Eh     change       -0.1059831E-02 Eh
 * total energy  :  -114.9682760 Eh     change       -0.5872686E-03 Eh
 * total energy  :  -114.9684612 Eh     change       -0.1852269E-03 Eh
 * total energy  :  -114.9685428 Eh     change       -0.8164436E-04 Eh
 * total energy  :  -114.9685975 Eh     change       -0.5463807E-04 Eh
 * total energy  :  -114.9686580 Eh     change       -0.6051261E-04 Eh
 * total energy  :  -114.9687469 Eh     change       -0.8889932E-04 Eh
 * total energy  :  -114.9720263 Eh     change       -0.9428735E-06 Eh
 * total energy  :  -114.9720269 Eh     change       -0.6300812E-06 Eh
 * total energy  :  -114.9720274 Eh     change       -0.5067101E-06 Eh
 * total energy  :  -114.9720279 Eh     change       -0.4752879E-06 Eh
 * total energy  :  -114.9720285 Eh     change       -0.5475456E-06 Eh
 * total energy  :  -114.9720292 Eh     change       -0.7066884E-06 Eh
 * total energy  :  -114.9720301 Eh     change       -0.9264144E-06 Eh
 * total energy  :  -114.9720312 Eh     change       -0.1136417E-05 Eh
 * total energy  :  -114.9720312 Eh     change       -0.5666251E-08 Eh
   *** GEOMETRY OPTIMIZATION CONVERGED AFTER 122 ITERATIONS ***

 final structure:
================
66
 xtb: 6.7.1 (edcfbbe)
O           -2.05795395087330        1.95849333754646       -3.70808937504361
S           -0.71760644937120        2.10734931158269       -3.21154126699117
O            0.37434656590049        2.13549253173097       -4.14323944450249
C           -0.64294642086243        3.57703902942742       -2.17779638874346
C           -1.80316789084537        4.07224634282342       -1.61054695785302
C           -1.70045930505109        5.15004990880681       -0.74513368064143
C           -0.43452241311485        5.65827349985006       -0.48391774497743
N            0.67245886645514        5.18356396937648       -1.03074856373674
C            0.57160542503577        4.16661995250556       -1.86765748835273
C           -0.40244863987123        0.85923370698981       -1.95963902578718
C            0.90038918038077        0.67930932159198       -1.54821528104459
C            1.16169209953019       -0.15443392978980       -0.46116753623551
N            2.47290330574287       -0.29894509316627        0.01360886441306
C            3.21264077543974        0.83405029586612        0.38290730982147
C            2.66126748278755        2.10885185602126        0.41346531107723
C            3.42347260256430        3.20920106736519        0.77489454947683
C            4.74638140769938        3.04956495553551        1.13476738935187
C            5.29991197239534        1.77842312177059        1.15638689073328
C            4.54281878623855        0.67905319285965        0.79334161320093
O            5.15058745462243       -0.54730418908097        0.87669415445950
C            4.42389471898557       -1.64398621720248        0.48932014632510
C            5.06686647613566       -2.86767190306251        0.53716354842554
C            4.41314576911077       -4.01905236631797        0.12618135583746
C            3.12191992020155       -3.93272301688124       -0.35339873376024
C            2.47202822553332       -2.70872695557883       -0.40068274767380
C            3.09931826339580       -1.55202812835296        0.04314622106023
C            0.10527458618768       -0.81678944672182        0.15955311225348
C           -1.20247149270251       -0.64730057683343       -0.28786974914307
N           -2.25575247499562       -1.32566520160245        0.34738481803793
C           -3.06404975982240       -2.21695659378705       -0.37161820145978
C           -2.84264378490690       -2.50721499621657       -1.71141730687197
C           -3.65742076204085       -3.40273099842102       -2.38748711091277
C           -4.69801976131155       -4.03076259337729       -1.73370885183725
C           -4.91262958882923       -3.77507066626257       -0.38796475089859
C           -4.10135282636711       -2.88472424065351        0.29129942188912
O           -4.35548607180768       -2.71121212414425        1.62910716005912
C           -3.57403517884572       -1.81623696783811        2.31253907688961
C           -3.86840783916474       -1.62218129936385        3.64983033639694
C           -3.14478230925869       -0.70883927675315        4.40150450731712
C           -2.14062839246058        0.02207670981368        3.80012336157254
C           -1.84019756777612       -0.17003788595624        2.45986061176429
C           -2.53157312533265       -1.10645030383098        1.70206629039571
C           -1.46043968836017        0.22116957838397       -1.34884234452517
H           -2.74985592803713        3.61996739772559       -1.86436681331058
H           -2.57480430260178        5.58054905919509       -0.28327633251320
H           -0.29564810699935        6.48945539458261        0.19451250892349
H            1.48820829757461        3.81221669656448       -2.31735807103210
H            1.69815810342365        1.17588607356568       -2.07619547171307
H            1.62283190949301        2.25346642466453        0.15766358154263
H            2.96639227007928        4.18634807265488        0.76537355520772
H            5.34800139393990        3.90096282518394        1.41007335342913
H            6.32266820696480        1.61494419760590        1.45596821657976
H            6.08401760995334       -2.89492429225258        0.89356884026479
H            4.92108966768945       -4.96924162846896        0.17043699131394
H            2.60722982828193       -4.81530762976102       -0.70014211882494
H            1.47162550290498       -2.65579750330876       -0.80030050009820
H            0.30021520458734       -1.46397288980804        1.00198109545881
H           -2.02586136953130       -2.03598430542480       -2.23490658434328
H           -3.46576945561390       -3.60346081048480       -3.42991356362930
H           -5.33733030470166       -4.72431106779461       -2.25628274135779
H           -5.70409352343272       -4.26237631364572        0.15845892191843
H           -4.67305476100889       -2.19459219076342        4.08253361193148
H           -3.37856282474374       -0.56785050894095        5.44472293339053
H           -1.58146807294806        0.75171943970265        4.36516510946829
H           -1.06411512656427        0.42221737724540        2.00029749976922
H           -2.46380440902852        0.39707346333231       -1.70247952211880

          :  Hamiltonian                  GFN2-xTB          :
         :: gradient norm              0.000047325291 Eh/a0 ::
         :: HOMO-LUMO gap              1.729968267171 eV    ::
         :: SCC energy              -116.810774649827 Eh    ::
         :: -> dispersion             -0.096767240179 Eh    ::
         :: repulsion energy           1.838743403170 Eh    ::

    * Orbital Energies and Occupations

         #    Occupation            Energy/Eh            Energy/eV
      -------------------------------------------------------------
         1        2.0000           -0.7819677             -21.2784
       ...           ...                  ...                  ...
        92        2.0000           -0.4365466             -11.8790
        93        2.0000           -0.4315643             -11.7435
        94        2.0000           -0.4297953             -11.6953
        95        2.0000           -0.4224458             -11.4953
        96        2.0000           -0.4222370             -11.4897
        97        2.0000           -0.4218998             -11.4805
        98        2.0000           -0.4196363             -11.4189
        99        2.0000           -0.4191621             -11.4060
       100        2.0000           -0.3973565             -10.8126
       101        2.0000           -0.3971084             -10.8059
       102        2.0000           -0.3941842             -10.7263
       103        2.0000           -0.3529482              -9.6042
       104        2.0000           -0.3513322              -9.5602 (HOMO)
       105                         -0.2877571              -7.8303 (LUMO)
       106                         -0.2769493              -7.5362
       107                         -0.2654281              -7.2227
       108                         -0.2642108              -7.1895
       109                         -0.2450877              -6.6692
       110                         -0.2447486              -6.6599
       111                         -0.2365395              -6.4366
       112                         -0.2361859              -6.4269
       113                         -0.2223720              -6.0511
       114                         -0.2204252              -5.9981
       115                         -0.2036543              -5.5417
       ...                                ...                  ...
       200                          1.2036983              32.7543
      -------------------------------------------------------------
                  HL-Gap            0.0635752 Eh            1.7300 eV

     #   Z          covCN         q      C6AA      α(0)
     1   8 O        0.860    -0.533    24.534     6.641
     2  16 S        3.814     0.959   107.840    17.478
     3   8 O        0.860    -0.532    24.515     6.638
     4   6 C        2.964    -0.090    30.243     9.020
     5   6 C        2.963    -0.009    28.232     8.715
     6   6 C        2.916    -0.033    28.811     8.802
     7   6 C        2.913     0.062    26.605     8.458
     8   7 N        1.837    -0.197    26.099     7.571
     9   6 C        2.940     0.063    26.586     8.457
    10   6 C        2.970    -0.080    29.991     8.983
    11   6 C        2.970    -0.050    29.232     8.868
    12   6 C        2.921     0.075    26.334     8.415
    13   7 N        2.751    -0.067    22.548     7.052
    14   6 C        2.922     0.041    27.092     8.536
    15   6 C        2.924    -0.059    29.455     8.900
    16   6 C        2.919    -0.038    28.954     8.824
    17   6 C        2.919    -0.037    28.927     8.820
    18   6 C        2.920    -0.055    29.363     8.886
    19   6 C        2.884     0.127    25.219     8.233
    20   8 O        1.709    -0.250    18.141     5.751
    21   6 C        2.884     0.126    25.227     8.234
    22   6 C        2.920    -0.055    29.363     8.886
    23   6 C        2.919    -0.038    28.950     8.823
    24   6 C        2.919    -0.038    28.936     8.821
    25   6 C        2.924    -0.059    29.472     8.903
    26   6 C        2.920     0.041    27.072     8.532
    27   6 C        2.925    -0.055    29.376     8.888
    28   6 C        2.922     0.074    26.350     8.418
    29   7 N        2.751    -0.069    22.586     7.058
    30   6 C        2.921     0.041    27.083     8.534
    31   6 C        2.923    -0.058    29.447     8.899
    32   6 C        2.919    -0.037    28.909     8.817
    33   6 C        2.919    -0.038    28.946     8.823
    34   6 C        2.920    -0.055    29.364     8.886
    35   6 C        2.884     0.126    25.243     8.237
    36   8 O        1.709    -0.251    18.161     5.754
    37   6 C        2.884     0.127    25.224     8.234
    38   6 C        2.920    -0.055    29.378     8.888
    39   6 C        2.919    -0.039    28.969     8.826
    40   6 C        2.919    -0.039    28.960     8.825
    41   6 C        2.924    -0.061    29.510     8.908
    42   6 C        2.921     0.041    27.085     8.535
    43   6 C        2.957    -0.048    29.200     8.863
    44   1 H        0.926     0.065     2.138     2.286
    45   1 H        0.926     0.057     2.232     2.336
    46   1 H        0.925     0.060     2.203     2.321
    47   1 H        0.926     0.065     2.136     2.285
    48   1 H        0.926     0.066     2.130     2.282
    49   1 H        0.926     0.023     2.686     2.563
    50   1 H        0.926     0.047     2.356     2.400
    51   1 H        0.926     0.044     2.396     2.421
    52   1 H        0.926     0.055     2.259     2.350
    53   1 H        0.926     0.054     2.267     2.355
    54   1 H        0.926     0.042     2.420     2.433
    55   1 H        0.926     0.040     2.453     2.449
    56   1 H        0.926     0.035     2.519     2.482
    57   1 H        0.926     0.064     2.149     2.293
    58   1 H        0.926     0.036     2.507     2.476
    59   1 H        0.926     0.042     2.421     2.433
    60   1 H        0.926     0.043     2.414     2.430
    61   1 H        0.926     0.054     2.273     2.357
    62   1 H        0.926     0.054     2.270     2.356
    63   1 H        0.926     0.041     2.430     2.438
    64   1 H        0.926     0.038     2.481     2.463
    65   1 H        0.926     0.029     2.598     2.520
    66   1 H        0.926     0.069     2.091     2.261

molecular dipole:
                 x           y           z       tot (Debye)
 q only:        0.005       0.109       1.991
   full:       -0.370       0.089       1.763       4.585

 projected vibrational frequencies (cm⁻¹)
eigval :       -0.00    -0.00    -0.00     0.00     0.00     0.00
eigval :        9.70    13.66    17.13    19.80    20.03    28.17
eigval :       38.37    43.41    46.78    53.32    70.09    91.00
eigval :      111.39   115.81   129.06   133.32   135.41   161.53
eigval :      190.24   215.19   235.36   246.48   249.78   253.13
eigval :      256.60   258.18   273.00   275.66   286.46   291.90
eigval :      305.08   331.46   350.43   353.09   377.18   396.66
eigval :      397.50   402.48   419.27   423.72   429.92   431.83
eigval :      432.60   443.83   469.07   491.65   502.23   509.81
eigval :      510.10   518.04   521.90   525.07   534.77   565.42
eigval :      570.71   576.28   588.18   592.89   596.39   633.82
eigval :      645.62   656.45   660.84   661.18   661.90   663.91
eigval :      674.41   686.28   704.99   718.95   742.06   778.69
eigval :      779.48   780.64   781.76   782.01   809.57   814.13
eigval :      839.53   856.10   856.38   864.61   865.74   867.79
eigval :      873.31   892.48   895.65   899.26   901.70   902.50
eigval :      907.49   910.97   913.25   915.76   916.50   917.36
eigval :      921.02   922.71   924.51   926.32   930.29   991.74
eigval :      993.12  1029.67  1080.86  1090.22  1090.75  1091.88
eigval :     1092.04  1097.91  1109.05  1109.47  1109.82  1116.48
eigval :     1120.27  1128.61  1140.28  1159.16  1174.72  1175.18
eigval :     1175.57  1183.02  1184.62  1190.27  1200.96  1202.44
eigval :     1203.09  1209.57  1234.35  1237.95  1244.13  1244.51
eigval :     1254.62  1261.91  1263.01  1276.73  1277.28  1307.80
eigval :     1308.78  1312.63  1326.41  1336.74  1338.72  1349.72
eigval :     1359.79  1389.56  1414.80  1421.94  1426.83  1427.29
eigval :     1437.58  1443.75  1450.50  1486.22  1488.44  1501.58
eigval :     1504.22  1537.34  1553.17  1568.78  1569.16  1573.35
eigval :     1576.18  1580.39  1580.84  1591.18  1591.35  1602.17
eigval :     1602.70  3066.77  3080.35  3089.30  3089.33  3091.28
eigval :     3091.86  3093.98  3096.19  3098.16  3098.18  3100.86
eigval :     3101.29  3102.51  3105.38  3106.81  3107.65  3108.71
eigval :     3112.10  3114.91  3115.06  3115.48  3115.60  3116.34

   temp. (K)  partition function   enthalpy   heat capacity  entropy
                                   cal/mol     cal/K/mol   cal/K/mol   J/K/mol
 298.15  VIB  0.199E+17            20029.217    124.337    124.451
         ROT  0.514E+08              888.752      2.981     38.267
         INT  0.102E+25            20917.969    127.318    162.718
         TR   0.136E+29             1481.254      4.968     44.946
         TOT                       22399.2232   132.2860   207.6639   868.8656

       T/K    H(0)-H(T)+PV         H(T)/Eh          T*S/Eh         G(T)/Eh
   ------------------------------------------------------------------------
    298.15    0.356954E-01    0.518937E+00    0.986678E-01    0.420270E+00
   ------------------------------------------------------------------------

         :::::::::::::::::::::::::::::::::::::::::::::::::::::
         ::                  THERMODYNAMIC                  ::
         :::::::::::::::::::::::::::::::::::::::::::::::::::::
         :: total free energy        -114.551761699599 Eh   ::
         ::.................................................::
         :: total energy             -114.972031246656 Eh   ::
         :: zero point energy           0.483241911551 Eh   ::
         :: G(RRHO) w/o ZPVE           -0.062972364494 Eh   ::
         :: G(RRHO) contrib.            0.420269547057 Eh   ::
         :::::::::::::::::::::::::::::::::::::::::::::::::::::

           -------------------------------------------------
          | TOTAL ENERGY             -114.972031246656 Eh   |
          | TOTAL ENTHALPY           -114.453093900812 Eh   |
          | TOTAL FREE ENERGY        -114.551761699599 Eh   |
          | GRADIENT NORM               0.000047337120 Eh/α |
          | HOMO-LUMO GAP               1.729968329902 eV   |
           -------------------------------------------------

 * finished run on 2025/08/24 at 15:32:51.106
