   * xtb version 6.7.1 (edcfbbe) compiled by 'albert@albert-system' on 2024-07-22

   ID    Z sym.   atoms
    1    8 O      1, 3, 20, 36
    2   16 S      2
    3    6 C      4-7, 9-12, 14-19, 21-28, 30-35, 37-43
    4    7 N      8, 13, 29
    5    1 H      44-66

          program call               : xtb data2507/gas/PSPBP/PSPBP_gas_S0_finalOpt.xtbopt.xyz --gfn 2 --spinpol --tblite --uhf 2 --ohess vtight --parallel 40 --molden --ceasefiles --namespace data2507/gas/PSPBP/PSPBP_gas_T1_preOpt
 * total energy  :  -114.8848114 Eh     change       -0.7132228E-07 Eh
 * total energy  :  -114.8883388 Eh     change       -0.3527462E-02 Eh
 * total energy  :  -114.8894546 Eh     change       -0.1115766E-02 Eh
 * total energy  :  -114.8896344 Eh     change       -0.1797882E-03 Eh
 * total energy  :  -114.8898013 Eh     change       -0.1669472E-03 Eh
 * total energy  :  -114.8898973 Eh     change       -0.9596992E-04 Eh
 * total energy  :  -114.8899940 Eh     change       -0.9675615E-04 Eh
 * total energy  :  -114.8900944 Eh     change       -0.1003448E-03 Eh
 * total energy  :  -114.8901785 Eh     change       -0.8411528E-04 Eh
 * total energy  :  -114.8902512 Eh     change       -0.7269820E-04 Eh
 * total energy  :  -114.8906090 Eh     change       -0.2957537E-06 Eh
 * total energy  :  -114.8906093 Eh     change       -0.2870080E-06 Eh
 * total energy  :  -114.8906098 Eh     change       -0.4790597E-06 Eh
 * total energy  :  -114.8906100 Eh     change       -0.2647992E-06 Eh
 * total energy  :  -114.8906104 Eh     change       -0.3113960E-06 Eh
 * total energy  :  -114.8906105 Eh     change       -0.1443515E-06 Eh
 * total energy  :  -114.8906107 Eh     change       -0.1949727E-06 Eh
 * total energy  :  -114.8906109 Eh     change       -0.1899548E-06 Eh
 * total energy  :  -114.8906109 Eh     change       -0.5577955E-07 Eh
   *** GEOMETRY OPTIMIZATION CONVERGED AFTER 62 ITERATIONS ***

 final structure:
================
66
 xtb: 6.7.1 (edcfbbe)
O           -1.64758947173706        2.62770085707407       -3.29034940981880
S           -0.39131001220742        2.64375621777675       -2.58577175102939
O            0.80437784471041        3.01745862488404       -3.29835264988436
C           -0.53928297731057        3.62870940640818       -1.11821788754411
C            0.60495318074583        4.12984636187604       -0.48580830580076
C            0.47404328412046        4.66798478729238        0.77725677764098
C           -0.78435712726754        4.66946205298913        1.37436276620880
N           -1.87212559067640        4.19168527903004        0.76791281398002
C           -1.75552039405865        3.68986072897893       -0.43932384735729
C           -0.14734611195562        1.09435346829951       -1.77741248773136
C            1.13082494768673        0.76734961055873       -1.29652926224487
C            1.27057270606625       -0.24210775565205       -0.37484228875194
N            2.55756219405920       -0.57156434474968        0.12634624278929
C            3.22030672807328        0.30385359551517        0.96742154994031
C            2.65969499852414        1.51227955787828        1.38045902323306
C            3.35841841082506        2.35955421454871        2.21644261873924
C            4.63184833216124        2.02143337887449        2.66271934941651
C            5.19720466143301        0.81868379695852        2.28184497427578
C            4.50275304867370       -0.04397137159705        1.44779456399526
O            5.09886534574063       -1.22739236579986        1.12623687527802
C            4.43430475624788       -2.07538137394273        0.29153994048025
C            5.05627435459802       -3.26828530800047       -0.04507550079504
C            4.43648566604019       -4.15610935302084       -0.90483609543622
C            3.19438004230595       -3.84358434561040       -1.44700480312123
C            2.56672686022824       -2.65836118036297       -1.11935661865089
C            3.16142029622849       -1.76196777708142       -0.23296673840649
C            0.15605672144940       -0.94526098485368        0.11672193894621
C           -1.11830478265416       -0.59499083923135       -0.37021052765443
N           -2.26172190487349       -1.25234301539353        0.15078227659931
C           -2.50009096186656       -2.58826505102777       -0.12102961506513
C           -1.63905923574576       -3.35001020020754       -0.90807509597906
C           -1.90308826085155       -4.68484656888287       -1.15091700004706
C           -3.03689277761441       -5.28380344966313       -0.62328511500823
C           -3.91889797568947       -4.53744093374851        0.13847954257917
C           -3.66189697267935       -3.19846825883607        0.38865180037430
O           -4.57965524816356       -2.50896521418985        1.12578232034175
C           -4.34427512085274       -1.18424157322450        1.36407645461849
C           -5.29365912657156       -0.48688335713777        2.09405700083532
C           -5.10160013670337        0.85309437199559        2.38324923954406
C           -3.94488365018146        1.49214017093555        1.96049532259491
C           -2.99304783792645        0.80272718305033        1.23489444150055
C           -3.18335347999600       -0.53665899150990        0.90102926951243
C           -1.27158890197180        0.40358755916985       -1.30158438625620
H            1.54880244956846        4.09604927468905       -1.00717016343889
H            1.32428752402124        5.08302146594006        1.29696542945438
H           -0.93988625619794        5.06789738583524        2.36652780723034
H           -2.65578163473028        3.32286376101954       -0.91221734283351
H            1.98074092360893        1.31365713405253       -1.67208198484662
H            1.67264635116747        1.78155921203397        1.03842829226736
H            2.90610025584229        3.28848889381064        2.52474356506859
H            5.17703673038330        2.68948663027914        3.30984229109207
H            6.17683445431011        0.52300881378689        2.62147322157324
H            6.02683980536200       -3.47550536765645        0.37610822129521
H            4.92369674452747       -5.08307598819327       -1.16109361780938
H            2.71745346184275       -4.52562749676150       -2.13295020221606
H            1.61385844855476       -2.40665803663683       -1.55569303340051
H            0.27256107417190       -1.71329358864958        0.86299178731768
H           -0.76663128804812       -2.88229835407835       -1.33348743073467
H           -1.22136449110444       -5.25741508542485       -1.75990962044152
H           -3.24160712026968       -6.32540885310037       -0.81228713108965
H           -4.81805873775668       -4.97037657669329        0.54615840689612
H           -6.17419037076582       -1.01508001329912        2.42302169450593
H           -5.84937247849672        1.39158060717856        2.94306377450318
H           -3.77385203648328        2.53319914158043        2.18355156842806
H           -2.09563683318203        1.30798751822869        0.91722883555823
H           -2.24185972230761        0.67730287046868       -1.68329954914684

 projected vibrational frequencies (cm⁻¹)
eigval :       -0.00    -0.00    -0.00     0.00     0.00     0.00
eigval :       10.86    14.49    19.76    20.80    29.93    34.23
eigval :       41.61    56.03    57.71    64.23    65.99    93.21
eigval :      106.92   111.04   123.24   132.72   136.14   166.25
eigval :      189.62   207.02   212.95   239.39   243.18   244.52
eigval :      255.52   258.16   266.19   273.49   291.05   297.58
eigval :      312.03   331.49   362.33   364.86   378.42   384.70
eigval :      390.54   398.57   414.85   417.38   421.17   424.00
eigval :      429.64   440.21   450.34   475.05   487.80   491.88
eigval :      496.14   497.00   501.78   507.67   522.31   532.75
eigval :      537.82   566.42   569.73   581.34   587.80   614.17
eigval :      616.14   630.94   644.08   654.82   655.00   656.16
eigval :      660.29   664.44   668.01   691.24   715.17   733.09
eigval :      750.74   766.34   770.14   773.23   779.72   794.37
eigval :      808.33   819.81   828.03   852.66   853.63   854.69
eigval :      856.25   861.69   863.95   867.14   871.95   894.78
eigval :      896.73   898.18   898.47   904.72   905.25   906.15
eigval :      906.39   910.52   912.70   913.03   916.51   923.89
eigval :      950.08   967.85  1015.16  1063.33  1065.37  1074.16
eigval :     1075.62  1080.59  1081.37  1083.84  1100.54  1106.65
eigval :     1114.51  1116.94  1121.49  1122.46  1162.29  1165.86
eigval :     1167.56  1169.56  1173.22  1184.56  1189.91  1199.35
eigval :     1204.48  1208.38  1212.00  1227.53  1231.56  1237.83
eigval :     1238.17  1240.60  1242.92  1251.73  1266.36  1300.35
eigval :     1304.57  1308.77  1316.22  1320.86  1323.40  1328.58
eigval :     1340.78  1350.69  1357.10  1364.92  1370.20  1399.44
eigval :     1415.19  1418.05  1418.52  1434.50  1435.68  1437.42
eigval :     1439.24  1448.58  1449.85  1489.76  1492.31  1502.32
eigval :     1506.02  1524.52  1534.04  1546.32  1547.82  1558.60
eigval :     1567.78  3070.46  3071.03  3081.97  3096.63  3097.35
eigval :     3098.06  3098.18  3101.68  3102.88  3105.64  3106.39
eigval :     3108.35  3110.22  3110.61  3110.85  3112.54  3114.36
eigval :     3114.74  3116.66  3116.75  3117.58  3119.11  3120.41

   temp. (K)  partition function   enthalpy   heat capacity  entropy
                                   cal/mol     cal/K/mol   cal/K/mol   J/K/mol
 298.15  VIB  0.677E+16            20363.222    128.243    125.845
         ROT  0.483E+08              888.752      2.981     38.140
         INT  0.327E+24            21251.974    131.224    163.985
         TR   0.136E+29             1481.254      4.968     44.946
         TOT                       22733.2281   136.1919   208.9312   874.1682

       T/K    H(0)-H(T)+PV         H(T)/Eh          T*S/Eh         G(T)/Eh
   ------------------------------------------------------------------------
    298.15    0.362277E-01    0.512301E+00    0.992700E-01    0.413031E+00
   ------------------------------------------------------------------------

         :::::::::::::::::::::::::::::::::::::::::::::::::::::
         ::                  THERMODYNAMIC                  ::
         :::::::::::::::::::::::::::::::::::::::::::::::::::::
         :: total free energy        -114.477580047076 Eh   ::
         ::.................................................::
         :: total energy             -114.890611032007 Eh   ::
         :: zero point energy           0.476073247031 Eh   ::
         :: G(RRHO) w/o ZPVE           -0.063042262100 Eh   ::
         :: G(RRHO) contrib.            0.413030984931 Eh   ::
         :::::::::::::::::::::::::::::::::::::::::::::::::::::

           -------------------------------------------------
          | TOTAL ENERGY             -114.890611032007 Eh   |
          | TOTAL ENTHALPY           -114.378310079942 Eh   |
          | TOTAL FREE ENERGY        -114.477580047076 Eh   |
          | GRADIENT NORM               0.000072211909 Eh/α |
           -------------------------------------------------

 * finished run on 2025/08/24 at 15:36:53.699
