   * xtb version 6.7.1 (edcfbbe) compiled by 'albert@albert-system' on 2024-07-22

   ID    Z sym.   atoms
    1    8 O      1, 3, 20, 36
    2   16 S      2
    3    6 C      4-7, 9-12, 14-19, 21-28, 30-35, 37-43
    4    7 N      8, 13, 29
    5    1 H      44-66

          program call               : xtb data2507/gas/PSPBP/PSPBP_gas_T1_crest.xyz --gfn 2 --spinpol --tblite --uhf 2 --ohess vtight --parallel 40 --molden --ceasefiles --namespace data2507/gas/PSPBP/PSPBP_gas_T1_finalOpt
 * total energy  :  -114.8905769 Eh     change       -0.8867445E-08 Eh
 * total energy  :  -114.8905886 Eh     change       -0.1174276E-04 Eh
 * total energy  :  -114.8905955 Eh     change       -0.6815204E-05 Eh
 * total energy  :  -114.8905970 Eh     change       -0.1533168E-05 Eh
 * total energy  :  -114.8905986 Eh     change       -0.1640171E-05 Eh
 * total energy  :  -114.8906002 Eh     change       -0.1579851E-05 Eh
 * total energy  :  -114.8906020 Eh     change       -0.1765378E-05 Eh
 * total energy  :  -114.8906032 Eh     change       -0.1210449E-05 Eh
 * total energy  :  -114.8906042 Eh     change       -0.1026038E-05 Eh
 * total energy  :  -114.8906057 Eh     change       -0.1441940E-05 Eh
 * total energy  :  -114.8906123 Eh     change       -0.4184352E-06 Eh
 * total energy  :  -114.8906125 Eh     change       -0.2404233E-06 Eh
 * total energy  :  -114.8906129 Eh     change       -0.3974102E-06 Eh
 * total energy  :  -114.8906132 Eh     change       -0.2920210E-06 Eh
 * total energy  :  -114.8906133 Eh     change       -0.1290253E-06 Eh
 * total energy  :  -114.8906135 Eh     change       -0.1606459E-06 Eh
 * total energy  :  -114.8906133 Eh     change        0.1769480E-06 Eh
 * total energy  :  -114.8906135 Eh     change       -0.2123223E-06 Eh
 * total energy  :  -114.8906136 Eh     change       -0.7472268E-07 Eh
   *** GEOMETRY OPTIMIZATION CONVERGED AFTER 26 ITERATIONS ***

 final structure:
================
66
 xtb: 6.7.1 (edcfbbe)
O            1.11008473021891       -2.90241119146241       -3.31740505127182
S           -0.11600843472924       -2.65823644906836       -2.60036265234554
O           -1.36898213087076       -2.76784694552345       -3.30250480746968
C           -0.15733755447476       -3.66150446365916       -1.13831025322904
C            1.03466356273569       -4.04574151044635       -0.51227641535528
C            0.96466291071735       -4.60010993868216        0.74859938020534
C           -0.28459980411141       -4.73306926323176        1.35006175154874
N           -1.41797974721948       -4.36647089014961        0.74965852243313
C           -1.35822037139726       -3.84990541007565       -0.45550415242130
C           -0.03148959199341       -1.09688725729373       -1.78283841595113
C            1.20650312177002       -0.64597789125842       -1.29654189018246
C            1.24183393662435        0.36634447634646       -0.36835646093085
N            2.48817693278197        0.81901101117194        0.14011562712993
C            2.98097992310348        2.05795351172395       -0.22362736129151
C            2.31133245857692        2.88889142079106       -1.12017446168381
C            2.82904962181970        4.12463532009134       -1.45350836714824
C            4.03322797185697        4.55453885888157       -0.90641951658610
C            4.72616868141850        3.73481899276067       -0.03481651769040
C            4.21484647291647        2.49216544035717        0.30767453244050
O            4.94780300860502        1.71634050825817        1.15549365830847
C            4.46032535186810        0.48592799527916        1.48416980038146
C            5.22246624632156       -0.30084619194429        2.33392750370201
C            4.76678300543588       -1.54745382143853        2.72110750478103
C            3.53597511084269       -2.00711924795828        2.26441623248574
C            2.77099812413660       -1.23600387507982        1.41272482260357
C            3.22099175397746        0.01616889001438        0.99503176629884
C            0.06168951229186        0.95105733744024        0.12453079510917
C           -1.17012714076422        0.47637960874606       -0.36673538562988
N           -2.37449954158225        1.01078053512429        0.15742913333237
C           -3.21715095138725        0.20125067510288        0.90497483963414
C           -2.89122821576504       -1.11371545381831        1.23113452550338
C           -3.76645989855090       -1.89979942749375        1.95480818898621
C           -4.98109135385911       -1.38353899634701        2.38317103332705
C           -5.30888087716390       -0.06856849914957        2.10139686117234
C           -4.43687381064791        0.72531864402782        1.37343085045130
O           -4.80590890950653        2.02045764141093        1.14252868764533
C           -3.96362845222705        2.80393203603310        0.40925599732863
C           -4.35489491040343        4.11169673138184        0.16800960821633
C           -3.55363868358121        4.94823990458854       -0.58920800044700
C           -2.36543571002377        4.47046371086773       -1.12106357027778
C           -1.96749011362667        3.16764933748591       -0.88714977954679
C           -2.74660861395198        2.31758875835299       -0.10510674372329
C           -1.22039151685473       -0.52672628824428       -1.30438296830452
H            1.96799858844103       -3.91312627231973       -1.03673159533827
H            1.85518675456517       -4.92802328935290        1.26309598969574
H           -0.39472171275336       -5.14979121711681        2.34079480357043
H           -2.29321313512295       -3.57474455612425       -0.92335086935712
H            2.10789911686935       -1.10208329611180       -1.67236518176572
H            1.38840727098073        2.54681259223396       -1.55954875853183
H            2.29578535986147        4.75466771546261       -2.14767128759372
H            4.43461207339654        5.52050843364476       -1.16741865341423
H            5.67001186373675        4.03465951539350        0.39131974030965
H            6.16663482411727        0.08745081444581        2.68064263406842
H            5.36417518645521       -2.15574955264490        3.38096676943324
H            3.16866169543522       -2.97155236344350        2.57676150051377
H            1.81772280843092       -1.59922754774978        1.06188599125023
H            0.09909119754304        1.72260426477430        0.87530119209845
H           -1.94796685677829       -1.52368826362429        0.90907273474933
H           -3.49015031380471       -2.91921693597280        2.17216901607483
H           -5.66896210130279       -1.99797763354274        2.94158175231653
H           -6.23768841735305        0.36582222615625        2.43480944964600
H           -5.29269025802183        4.44894360952023        0.57902133724311
H           -3.86275287360215        5.96502895190226       -0.77129980336767
H           -1.74564850471836        5.11310878278783       -1.72630911179654
H           -1.05233210946223        2.79347151417052       -1.31544253610243
H           -2.15752829474000       -0.89533344310068       -1.68906406714017

 projected vibrational frequencies (cm⁻¹)
eigval :       -0.00    -0.00    -0.00     0.00     0.00     0.00
eigval :       11.10    14.32    19.90    20.31    28.29    34.15
eigval :       41.41    56.07    57.38    63.94    65.77    93.57
eigval :      106.79   111.04   123.05   132.77   135.68   165.90
eigval :      189.43   206.73   211.87   239.29   243.30   244.48
eigval :      255.27   258.02   266.25   273.25   291.05   297.15
eigval :      312.05   330.86   362.45   364.83   378.56   384.49
eigval :      390.40   398.39   414.99   417.44   421.13   423.74
eigval :      429.51   439.80   449.51   475.20   485.80   489.83
eigval :      496.25   496.79   501.59   503.53   522.27   532.61
eigval :      537.63   565.81   569.67   581.31   587.73   610.86
eigval :      615.62   630.94   644.01   654.80   654.84   656.18
eigval :      660.42   664.28   667.84   691.11   714.45   733.00
eigval :      750.69   766.67   770.32   773.20   779.85   792.67
eigval :      807.79   819.32   824.99   852.41   853.46   854.90
eigval :      856.50   861.84   863.91   867.09   872.15   894.93
eigval :      896.71   898.13   898.43   904.61   905.21   906.30
eigval :      906.60   910.74   912.58   912.90   916.47   923.81
eigval :      948.60   966.88  1015.48  1062.25  1064.69  1073.05
eigval :     1075.52  1080.59  1081.18  1085.82  1101.38  1105.43
eigval :     1114.59  1116.89  1121.62  1122.22  1162.62  1165.67
eigval :     1167.46  1169.63  1173.17  1184.37  1188.19  1199.34
eigval :     1204.47  1208.28  1212.38  1227.90  1231.49  1237.62
eigval :     1238.33  1240.50  1243.09  1251.87  1265.93  1300.40
eigval :     1304.48  1309.12  1316.59  1321.01  1323.52  1328.41
eigval :     1340.88  1350.64  1356.93  1364.87  1370.11  1399.66
eigval :     1414.72  1418.03  1418.72  1434.91  1436.00  1437.40
eigval :     1439.06  1448.68  1450.02  1490.46  1492.96  1502.89
eigval :     1505.04  1525.31  1534.97  1545.72  1547.01  1557.72
eigval :     1568.53  3070.44  3071.04  3082.18  3097.06  3097.44
eigval :     3098.13  3098.21  3101.75  3103.00  3105.75  3106.43
eigval :     3108.38  3110.36  3110.69  3111.23  3112.74  3114.10
eigval :     3114.98  3116.80  3116.90  3117.66  3118.84  3120.01

   temp. (K)  partition function   enthalpy   heat capacity  entropy
                                   cal/mol     cal/K/mol   cal/K/mol   J/K/mol
 298.15  VIB  0.743E+16            20378.955    128.259    125.957
         ROT  0.482E+08              888.752      2.981     38.139
         INT  0.358E+24            21267.707    131.240    164.096
         TR   0.136E+29             1481.254      4.968     44.946
         TOT                       22748.9613   136.2077   209.0417   874.6305

       T/K    H(0)-H(T)+PV         H(T)/Eh          T*S/Eh         G(T)/Eh
   ------------------------------------------------------------------------
    298.15    0.362528E-01    0.512259E+00    0.993225E-01    0.412937E+00
   ------------------------------------------------------------------------

         :::::::::::::::::::::::::::::::::::::::::::::::::::::
         ::                  THERMODYNAMIC                  ::
         :::::::::::::::::::::::::::::::::::::::::::::::::::::
         :: total free energy        -114.477677005018 Eh   ::
         ::.................................................::
         :: total energy             -114.890613619371 Eh   ::
         :: zero point energy           0.476006302029 Eh   ::
         :: G(RRHO) w/o ZPVE           -0.063069687676 Eh   ::
         :: G(RRHO) contrib.            0.412936614353 Eh   ::
         :::::::::::::::::::::::::::::::::::::::::::::::::::::

           -------------------------------------------------
          | TOTAL ENERGY             -114.890613619371 Eh   |
          | TOTAL ENTHALPY           -114.378354539987 Eh   |
          | TOTAL FREE ENERGY        -114.477677005018 Eh   |
          | GRADIENT NORM               0.000070236745 Eh/α |
           -------------------------------------------------

 * finished run on 2025/08/24 at 15:43:10.445
