   * xtb version 6.7.1 (edcfbbe) compiled by 'albert@albert-system' on 2024-07-22

   ID    Z sym.   atoms
    1    8 O      1, 3, 20, 36
    2   16 S      2
    3    6 C      4-7, 9-12, 14-19, 21-28, 30-35, 37-43
    4    7 N      8, 13, 29
    5    1 H      44-66

          program call               : xtb data2507/gas/PSPBP/PSPBP_gas_S0_crest.xyz --gfn 2 --ohess vtight --parallel 40 --molden --ceasefiles --namespace data2507/gas/PSPBP/PSPBP_gas_S0_finalOpt
          :  Hamiltonian                  GFN2-xTB          :
 * total energy  :  -114.9733046 Eh     change       -0.8483028E-09 Eh
 * total energy  :  -114.9733056 Eh     change       -0.1017590E-05 Eh
 * total energy  :  -114.9733072 Eh     change       -0.1552395E-05 Eh
 * total energy  :  -114.9733081 Eh     change       -0.9456754E-06 Eh
 * total energy  :  -114.9733089 Eh     change       -0.7883703E-06 Eh
 * total energy  :  -114.9733095 Eh     change       -0.6021577E-06 Eh
 * total energy  :  -114.9733096 Eh     change       -0.4648363E-07 Eh
 * total energy  :  -114.9733100 Eh     change       -0.4604756E-06 Eh
 * total energy  :  -114.9733107 Eh     change       -0.6464355E-06 Eh
 * total energy  :  -114.9733113 Eh     change       -0.5970369E-06 Eh
 * total energy  :  -114.9733142 Eh     change       -0.7942802E-06 Eh
 * total energy  :  -114.9733150 Eh     change       -0.7230169E-06 Eh
 * total energy  :  -114.9733155 Eh     change       -0.5818363E-06 Eh
 * total energy  :  -114.9733160 Eh     change       -0.4885305E-06 Eh
 * total energy  :  -114.9733165 Eh     change       -0.4227194E-06 Eh
 * total energy  :  -114.9733169 Eh     change       -0.4611120E-06 Eh
 * total energy  :  -114.9733174 Eh     change       -0.4908152E-06 Eh
 * total energy  :  -114.9733178 Eh     change       -0.3778214E-06 Eh
 * total energy  :  -114.9733178 Eh     change       -0.9949360E-08 Eh
   *** GEOMETRY OPTIMIZATION CONVERGED AFTER 22 ITERATIONS ***

 final structure:
================
66
 xtb: 6.7.1 (edcfbbe)
O           -1.59260502935556        2.73804905697394       -3.16315599104165
S           -0.36610376656354        2.75376747170433       -2.41817054043915
O            0.85075909839184        3.14267755253094       -3.07509566588673
C           -0.58001661297644        3.76113318130629       -0.94346960473922
C            0.52665748956300        4.31651297580019       -0.32618587603910
C            0.33952046345444        4.98104840081472        0.87578578667013
C           -0.94578827353469        5.03410615028560        1.39960341300482
N           -2.00167363939205        4.50422860700436        0.80439695143629
C           -1.82479896565099        3.88358930096850       -0.34822697767910
C           -0.13358157089818        1.17947616308516       -1.58824714350895
C            1.13615830378330        0.81784040226495       -1.19214136840939
C            1.29279322318961       -0.28639192610988       -0.35526077264015
N            2.57133623628393       -0.63612280273961        0.11324536504781
C            3.31407755858132        0.27284683062778        0.87542150077899
C            2.81377074734052        1.51149854114278        1.25647133677725
C            3.57922798577361        2.38473087062501        2.01474279040825
C            4.85167169412439        2.03114822170515        2.41431590948323
C            5.35186583819384        0.78346678376376        2.07336135971963
C            4.59135037900344       -0.09332192687530        1.32157914495509
O            5.13918292062823       -1.32305069752251        1.06230546079236
C            4.40623257580293       -2.19740148256704        0.29966508079251
C            4.98294930966194       -3.42185761351193        0.01711107172850
C            4.31651998757273       -4.34307600088409       -0.77719149927693
C            3.08342104514898       -4.02017734367549       -1.30599739333422
C            2.50202148606743       -2.79331412089724       -1.02493565164280
C            3.13694257582188       -1.87750744999212       -0.19773130507310
C            0.17156483333261       -0.99370962848646        0.06944495073081
C           -1.10412334557593       -0.62217323716387       -0.34918114369017
N           -2.24062200563574       -1.28875733179084        0.13157466139727
C           -2.44459822618219       -2.65359150002936       -0.10681530790745
C           -1.54638046419881       -3.42441750981812       -0.83198456518958
C           -1.77459950855255       -4.77524535280812       -1.04440703269219
C           -2.91376709600667       -5.37519697446755       -0.54772858331299
C           -3.84145571421507       -4.61099921761563        0.14349903090116
C           -3.61805722018185       -3.26272637322913        0.35624624532313
O           -4.60088053056743       -2.56807539853981        1.01331918708681
C           -4.39876535552368       -1.22808759534079        1.22360025590789
C           -5.39920184555022       -0.54125061906053        1.88791936598068
C           -5.25301266059691        0.80732804205912        2.17505165676807
C           -4.08735687128446        1.45579635783908        1.81991158504539
C           -3.08273102992888        0.76957395723750        1.15518462722400
C           -3.23294494973321       -0.56873241637110        0.81437741527804
C           -1.25202804733355        0.47765854483815       -1.19571501870038
H            1.49533738355575        4.23030982385982       -0.79483709723206
H            1.16635563120364        5.44061675162213        1.39375528826646
H           -1.14484767181342        5.52617879243234        2.34224336097921
H           -2.70408965005983        3.47291338962052       -0.82415288476797
H            1.98403856683716        1.38927582674930       -1.53418840371629
H            1.81326974756125        1.79777359489790        0.96970959222665
H            3.16449004496669        3.34149244467452        2.29243359620759
H            5.45367915848584        2.70896932128565        2.99817645593555
H            6.33281078295477        0.46602780552378        2.38839101553598
H            5.95864526253075       -3.63266807665348        0.42443282649726
H            4.77216783342155       -5.29738770830241       -0.98799541098076
H            2.56374620204522       -4.71565610908284       -1.94646779031186
H            1.55215901114515       -2.53917214826465       -1.46701147731662
H            0.29165464198590       -1.82130135181694        0.75311018997770
H           -0.66589975683281       -2.96440991660130       -1.24936123617193
H           -1.05385518419520       -5.34922104635948       -1.60570331197481
H           -3.09520129262061       -6.42645850601726       -0.70493746541984
H           -4.75457264875805       -5.04155945455538        0.52192661563735
H           -6.28510996716633       -1.08490746875971        2.17448257176525
H           -6.04309118313669        1.33557954572773        2.68434114044971
H           -3.94104501502820        2.49949338847794        2.05046505170245
H           -2.17026601878458        1.28959978933125        0.90747161292225
H           -2.22315963137755        0.78919205273027       -1.54526053124641

          :  Hamiltonian                  GFN2-xTB          :
         :: gradient norm              0.000053177365 Eh/a0 ::
         :: HOMO-LUMO gap              1.715170033405 eV    ::
         :: SCC energy              -116.812873471616 Eh    ::
         :: -> dispersion             -0.099952868991 Eh    ::
         :: repulsion energy           1.839555676247 Eh    ::

    * Orbital Energies and Occupations

         #    Occupation            Energy/Eh            Energy/eV
      -------------------------------------------------------------
         1        2.0000           -0.7826769             -21.2977
       ...           ...                  ...                  ...
        92        2.0000           -0.4358545             -11.8602
        93        2.0000           -0.4352115             -11.8427
        94        2.0000           -0.4303119             -11.7094
        95        2.0000           -0.4249312             -11.5630
        96        2.0000           -0.4229016             -11.5077
        97        2.0000           -0.4222054             -11.4888
        98        2.0000           -0.4219929             -11.4830
        99        2.0000           -0.4194665             -11.4143
       100        2.0000           -0.3997397             -10.8775
       101        2.0000           -0.3973322             -10.8120
       102        2.0000           -0.3946308             -10.7385
       103        2.0000           -0.3541067              -9.6357
       104        2.0000           -0.3522546              -9.5853 (HOMO)
       105                         -0.2892233              -7.8702 (LUMO)
       106                         -0.2776458              -7.5551
       107                         -0.2664418              -7.2503
       108                         -0.2641827              -7.1888
       109                         -0.2474901              -6.7345
       110                         -0.2449963              -6.6667
       111                         -0.2389477              -6.5021
       112                         -0.2363788              -6.4322
       113                         -0.2244881              -6.1086
       114                         -0.2208115              -6.0086
       115                         -0.2057689              -5.5993
       ...                                ...                  ...
       200                          1.2061564              32.8212
      -------------------------------------------------------------
                  HL-Gap            0.0630313 Eh            1.7152 eV

     #   Z          covCN         q      C6AA      α(0)
     1   8 O        0.860    -0.531    24.479     6.634
     2  16 S        3.817     0.962   107.739    17.470
     3   8 O        0.860    -0.532    24.500     6.636
     4   6 C        2.964    -0.091    30.278     9.026
     5   6 C        2.962    -0.009    28.230     8.715
     6   6 C        2.916    -0.032    28.802     8.801
     7   6 C        2.913     0.062    26.607     8.458
     8   7 N        1.837    -0.197    26.108     7.572
     9   6 C        2.941     0.063    26.599     8.459
    10   6 C        2.970    -0.080    30.003     8.985
    11   6 C        2.962    -0.049    29.220     8.866
    12   6 C        2.922     0.074    26.348     8.418
    13   7 N        2.752    -0.069    22.568     7.056
    14   6 C        2.922     0.042    27.058     8.530
    15   6 C        2.923    -0.060    29.486     8.905
    16   6 C        2.919    -0.038    28.955     8.824
    17   6 C        2.919    -0.039    28.959     8.825
    18   6 C        2.920    -0.055    29.365     8.886
    19   6 C        2.884     0.127    25.207     8.231
    20   8 O        1.709    -0.250    18.145     5.751
    21   6 C        2.884     0.126    25.238     8.236
    22   6 C        2.920    -0.055    29.360     8.886
    23   6 C        2.919    -0.038    28.954     8.824
    24   6 C        2.919    -0.037    28.924     8.819
    25   6 C        2.924    -0.058    29.439     8.898
    26   6 C        2.921     0.042    27.064     8.531
    27   6 C        2.924    -0.054    29.339     8.883
    28   6 C        2.921     0.075    26.330     8.415
    29   7 N        2.751    -0.067    22.548     7.052
    30   6 C        2.920     0.041    27.072     8.532
    31   6 C        2.924    -0.059    29.465     8.902
    32   6 C        2.919    -0.038    28.935     8.821
    33   6 C        2.919    -0.038    28.954     8.824
    34   6 C        2.920    -0.055    29.364     8.886
    35   6 C        2.885     0.126    25.228     8.234
    36   8 O        1.709    -0.250    18.140     5.750
    37   6 C        2.885     0.127    25.218     8.233
    38   6 C        2.920    -0.055    29.362     8.886
    39   6 C        2.919    -0.037    28.923     8.819
    40   6 C        2.919    -0.039    28.959     8.825
    41   6 C        2.924    -0.058    29.445     8.899
    42   6 C        2.922     0.040    27.096     8.536
    43   6 C        2.967    -0.049    29.216     8.866
    44   1 H        0.926     0.065     2.140     2.288
    45   1 H        0.926     0.056     2.243     2.342
    46   1 H        0.925     0.060     2.202     2.321
    47   1 H        0.926     0.066     2.125     2.280
    48   1 H        0.926     0.068     2.104     2.268
    49   1 H        0.926     0.023     2.691     2.565
    50   1 H        0.926     0.034     2.528     2.487
    51   1 H        0.926     0.042     2.417     2.431
    52   1 H        0.926     0.055     2.254     2.348
    53   1 H        0.926     0.054     2.267     2.355
    54   1 H        0.926     0.042     2.417     2.431
    55   1 H        0.926     0.040     2.451     2.448
    56   1 H        0.926     0.032     2.561     2.503
    57   1 H        0.926     0.064     2.153     2.295
    58   1 H        0.926     0.033     2.540     2.492
    59   1 H        0.926     0.039     2.458     2.452
    60   1 H        0.926     0.042     2.422     2.434
    61   1 H        0.926     0.054     2.268     2.355
    62   1 H        0.926     0.055     2.257     2.349
    63   1 H        0.926     0.044     2.393     2.419
    64   1 H        0.926     0.049     2.334     2.389
    65   1 H        0.926     0.023     2.684     2.562
    66   1 H        0.926     0.068     2.104     2.268

molecular dipole:
                 x           y           z       tot (Debye)
 q only:        0.309      -0.552       1.980
   full:        0.640      -0.425       1.703       4.750

 projected vibrational frequencies (cm⁻¹)
eigval :       -0.00    -0.00    -0.00     0.00     0.00     0.00
eigval :        9.61    13.88    16.95    20.51    24.72    24.90
eigval :       41.85    47.60    50.65    55.36    66.12    91.05
eigval :      112.95   114.63   128.21   129.58   140.91   167.16
eigval :      189.34   212.58   232.15   245.92   247.96   250.78
eigval :      258.65   264.47   265.27   278.29   289.45   291.18
eigval :      305.76   332.48   350.96   354.14   377.14   395.90
eigval :      399.18   399.72   418.01   425.42   427.43   431.53
eigval :      433.33   443.41   470.50   488.29   509.86   510.28
eigval :      512.02   516.56   523.87   525.68   529.16   566.16
eigval :      568.74   576.64   588.26   592.44   596.22   635.12
eigval :      645.60   656.89   660.51   661.56   661.75   663.80
eigval :      672.61   686.31   705.20   718.88   742.31   773.49
eigval :      778.21   780.22   782.38   783.35   810.43   813.66
eigval :      839.19   855.50   856.01   857.45   864.56   866.80
eigval :      872.23   893.44   894.80   896.74   900.74   903.01
eigval :      907.35   911.02   913.17   913.54   914.87   918.42
eigval :      919.76   921.77   923.74   925.79   932.07   991.40
eigval :      993.17  1028.59  1080.47  1088.28  1090.30  1091.73
eigval :     1092.02  1097.98  1107.24  1109.62  1110.38  1115.10
eigval :     1119.65  1128.80  1141.16  1159.09  1173.36  1174.57
eigval :     1176.36  1178.99  1183.49  1190.94  1199.73  1200.97
eigval :     1203.42  1209.07  1234.45  1237.97  1241.05  1244.72
eigval :     1256.72  1259.32  1262.96  1276.46  1276.87  1307.28
eigval :     1310.02  1310.92  1326.58  1336.90  1339.41  1350.55
eigval :     1360.04  1389.16  1415.77  1421.86  1426.62  1426.84
eigval :     1437.41  1444.17  1449.67  1485.44  1489.84  1501.49
eigval :     1505.00  1537.20  1552.72  1568.65  1569.60  1572.84
eigval :     1576.56  1580.36  1580.93  1591.52  1591.67  1602.13
eigval :     1603.22  3067.28  3079.62  3085.19  3090.50  3091.03
eigval :     3092.43  3093.41  3094.77  3095.50  3098.49  3101.85
eigval :     3102.25  3103.47  3104.46  3107.10  3109.86  3113.28
eigval :     3114.17  3114.69  3115.28  3115.52  3116.06  3118.17

   temp. (K)  partition function   enthalpy   heat capacity  entropy
                                   cal/mol     cal/K/mol   cal/K/mol   J/K/mol
 298.15  VIB  0.141E+17            20014.875    124.616    124.345
         ROT  0.498E+08              888.752      2.981     38.201
         INT  0.702E+24            20903.628    127.597    162.546
         TR   0.136E+29             1481.254      4.968     44.946
         TOT                       22384.8817   132.5654   207.4919   868.1459

       T/K    H(0)-H(T)+PV         H(T)/Eh          T*S/Eh         G(T)/Eh
   ------------------------------------------------------------------------
    298.15    0.356726E-01    0.518870E+00    0.985861E-01    0.420284E+00
   ------------------------------------------------------------------------

         :::::::::::::::::::::::::::::::::::::::::::::::::::::
         ::                  THERMODYNAMIC                  ::
         :::::::::::::::::::::::::::::::::::::::::::::::::::::
         :: total free energy        -114.553033814376 Eh   ::
         ::.................................................::
         :: total energy             -114.973317795370 Eh   ::
         :: zero point energy           0.483197476054 Eh   ::
         :: G(RRHO) w/o ZPVE           -0.062913495061 Eh   ::
         :: G(RRHO) contrib.            0.420283980994 Eh   ::
         :::::::::::::::::::::::::::::::::::::::::::::::::::::

           -------------------------------------------------
          | TOTAL ENERGY             -114.973317795370 Eh   |
          | TOTAL ENTHALPY           -114.454447739610 Eh   |
          | TOTAL FREE ENERGY        -114.553033814376 Eh   |
          | GRADIENT NORM               0.000053158172 Eh/α |
          | HOMO-LUMO GAP               1.715168720299 eV   |
           -------------------------------------------------

 * finished run on 2025/08/24 at 15:36:40.648
