   * xtb version 6.7.1 (edcfbbe) compiled by 'albert@albert-system' on 2024-07-22

   ID    Z sym.   atoms
    1    6 C      1, 2, 4-17, 19-22, 26-29, 31-44, 46-51
    2    7 N      3, 18, 30, 45
    3   16 S      23
    4    8 O      24, 25
    5    1 H      52-85

          program call               : xtb data2507/toluene/DHID-DPS/DHID-DPS_toluene_S0_finalOpt.xtbopt.xyz --gfn 2 --uhf 2 --gbsa toluene --ohess vtight --parallel 40 --molden --ceasefiles --namespace data2507/toluene/DHID-DPS/DHID-DPS_toluene_T1_preOpt
      * Solvation model:               GBSA
        Solvent                        toluene
        Solvent mass                       9.2140E+01 g/mol
          :  Hamiltonian                  GFN2-xTB          :
 * total energy  :  -134.6893466 Eh     change       -0.1711647E-06 Eh
 * total energy  :  -134.6923745 Eh     change       -0.3027845E-02 Eh
 * total energy  :  -134.6932452 Eh     change       -0.8706682E-03 Eh
 * total energy  :  -134.6933322 Eh     change       -0.8700340E-04 Eh
 * total energy  :  -134.6934026 Eh     change       -0.7043419E-04 Eh
 * total energy  :  -134.6934451 Eh     change       -0.4248955E-04 Eh
 * total energy  :  -134.6934969 Eh     change       -0.5184601E-04 Eh
 * total energy  :  -134.6935270 Eh     change       -0.3006161E-04 Eh
 * total energy  :  -134.6935463 Eh     change       -0.1930110E-04 Eh
 * total energy  :  -134.6935603 Eh     change       -0.1396404E-04 Eh
 * total energy  :  -134.6937395 Eh     change       -0.1532264E-05 Eh
 * total energy  :  -134.6937407 Eh     change       -0.1197838E-05 Eh
 * total energy  :  -134.6937416 Eh     change       -0.9128810E-06 Eh
 * total energy  :  -134.6937423 Eh     change       -0.6829275E-06 Eh
 * total energy  :  -134.6937428 Eh     change       -0.5559944E-06 Eh
 * total energy  :  -134.6937434 Eh     change       -0.5654291E-06 Eh
 * total energy  :  -134.6937441 Eh     change       -0.6829208E-06 Eh
 * total energy  :  -134.6937450 Eh     change       -0.9334647E-06 Eh
 * total energy  :  -134.6937450 Eh     change       -0.1040280E-07 Eh
   *** GEOMETRY OPTIMIZATION CONVERGED AFTER 68 ITERATIONS ***

 final structure:
================
85
 xtb: 6.7.1 (edcfbbe)
C            6.86093957293916        1.41776105084091        2.53014167182208
C            6.29873098039888        1.40678024907601        1.10854594397835
N            5.35257408689669        0.33888171891291        0.92135212794323
C            5.65185471499380       -0.95996189582072        0.54330074737090
C            6.87724709514781       -1.50893146350863        0.21133356079512
C            6.92244534945293       -2.85744208795638       -0.12317085510709
C            5.77560894967287       -3.64122716326083       -0.12011769200797
C            4.54000889379023       -3.10707012749456        0.20587530312197
C            4.46453358804719       -1.75503017250235        0.53376636030886
C            3.43063840835026       -0.86838034252323        0.93034147677388
C            4.02098042338775        0.39412848686889        1.18469914647443
C            3.00445857755945        1.26740209722171        1.63687418669998
C            2.94473489329877        2.60410047560686        2.03257994735567
C            1.71954920157606        3.14035895180992        2.37519334949670
C            0.55621896450796        2.37748673711926        2.31833846051699
C            0.58885810831440        1.04086080353076        1.94378039513672
C            1.81054720011502        0.48044068814440        1.62796523806112
N            2.09820618427927       -0.81960398891292        1.20925895511988
C            1.16813439606440       -1.84141978895646        1.02464294297162
C            0.20335771164534       -2.12075148300555        2.00914973097393
C           -0.75895133038400       -3.07092980442442        1.77931984900811
C           -0.77694441151117       -3.77613001773502        0.57068599273272
S           -2.29425153666801       -4.51800037488093        0.04725772928947
O           -2.05666196207210       -5.40003642261289       -1.08413576753683
O           -3.01349491533424       -5.08707801922325        1.17538401369220
C           -3.06372876838196       -3.01301692822752       -0.47412779620421
C           -3.76836340203656       -2.25526361316653        0.46727544348483
C           -3.95851573383687       -0.90914417927405        0.27033226552956
C           -3.41033429855049       -0.28624447984677       -0.86061546504830
N           -3.44453137946650        1.10241155667597       -1.00736527923147
C           -4.54848057619206        1.94253251467618       -0.90841212894704
C           -5.87087475702518        1.61343417046929       -0.67778109841745
C           -6.80399873088232        2.63978490428369       -0.63803148390765
C           -6.42624539723762        3.96708489867730       -0.82765331328422
C           -5.11237521617109        4.31005721999154       -1.08035132526102
C           -4.15358613436738        3.29869650941760       -1.13555310382201
C           -2.75916152000438        3.23713153504344       -1.38061557985816
C           -2.36442563135042        1.88343817162470       -1.29429779541939
C           -0.95684378700593        1.82907961761175       -1.46359279972462
C            0.00647531256207        0.82372744576834       -1.43563423182625
C            1.33076589173145        1.17445091902979       -1.62980966114428
C            1.70331888768457        2.49510251260361       -1.84940714449062
C            0.76457157520519        3.51708451173004       -1.87214956072246
C           -0.56498156164068        3.18649488248247       -1.67520016963530
N           -1.67356185871493        4.01471176491551       -1.63785764243938
C           -1.66395832870615        5.45004610970657       -1.74288632521574
C           -1.46062652314142        6.11257773614914       -0.38016478213063
C           -2.74597763753770       -1.05870067451237       -1.82894153683923
C           -2.57739455615558       -2.40546672779568       -1.63786778908660
C            0.21097853333617       -3.53478863056622       -0.39144637962323
C            1.17963988366019       -2.59044066463462       -0.16369434403180
H            7.56774983002492        2.23519603198505        2.64213449254819
H            7.37085727335806        0.48114831694777        2.74278567929766
H            6.05764487689266        1.54555299305078        3.25189560730092
H            5.78771141411205        2.34976863216374        0.90011226152446
H            7.10843189361886        1.28365870498639        0.38508974808503
H            7.78154791195228       -0.92068265265245        0.21657823359625
H            7.87012985110857       -3.30434022760349       -0.38368232938215
H            5.84877740473681       -4.68830504600114       -0.37480275503062
H            3.65496075953723       -3.72481382313619        0.21394094218565
H            3.83772912956470        3.20871016303279        2.06905746889764
H            1.65860126970962        4.17317975975527        2.68481219460511
H           -0.39123134256567        2.83056795929837        2.56783228048995
H           -0.32024670093209        0.46257567407359        1.88870041537773
H            0.23650799405398       -1.59139294608078        2.94923959906743
H           -1.51898291584714       -3.29487553293822        2.51178034513302
H           -4.13373380894367       -2.75503772717543        1.35109455150502
H           -4.47949272944272       -0.31632190058044        1.00702386427811
H           -6.17163384317226        0.58581854299264       -0.54177562646307
H           -7.84186508942138        2.40293848282184       -0.45860803910357
H           -7.17901184472852        4.74010348535028       -0.78220441773984
H           -4.83582564100371        5.34204861331487       -1.23217948552552
H           -0.27635640647634       -0.20334784972675       -1.26001123929763
H            2.09052562510968        0.40752960540999       -1.61308106581488
H            2.74544859726706        2.73342580653143       -2.00000909185471
H            1.07509735940307        4.53776915226359       -2.03177916198398
H           -0.86313620377609        5.74229057768791       -2.42658496973447
H           -2.61777679052994        5.76334263689200       -2.17407935650015
H           -2.25969470708836        5.82716441411476        0.29994439978754
H           -1.46323490296397        7.19341327062850       -0.49089687299500
H           -0.51152639188465        5.80429690586650        0.05123870733055
H           -2.37007579174300       -0.57561806198352       -2.71840594925062
H           -2.06149900624769       -3.01976840581771       -2.35922895916622
H            0.17729018374841       -4.10103136484054       -1.30935044902996
H            1.93054489177081       -2.38516311444894       -0.91154049780254

          :  Hamiltonian                  GFN2-xTB          :
         :: gradient norm              0.000074875964 Eh/a0 ::
         :: HOMO-LUMO gap              0.209753108676 eV    ::
         :: SCC energy              -136.961154364237 Eh    ::
         :: -> dispersion             -0.131519050190 Eh    ::
         :: -> Gsolv                  -0.067184881464 Eh    ::
         :: repulsion energy           2.267409362173 Eh    ::

    * Orbital Energies and Occupations

         #    Occupation            Energy/Eh            Energy/eV
      -------------------------------------------------------------
         1        2.0000           -0.7541020             -20.5202
       ...           ...                  ...                  ...
       113        2.0000           -0.4170837             -11.3494
       114        2.0000           -0.4158278             -11.3153
       115        2.0000           -0.4121222             -11.2144
       116        2.0000           -0.4092754             -11.1369
       117        2.0000           -0.4055706             -11.0361
       118        2.0000           -0.3955941             -10.7647
       119        2.0000           -0.3923601             -10.6767
       120        2.0000           -0.3915492             -10.6546
       121        2.0000           -0.3770488             -10.2600
       122        2.0000           -0.3768479             -10.2546
       123        1.6266           -0.3544166              -9.6442
       124        1.3734           -0.3534332              -9.6174
       125        0.9830           -0.2649050              -7.2084 (HOMO)
       126        0.0170           -0.2571970              -6.9987 (LUMO)
       127        0.0000           -0.2503967              -6.8136
       128                         -0.2341178              -6.3707
       129                         -0.2320157              -6.3135
       130                         -0.2253711              -6.1327
       131                         -0.2200294              -5.9873
       132                         -0.2180178              -5.9326
       133                         -0.2153478              -5.8599
       134                         -0.2148868              -5.8474
       135                         -0.1992535              -5.4220
       136                         -0.1969183              -5.3584
       ...                                ...                  ...
       243                          1.1644132              31.6853
      -------------------------------------------------------------
                  HL-Gap            0.0077080 Eh            0.2097 eV

     #   Z          covCN         q      C6AA      α(0)
     1   6 C        3.752    -0.114    22.736     6.800
     2   6 C        3.738    -0.002    20.693     6.491
     3   7 N        2.789    -0.013    21.512     6.889
     4   6 C        3.114     0.039    26.979     8.509
     5   6 C        2.909    -0.047    29.169     8.856
     6   6 C        2.921    -0.035    28.881     8.813
     7   6 C        2.918    -0.037    28.929     8.820
     8   6 C        2.909    -0.036    28.900     8.815
     9   6 C        3.052    -0.020    28.462     8.749
    10   6 C        3.178     0.014    27.287     8.529
    11   6 C        3.181     0.015    27.237     8.519
    12   6 C        3.050    -0.021    28.478     8.752
    13   6 C        2.910    -0.035    28.871     8.811
    14   6 C        2.918    -0.037    28.929     8.820
    15   6 C        2.922    -0.037    28.913     8.818
    16   6 C        2.908    -0.040    29.002     8.831
    17   6 C        3.111     0.038    27.006     8.514
    18   7 N        2.792    -0.004    21.337     6.860
    19   6 C        2.912     0.041    27.072     8.532
    20   6 C        2.917    -0.045    29.112     8.848
    21   6 C        2.961    -0.038    28.939     8.824
    22   6 C        2.966    -0.101    30.537     9.064
    23  16 S        3.859     0.885   110.011    17.653
    24   8 O        0.860    -0.591    25.887     6.822
    25   8 O        0.860    -0.590    25.870     6.819
    26   6 C        2.966    -0.100    30.526     9.063
    27   6 C        2.960    -0.038    28.939     8.824
    28   6 C        2.917    -0.044    29.082     8.843
    29   6 C        2.913     0.041    27.075     8.533
    30   7 N        2.794    -0.008    21.411     6.872
    31   6 C        3.110     0.038    27.012     8.515
    32   6 C        2.908    -0.042    29.040     8.836
    33   6 C        2.922    -0.036    28.903     8.816
    34   6 C        2.918    -0.038    28.935     8.821
    35   6 C        2.910    -0.035    28.867     8.810
    36   6 C        3.052    -0.021    28.478     8.752
    37   6 C        3.180     0.014    27.274     8.526
    38   6 C        3.187     0.013    27.250     8.517
    39   6 C        3.053    -0.020    28.461     8.749
    40   6 C        2.909    -0.034    28.855     8.808
    41   6 C        2.919    -0.036    28.899     8.815
    42   6 C        2.922    -0.035    28.870     8.811
    43   6 C        2.909    -0.046    29.153     8.854
    44   6 C        3.116     0.039    26.971     8.507
    45   7 N        2.791    -0.014    21.520     6.890
    46   6 C        3.738    -0.002    20.693     6.491
    47   6 C        3.752    -0.114    22.738     6.800
    48   6 C        2.919    -0.043    29.062     8.840
    49   6 C        2.967    -0.038    28.936     8.823
    50   6 C        2.962    -0.038    28.943     8.824
    51   6 C        2.918    -0.043    29.058     8.840
    52   1 H        0.925     0.058     2.226     2.333
    53   1 H        0.925     0.051     2.310     2.377
    54   1 H        0.925     0.052     2.296     2.369
    55   1 H        0.924     0.064     2.150     2.293
    56   1 H        0.924     0.062     2.172     2.305
    57   1 H        0.926     0.042     2.422     2.434
    58   1 H        0.926     0.035     2.510     2.477
    59   1 H        0.926     0.031     2.578     2.511
    60   1 H        0.926     0.031     2.566     2.505
    61   1 H        0.926     0.042     2.419     2.432
    62   1 H        0.926     0.038     2.473     2.459
    63   1 H        0.926     0.035     2.516     2.480
    64   1 H        0.926     0.034     2.532     2.488
    65   1 H        0.926     0.049     2.329     2.386
    66   1 H        0.926     0.035     2.512     2.478
    67   1 H        0.926     0.038     2.480     2.463
    68   1 H        0.926     0.049     2.326     2.385
    69   1 H        0.926     0.036     2.509     2.477
    70   1 H        0.926     0.034     2.525     2.485
    71   1 H        0.926     0.036     2.502     2.474
    72   1 H        0.926     0.041     2.436     2.441
    73   1 H        0.926     0.027     2.631     2.537
    74   1 H        0.926     0.027     2.622     2.532
    75   1 H        0.926     0.038     2.482     2.463
    76   1 H        0.926     0.044     2.396     2.420
    77   1 H        0.924     0.062     2.173     2.305
    78   1 H        0.924     0.062     2.171     2.304
    79   1 H        0.925     0.052     2.300     2.372
    80   1 H        0.925     0.058     2.228     2.334
    81   1 H        0.925     0.053     2.282     2.363
    82   1 H        0.926     0.050     2.324     2.384
    83   1 H        0.926     0.036     2.502     2.473
    84   1 H        0.926     0.037     2.493     2.469
    85   1 H        0.926     0.050     2.318     2.381

molecular dipole:
                 x           y           z       tot (Debye)
 q only:        4.033       8.105       0.021
   full:        3.817       7.647      -0.016      21.724

 projected vibrational frequencies (cm⁻¹)
eigval :       -0.00    -0.00     0.00     0.00     0.00     0.00
eigval :        9.63    17.52    20.25    28.58    33.52    35.32
eigval :       41.51    44.36    45.83    60.63    67.13    73.01
eigval :       77.03    83.40    91.54    96.75   116.31   124.40
eigval :      128.56   138.30   140.52   150.78   169.77   171.09
eigval :      173.21   189.52   197.36   204.30   207.07   223.67
eigval :      226.05   256.25   257.59   265.82   269.32   281.41
eigval :      303.20   311.18   316.73   320.90   329.59   335.58
eigval :      372.99   373.61   376.46   380.03   385.78   395.79
eigval :      397.82   398.67   409.29   409.77   416.70   424.98
eigval :      432.60   441.42   444.11   457.98   464.21   512.93
eigval :      516.40   523.23   526.46   533.82   535.23   539.16
eigval :      542.46   562.27   567.28   577.99   580.73   597.91
eigval :      599.67   621.07   623.27   627.92   629.62   651.78
eigval :      659.22   668.48   672.71   675.79   678.23   685.33
eigval :      686.52   697.19   707.89   756.81   757.87   762.04
eigval :      762.15   764.20   768.66   786.35   790.15   802.35
eigval :      811.72   831.79   845.36   849.31   853.66   855.07
eigval :      856.81   859.86   861.63   870.29   870.71   885.62
eigval :      891.82   894.60   895.95   902.52   906.63   908.86
eigval :      912.33   912.93   915.38   915.83   917.90   918.45
eigval :      920.43   962.77   968.37   986.18   988.36   993.14
eigval :     1043.11  1049.18  1049.59  1061.66  1062.47  1069.64
eigval :     1070.42  1071.67  1073.08  1081.95  1082.63  1086.15
eigval :     1113.98  1117.43  1119.16  1129.20  1129.83  1137.13
eigval :     1151.78  1156.39  1160.58  1167.22  1171.75  1172.96
eigval :     1176.36  1178.04  1186.87  1193.89  1195.95  1200.68
eigval :     1228.21  1229.48  1240.53  1241.63  1244.40  1245.65
eigval :     1253.78  1255.01  1265.83  1266.11  1307.94  1313.76
eigval :     1315.53  1317.10  1317.36  1322.98  1333.68  1335.22
eigval :     1352.38  1359.95  1362.19  1374.30  1379.15  1395.13
eigval :     1396.03  1396.84  1400.02  1401.89  1404.21  1410.04
eigval :     1412.48  1419.70  1425.15  1442.14  1444.03  1449.70
eigval :     1450.65  1453.16  1454.85  1455.38  1464.83  1480.27
eigval :     1483.28  1492.57  1492.89  1497.12  1500.65  1510.78
eigval :     1520.49  1529.94  1545.69  1550.68  1565.65  1569.80
eigval :     1571.20  1573.10  1581.10  1581.60  1598.87  2971.49
eigval :     2972.33  2978.95  2979.70  3042.08  3043.93  3045.81
eigval :     3049.52  3050.74  3051.82  3076.08  3077.61  3077.96
eigval :     3078.80  3083.49  3083.85  3084.31  3084.48  3084.82
eigval :     3085.41  3085.63  3086.27  3091.97  3092.03  3092.80
eigval :     3094.29  3095.18  3096.89  3097.23  3097.64  3098.05
eigval :     3098.56  3099.76  3101.35

   temp. (K)  partition function   enthalpy   heat capacity  entropy
                                   cal/mol     cal/K/mol   cal/K/mol   J/K/mol
 298.15  VIB  0.124E+20            25309.710    158.539    156.893
         ROT  0.794E+08              888.752      2.981     39.129
         INT  0.982E+27            26198.463    161.519    196.022
         TR   0.173E+29             1481.254      4.968     45.424
         TOT                       27679.7165   166.4875   241.4461  1010.2104

       T/K    H(0)-H(T)+PV         H(T)/Eh          T*S/Eh         G(T)/Eh
   ------------------------------------------------------------------------
    298.15    0.441104E-01    0.695001E+00    0.114719E+00    0.580282E+00
   ------------------------------------------------------------------------

         :::::::::::::::::::::::::::::::::::::::::::::::::::::
         ::                  THERMODYNAMIC                  ::
         :::::::::::::::::::::::::::::::::::::::::::::::::::::
         :: total free energy        -134.113463157251 Eh   ::
         ::.................................................::
         :: total energy             -134.693745001982 Eh   ::
         :: zero point energy           0.650890227445 Eh   ::
         :: G(RRHO) w/o ZPVE           -0.070608382714 Eh   ::
         :: G(RRHO) contrib.            0.580281844731 Eh   ::
         :::::::::::::::::::::::::::::::::::::::::::::::::::::

           -------------------------------------------------
          | TOTAL ENERGY             -134.693745001982 Eh   |
          | TOTAL ENTHALPY           -133.998744338499 Eh   |
          | TOTAL FREE ENERGY        -134.113463157251 Eh   |
          | GRADIENT NORM               0.000074794543 Eh/α |
          | HOMO-LUMO GAP               0.209744251387 eV   |
           -------------------------------------------------

 * finished run on 2025/07/19 at 01:25:40.842
