   * xtb version 6.7.1 (edcfbbe) compiled by 'albert@albert-system' on 2024-07-22

   ID    Z sym.   atoms
    1    6 C      1, 2, 4-17, 19-22, 26-29, 31-44, 46-51
    2    7 N      3, 18, 30, 45
    3   16 S      23
    4    8 O      24, 25
    5    1 H      52-85

          program call               : xtb data2507/toluene/DHID-DPS/DHID-DPS_toluene_S0_crest.xyz --gfn 2 --gbsa toluene --ohess vtight --parallel 40 --molden --ceasefiles --namespace data2507/toluene/DHID-DPS/DHID-DPS_toluene_S0_finalOpt
      * Solvation model:               GBSA
        Solvent                        toluene
        Solvent mass                       9.2140E+01 g/mol
          :  Hamiltonian                  GFN2-xTB          :
 * total energy  :  -134.7729827 Eh     change       -0.1371632E-08 Eh
 * total energy  :  -134.7731154 Eh     change       -0.1327562E-03 Eh
 * total energy  :  -134.7732143 Eh     change       -0.9891294E-04 Eh
 * total energy  :  -134.7732511 Eh     change       -0.3676643E-04 Eh
 * total energy  :  -134.7732801 Eh     change       -0.2900103E-04 Eh
 * total energy  :  -134.7733131 Eh     change       -0.3300513E-04 Eh
 * total energy  :  -134.7733309 Eh     change       -0.1783931E-04 Eh
 * total energy  :  -134.7733556 Eh     change       -0.2464824E-04 Eh
 * total energy  :  -134.7733818 Eh     change       -0.2625128E-04 Eh
 * total energy  :  -134.7734123 Eh     change       -0.3050756E-04 Eh
 * total energy  :  -134.7763310 Eh     change       -0.8840111E-06 Eh
 * total energy  :  -134.7763319 Eh     change       -0.8473257E-06 Eh
 * total energy  :  -134.7763327 Eh     change       -0.8116512E-06 Eh
 * total energy  :  -134.7763335 Eh     change       -0.7847311E-06 Eh
 * total energy  :  -134.7763342 Eh     change       -0.7728701E-06 Eh
 * total energy  :  -134.7763350 Eh     change       -0.7924528E-06 Eh
 * total energy  :  -134.7763359 Eh     change       -0.8435391E-06 Eh
 * total energy  :  -134.7763368 Eh     change       -0.9233429E-06 Eh
 * total energy  :  -134.7763368 Eh     change       -0.5593762E-08 Eh
   *** GEOMETRY OPTIMIZATION CONVERGED AFTER 620 ITERATIONS ***

 final structure:
================
85
 xtb: 6.7.1 (edcfbbe)
C            6.91516119911141        1.39521692285872        2.56881426430445
C            6.45525799864391        1.26194551358834        1.11726147614142
N            5.50378947396252        0.19385547305006        0.95460706274452
C            5.78332980356014       -1.12077260214151        0.67181485075773
C            7.00770190533276       -1.72047835291485        0.40043042259469
C            7.03255391200927       -3.07699621925308        0.15379819738108
C            5.86451557768799       -3.84235133368381        0.17984801017277
C            4.64078158074796       -3.26813773102055        0.44290214568969
C            4.58014730930114       -1.89532630560496        0.68364925246509
C            3.55831378909300       -0.96286587719446        0.99151249911444
C            4.15469643688553        0.28101784627736        1.17729102446305
C            3.14384600881736        1.20918193957552        1.54614403284448
C            3.11007170797082        2.57216448231017        1.82889297292676
C            1.89653226662785        3.16318924603229        2.10763032183037
C            0.71617352949139        2.42259285107500        2.08859692315367
C            0.72082169195391        1.06799441138152        1.82070980189194
C            1.93791804424146        0.44954133000231        1.57508946487488
N            2.20133632006525       -0.87413067912817        1.25076679532569
C            1.25215782752542       -1.87069719909796        1.06560787635357
C            0.22065458689020       -2.04678320421069        1.99306730671955
C           -0.79227712875074       -2.94748468233796        1.73462013836381
C           -0.76440297298174       -3.69606446899905        0.57030865051416
S           -2.29355691311220       -4.46539541024917        0.04056929101475
O           -2.05100463364992       -5.34095302684454       -1.08537881896229
O           -3.01465070954366       -5.02076466691901        1.16527145123565
C           -3.05116484316960       -2.92945913112122       -0.48625205137635
C           -3.86041681760905       -2.22460277359245        0.38608511457020
C           -4.10267277674497       -0.88169190010468        0.16400415905153
C           -3.50282930405628       -0.24089909503225       -0.92163214892116
N           -3.56587789113870        1.13953015574137       -1.07458824513951
C           -4.66885305531649        1.97016208602729       -0.98922515885002
C           -6.00126020449924        1.63736327188203       -0.79276556545960
C           -6.93296439012310        2.65711193921118       -0.77014996851940
C           -6.55654060430278        3.98778862049404       -0.94978631471600
C           -5.24051767515577        4.33199516713934       -1.17621331549435
C           -4.27819086590010        3.32563981301241       -1.20684719838114
C           -2.87332505610440        3.27467727167395       -1.41986524639015
C           -2.47059711665320        1.94484945272684       -1.33990328645612
C           -1.05908377532893        1.90382019528871       -1.46202493627141
C           -0.07832509590730        0.91291428761260       -1.41216973697132
C            1.24031810668495        1.27718333683010       -1.56471056607159
C            1.60502343153205        2.61010000271026       -1.76060214637472
C            0.66125250568850        3.61398867394678       -1.80226436451016
C           -0.67666640489575        3.26933600897080       -1.64982392709222
N           -1.78574078783227        4.07973767110872       -1.63905749906800
C           -1.79866793919781        5.51649675133645       -1.73038764014875
C           -1.65507958301400        6.17616178662374       -0.35902803079865
C           -2.75343855998369       -0.98450512649612       -1.83863048888198
C           -2.52192274725704       -2.32464223799844       -1.61454279717322
C            0.29079021280586       -3.58841873563169       -0.31840578767647
C            1.30480715749229       -2.68480034967210       -0.06907907622320
H            7.62818743955486        2.21011502386165        2.66101227020534
H            7.38929661082595        0.47401151862257        2.89986012523613
H            6.06427883710681        1.59720939442466        3.21541751997132
H            5.98099106963365        2.19019926135565        0.78752029044395
H            7.31190943796038        1.06533205997427        0.46782314148697
H            7.92245333562157       -1.14716027719148        0.39096282924054
H            7.97503534461593       -3.56177119848688       -0.05603881153554
H            5.92712252395219       -4.90489281423168       -0.00614976334748
H            3.74528298117957       -3.87137271600441        0.47430727364180
H            4.01697129968327        3.15774610501263        1.82425417272544
H            1.85516057133079        4.21910813703580        2.33147339455461
H           -0.22371526033969        2.91703323648293        2.28476468405248
H           -0.20530069132754        0.51568587786403        1.78430543567540
H            0.21649210001834       -1.46783528701931        2.90302088843651
H           -1.61559140349714       -3.07892053274170        2.41895669109589
H           -4.26071625260237       -2.73248410181271        1.24973635888766
H           -4.69742247715076       -0.31355180416027        0.86216171502572
H           -6.30615002356163        0.60892944604164       -0.67147663533994
H           -7.97469181899171        2.41897963842095       -0.61256052201845
H           -7.31329487682993        4.75805446406995       -0.91978944298794
H           -4.96329542250643        5.36427539475892       -1.32790822596991
H           -0.34815789343006       -0.11955090440913       -1.24498075611734
H            2.01144594410378        0.52207293318518       -1.52926516322418
H            2.65015464620308        2.85791639628542       -1.87419145483420
H            0.96181884803981        4.64159156166154       -1.94003212419436
H           -0.98085221996216        5.82971788464637       -2.38479163240449
H           -2.74174707927185        5.81664981324579       -2.19419578560780
H           -2.46727121772563        5.86603562562345        0.29448364784048
H           -1.68073588317461        7.25776667640381       -0.46187989992243
H           -0.71221846239783        5.88846496060053        0.09989407696594
H           -2.33465185718266       -0.49026263220620       -2.70143721801615
H           -1.91914409190148       -2.91209929542474       -2.28891887108623
H            0.28675490245735       -4.19771747208641       -1.20885257137304
H            2.11474843071235       -2.56568837062296       -0.77171253945424

          :  Hamiltonian                  GFN2-xTB          :
         :: gradient norm              0.000062304953 Eh/a0 ::
         :: HOMO-LUMO gap              2.042770522110 eV    ::
         :: SCC energy              -137.061829253819 Eh    ::
         :: -> dispersion             -0.131378090927 Eh    ::
         :: -> Gsolv                  -0.056240563499 Eh    ::
         :: repulsion energy           2.285492442632 Eh    ::

    * Orbital Energies and Occupations

         #    Occupation            Energy/Eh            Energy/eV
      -------------------------------------------------------------
         1        2.0000           -0.7762176             -21.1220
       ...           ...                  ...                  ...
       112        2.0000           -0.4174234             -11.3587
       113        2.0000           -0.4172252             -11.3533
       114        2.0000           -0.4149098             -11.2903
       115        2.0000           -0.4136418             -11.2558
       116        2.0000           -0.4096172             -11.1463
       117        2.0000           -0.4088527             -11.1254
       118        2.0000           -0.4086769             -11.1207
       119        2.0000           -0.3885294             -10.5724
       120        2.0000           -0.3852010             -10.4819
       121        2.0000           -0.3681019             -10.0166
       122        2.0000           -0.3669980              -9.9865
       123        2.0000           -0.3483874              -9.4801
       124        2.0000           -0.3479880              -9.4692 (HOMO)
       125                         -0.2729176              -7.4265 (LUMO)
       126                         -0.2536131              -6.9012
       127                         -0.2501967              -6.8082
       128                         -0.2454249              -6.6784
       129                         -0.2428526              -6.6084
       130                         -0.2393786              -6.5138
       131                         -0.2118362              -5.7644
       132                         -0.2095787              -5.7029
       133                         -0.2075461              -5.6476
       134                         -0.2071615              -5.6372
       135                         -0.1918315              -5.2200
       ...                                ...                  ...
       243                          1.1762338              32.0070
      -------------------------------------------------------------
                  HL-Gap            0.0750704 Eh            2.0428 eV

     #   Z          covCN         q      C6AA      α(0)
     1   6 C        3.752    -0.112    22.696     6.794
     2   6 C        3.738     0.003    20.603     6.477
     3   7 N        2.794    -0.039    22.000     6.966
     4   6 C        3.125     0.038    26.965     8.503
     5   6 C        2.909    -0.052    29.280     8.873
     6   6 C        2.921    -0.039    28.982     8.828
     7   6 C        2.919    -0.044    29.096     8.845
     8   6 C        2.909    -0.042    29.043     8.837
     9   6 C        3.066    -0.025    28.564     8.764
    10   6 C        3.181    -0.000    27.594     8.575
    11   6 C        3.200     0.009    27.255     8.508
    12   6 C        3.060    -0.017    28.383     8.737
    13   6 C        2.911    -0.039    28.968     8.826
    14   6 C        2.919    -0.041    29.022     8.834
    15   6 C        2.923    -0.036    28.902     8.816
    16   6 C        2.909    -0.048    29.198     8.860
    17   6 C        3.103     0.041    26.961     8.508
    18   7 N        2.797    -0.032    21.853     6.943
    19   6 C        2.912     0.075    26.320     8.413
    20   6 C        2.923    -0.041    29.017     8.834
    21   6 C        2.966    -0.029    28.725     8.791
    22   6 C        2.970    -0.086    30.142     9.005
    23  16 S        3.839     0.944   108.282    17.514
    24   8 O        0.860    -0.572    25.443     6.763
    25   8 O        0.860    -0.572    25.432     6.761
    26   6 C        2.970    -0.085    30.125     9.003
    27   6 C        2.954    -0.026    28.647     8.779
    28   6 C        2.922    -0.040    29.000     8.831
    29   6 C        2.913     0.074    26.347     8.417
    30   7 N        2.799    -0.032    21.860     6.944
    31   6 C        3.101     0.039    27.006     8.516
    32   6 C        2.909    -0.050    29.253     8.869
    33   6 C        2.922    -0.038    28.936     8.821
    34   6 C        2.919    -0.042    29.047     8.838
    35   6 C        2.910    -0.039    28.971     8.826
    36   6 C        3.060    -0.019    28.423     8.743
    37   6 C        3.194     0.008    27.323     8.523
    38   6 C        3.188    -0.001    27.577     8.567
    39   6 C        3.064    -0.025    28.567     8.764
    40   6 C        2.910    -0.041    29.010     8.832
    41   6 C        2.919    -0.042    29.031     8.836
    42   6 C        2.922    -0.038    28.943     8.822
    43   6 C        2.909    -0.051    29.262     8.870
    44   6 C        3.125     0.039    26.944     8.500
    45   7 N        2.794    -0.039    21.984     6.964
    46   6 C        3.738     0.003    20.610     6.478
    47   6 C        3.752    -0.111    22.691     6.793
    48   6 C        2.925    -0.038    28.942     8.823
    49   6 C        2.970    -0.029    28.718     8.790
    50   6 C        2.955    -0.026    28.656     8.780
    51   6 C        2.924    -0.039    28.962     8.825
    52   1 H        0.925     0.051     2.302     2.373
    53   1 H        0.925     0.047     2.363     2.404
    54   1 H        0.925     0.049     2.335     2.389
    55   1 H        0.924     0.055     2.256     2.349
    56   1 H        0.924     0.054     2.272     2.357
    57   1 H        0.926     0.030     2.586     2.515
    58   1 H        0.926     0.025     2.655     2.548
    59   1 H        0.926     0.022     2.709     2.574
    60   1 H        0.926     0.023     2.689     2.564
    61   1 H        0.926     0.033     2.538     2.491
    62   1 H        0.926     0.029     2.594     2.519
    63   1 H        0.926     0.029     2.599     2.521
    64   1 H        0.926     0.028     2.612     2.527
    65   1 H        0.926     0.066     2.126     2.280
    66   1 H        0.926     0.056     2.246     2.344
    67   1 H        0.926     0.060     2.197     2.318
    68   1 H        0.926     0.067     2.120     2.277
    69   1 H        0.926     0.030     2.591     2.517
    70   1 H        0.926     0.029     2.604     2.524
    71   1 H        0.926     0.028     2.612     2.527
    72   1 H        0.926     0.032     2.553     2.499
    73   1 H        0.926     0.017     2.781     2.608
    74   1 H        0.926     0.020     2.739     2.588
    75   1 H        0.926     0.026     2.643     2.542
    76   1 H        0.926     0.032     2.562     2.503
    77   1 H        0.924     0.054     2.275     2.359
    78   1 H        0.924     0.055     2.258     2.350
    79   1 H        0.925     0.048     2.344     2.394
    80   1 H        0.925     0.051     2.305     2.374
    81   1 H        0.925     0.048     2.343     2.394
    82   1 H        0.926     0.068     2.107     2.270
    83   1 H        0.926     0.056     2.247     2.344
    84   1 H        0.926     0.058     2.217     2.329
    85   1 H        0.926     0.067     2.115     2.274

molecular dipole:
                 x           y           z       tot (Debye)
 q only:        1.801       4.897       0.158
   full:        1.676       4.576       0.127      12.390

 projected vibrational frequencies (cm⁻¹)
eigval :       -0.00    -0.00     0.00     0.00     0.00     0.00
eigval :       10.78    14.99    19.52    24.12    34.34    36.56
eigval :       45.03    46.28    48.48    58.53    66.26    70.89
eigval :       77.38    82.76    90.38    97.77   113.66   117.35
eigval :      130.30   137.48   143.81   152.08   171.46   174.72
eigval :      176.32   187.63   195.86   203.61   207.50   223.65
eigval :      225.48   258.98   259.38   268.65   270.97   282.39
eigval :      305.49   314.17   322.97   326.26   327.95   359.18
eigval :      371.31   374.97   378.83   381.89   386.07   396.15
eigval :      404.02   407.46   411.69   414.08   418.95   438.04
eigval :      443.18   450.09   452.82   477.06   509.27   517.65
eigval :      528.12   528.88   535.00   536.56   543.10   543.93
eigval :      546.73   568.35   572.85   582.48   585.17   600.35
eigval :      601.58   624.62   625.95   643.60   651.57   653.16
eigval :      668.10   680.47   684.46   686.05   686.20   688.73
eigval :      689.35   702.45   718.82   761.39   766.36   767.22
eigval :      768.04   768.75   772.69   805.56   811.36   819.45
eigval :      824.63   857.96   858.29   861.77   862.21   865.45
eigval :      867.11   872.97   873.84   874.13   878.94   897.51
eigval :      898.83   899.25   900.92   914.07   916.89   918.38
eigval :      918.92   921.97   922.88   925.37   927.11   928.66
eigval :      933.35   970.34   972.01   999.39  1002.13  1051.68
eigval :     1051.75  1061.89  1062.59  1066.87  1073.10  1073.68
eigval :     1074.88  1078.08  1084.29  1084.98  1104.91  1113.10
eigval :     1117.64  1119.82  1136.88  1138.01  1142.36  1144.40
eigval :     1163.25  1165.04  1171.53  1174.53  1176.44  1179.10
eigval :     1189.39  1189.54  1194.17  1201.75  1204.40  1236.49
eigval :     1237.35  1242.10  1246.04  1251.12  1251.57  1266.01
eigval :     1267.72  1271.79  1273.08  1321.85  1321.98  1323.51
eigval :     1326.48  1331.00  1334.77  1346.98  1348.26  1356.80
eigval :     1357.92  1370.44  1370.71  1395.37  1397.15  1399.81
eigval :     1401.03  1401.95  1403.07  1411.98  1413.33  1431.28
eigval :     1431.82  1442.32  1442.84  1460.03  1460.71  1469.30
eigval :     1472.81  1483.27  1486.08  1494.97  1495.02  1495.10
eigval :     1496.54  1501.54  1502.44  1537.82  1539.51  1565.80
eigval :     1568.03  1568.75  1569.62  1581.83  1582.29  1584.91
eigval :     1586.08  1602.61  1603.39  1619.04  1619.86  2963.87
eigval :     2964.43  2974.29  2974.33  3039.37  3040.43  3043.46
eigval :     3045.51  3046.63  3046.81  3067.49  3072.04  3072.06
eigval :     3073.49  3073.79  3075.20  3078.40  3080.36  3081.24
eigval :     3083.31  3086.72  3088.36  3089.47  3092.65  3093.96
eigval :     3095.76  3096.25  3096.36  3098.55  3099.15  3105.40
eigval :     3106.45  3108.07  3108.78

   temp. (K)  partition function   enthalpy   heat capacity  entropy
                                   cal/mol     cal/K/mol   cal/K/mol   J/K/mol
 298.15  VIB  0.108E+20            25043.410    156.595    155.742
         ROT  0.818E+08              888.752      2.981     39.189
         INT  0.880E+27            25932.162    159.575    194.930
         TR   0.173E+29             1481.254      4.968     45.424
         TOT                       27413.4159   164.5436   240.3542  1005.6420

       T/K    H(0)-H(T)+PV         H(T)/Eh          T*S/Eh         G(T)/Eh
   ------------------------------------------------------------------------
    298.15    0.436861E-01    0.699624E+00    0.114200E+00    0.585424E+00
   ------------------------------------------------------------------------

         :::::::::::::::::::::::::::::::::::::::::::::::::::::
         ::                  THERMODYNAMIC                  ::
         :::::::::::::::::::::::::::::::::::::::::::::::::::::
         :: total free energy        -134.190913101385 Eh   ::
         ::.................................................::
         :: total energy             -134.776336815722 Eh   ::
         :: zero point energy           0.655937694145 Eh   ::
         :: G(RRHO) w/o ZPVE           -0.070513979808 Eh   ::
         :: G(RRHO) contrib.            0.585423714338 Eh   ::
         :::::::::::::::::::::::::::::::::::::::::::::::::::::

           -------------------------------------------------
          | TOTAL ENERGY             -134.776336815722 Eh   |
          | TOTAL ENTHALPY           -134.076713062608 Eh   |
          | TOTAL FREE ENERGY        -134.190913101385 Eh   |
          | GRADIENT NORM               0.000062304027 Eh/α |
          | HOMO-LUMO GAP               2.042770732239 eV   |
           -------------------------------------------------

 * finished run on 2025/07/19 at 01:25:28.860
