   * xtb version 6.7.1 (edcfbbe) compiled by 'albert@albert-system' on 2024-07-22

   ID    Z sym.   atoms
    1    6 C      1, 2, 4-17, 19-22, 26-29, 31-44, 46-51
    2    7 N      3, 18, 30, 45
    3   16 S      23
    4    8 O      24, 25
    5    1 H      52-85

          program call               : xtb data2507/toluene/DHID-DPS/DHID-DPS_toluene_T1_crest.xyz --gfn 2 --uhf 2 --gbsa toluene --ohess vtight --parallel 40 --molden --ceasefiles --namespace data2507/toluene/DHID-DPS/DHID-DPS_toluene_T1_finalOpt
      * Solvation model:               GBSA
        Solvent                        toluene
        Solvent mass                       9.2140E+01 g/mol
          :  Hamiltonian                  GFN2-xTB          :
 * total energy  :  -134.6973266 Eh     change       -0.3541345E-09 Eh
 * total energy  :  -134.6977036 Eh     change       -0.3769703E-03 Eh
 * total energy  :  -134.6979323 Eh     change       -0.2287198E-03 Eh
 * total energy  :  -134.6979533 Eh     change       -0.2096232E-04 Eh
 * total energy  :  -134.6979780 Eh     change       -0.2471377E-04 Eh
 * total energy  :  -134.6979873 Eh     change       -0.9296893E-05 Eh
 * total energy  :  -134.6980041 Eh     change       -0.1686431E-04 Eh
 * total energy  :  -134.6980103 Eh     change       -0.6115368E-05 Eh
 * total energy  :  -134.6980183 Eh     change       -0.8051235E-05 Eh
 * total energy  :  -134.6980270 Eh     change       -0.8660408E-05 Eh
 * total energy  :  -134.6980478 Eh     change       -0.1822994E-05 Eh
 * total energy  :  -134.6980492 Eh     change       -0.1399688E-05 Eh
 * total energy  :  -134.6980506 Eh     change       -0.1338759E-05 Eh
 * total energy  :  -134.6980515 Eh     change       -0.9155014E-06 Eh
 * total energy  :  -134.6980520 Eh     change       -0.5003062E-06 Eh
 * total energy  :  -134.6980522 Eh     change       -0.2368048E-06 Eh
 * total energy  :  -134.6980523 Eh     change       -0.1108029E-06 Eh
 * total energy  :  -134.6980523 Eh     change        0.7757194E-08 Eh
 * total energy  :  -134.6980523 Eh     change       -0.1457607E-07 Eh
   *** GEOMETRY OPTIMIZATION CONVERGED AFTER 23 ITERATIONS ***

 final structure:
================
85
 xtb: 6.7.1 (edcfbbe)
C            3.48731654490438       -4.74333765979680        2.21892595960497
C            2.82252413509084       -4.35058762068405        0.89935234731907
N            2.34868256608096       -2.99242160881450        0.92804551037132
C            1.10339644544269       -2.57099574355459        1.35575514428401
C            0.02474692660404       -3.32929152984503        1.77741289753830
C           -1.14421615106367       -2.66817314475984        2.12657061316093
C           -1.24109599284656       -1.28407112909318        2.05319617469342
C           -0.16980641011206       -0.50834026062801        1.64127413521760
C            1.01728612245908       -1.14657671555654        1.29287430558138
C            2.28787684112095       -0.72875023972840        0.81849507920439
C            3.07299515790227       -1.88795031874757        0.61261916361332
C            4.31746748519367       -1.48169078615090        0.07436663320111
C            5.49350498981402       -2.12340022510267       -0.31556844127007
C            6.54276905558470       -1.35880909912621       -0.78603508170608
C            6.44941273513421        0.02903740400152       -0.86252896214140
C            5.29234660604504        0.69459999309976       -0.48187535307019
C            4.22505772575078       -0.05820670784117       -0.03037147278763
N            2.98296044574089        0.37439365279991        0.42406240665142
C            2.48653081947701        1.68050317586990        0.39613506805245
C            1.84710653703106        2.20646371689589        1.53132930222684
C            1.23603368021545        3.43309385809733        1.47052168320375
C            1.25285802881764        4.16690526059246        0.27870545156509
S           -0.04091219966170        5.34429073848673        0.00868587962360
O           -0.31893991210274        6.10540381773465        1.21622709135065
O            0.22567391276062        6.11370065681240       -1.19615556098740
C           -1.31695080432447        4.14868876285715       -0.26550721473407
C           -1.98930246057407        3.63435690451858        0.84882639566404
C           -2.59453521176610        2.40354313625622        0.78443005143912
C           -2.51259484771284        1.64417512690708       -0.39214710760127
N           -2.98916067683589        0.33079864337114       -0.42481094068838
C           -4.22371030478930       -0.12242979078943        0.03016016176713
C           -5.30181471954471        0.61214603409671        0.48600845759683
C           -6.44751572110934       -0.07268421042303        0.86689219259347
C           -6.51929705406412       -1.46161028204955        0.78642264019247
C           -5.45917466355507       -2.20813797391711        0.31133919414937
C           -4.29419555075135       -1.54682756437046       -0.07896172794495
C           -3.04457286862449       -1.93205960770804       -0.62063334355058
C           -2.27771424077162       -0.76022400286477       -0.82383718934698
C           -1.00126333329005       -1.15698636935710       -1.30055919697707
C            0.17569332109974       -0.49947919866192       -1.64751297233501
C            1.25858780930081       -1.25735569317651       -2.06228825389882
C            1.18293567237243       -2.64254562043787       -2.14003399185123
C            0.02445711876080       -3.32266408029053       -1.79242657287607
C           -1.06544122287501       -2.58237587993989       -1.36771938344275
N           -2.30369765532757       -3.02426679883994       -0.94020712395601
C           -2.75606952686742       -4.38979239021768       -0.91360613750696
C           -3.41631953518666       -4.79066135836037       -2.23301306189772
C           -1.88228650964549        2.18449803853227       -1.52569636623190
C           -1.28997246429778        3.42008225660440       -1.46032096182430
C            1.93382755513155        3.66747118347872       -0.83715905711427
C            2.55786401456588        2.44584067978052       -0.77725015158029
H            3.84211071689643       -5.76876275438202        2.16405236636929
H            2.77893682336513       -4.65981248262631        3.03960198115980
H            4.33231768755511       -4.09040079088623        2.42421927131644
H            3.53782834016296       -4.44059998168025        0.07889258921014
H            1.97497161299060       -5.00815903662838        0.69497484895837
H            0.08099296316481       -4.40464966514858        1.84036534036273
H           -1.99642843840233       -3.24018068456991        2.46093436676730
H           -2.16796791002863       -0.80469572821228        2.33113823210286
H           -0.25446867323460        0.56601349522382        1.58005345000295
H            5.58805686268507       -3.19587424576245       -0.24314698220696
H            7.45906876514544       -1.84174712362734       -1.09193117775263
H            7.29352682600582        0.60008540033997       -1.21854473633206
H            5.23322336379040        1.77137756616507       -0.52777441856815
H            1.84104164566540        1.63151025723876        2.44517503932882
H            0.72079583812565        3.85133218528264        2.32139892076393
H           -1.99609078802063        4.22176222459251        1.75398263549714
H           -3.08897972257679        1.99298982254805        1.65180574116702
H           -5.25948542709101        1.68956263066524        0.53528307819606
H           -7.29976387058285        0.48392171441016        1.22638587731094
H           -7.42728955118135       -1.95975530984068        1.09275333668519
H           -5.53673153138389       -3.28172668120427        0.23565862254421
H            0.24388888219058        0.57584775893990       -1.58293643371154
H            2.17787132341654       -0.76288720543882       -2.33899392348049
H            2.04369774887031       -3.20027900333143       -2.47660763069036
H           -0.01531424296604       -4.39854820659003       -1.85877536850492
H           -1.89795960956488       -5.03427143592529       -0.71151008039034
H           -3.46887874818772       -4.49265843943575       -0.09244383922510
H           -4.27145505029653       -4.15040118425334       -2.43635704859960
H           -3.75548388813472       -5.82143351796378       -2.17917858847084
H           -2.71027924849798       -4.69525443919382       -3.05441252183990
H           -1.86823521524161        1.61348282554046       -2.44191994666708
H           -0.78187413389946        3.84961081005944       -2.30987310275879
H            1.93235541755156        4.25863286062016       -1.73989473540403
H            3.05940243200678        2.04654595042885       -1.64580686688489

          :  Hamiltonian                  GFN2-xTB          :
         :: gradient norm              0.000069785572 Eh/a0 ::
         :: HOMO-LUMO gap              0.166840139228 eV    ::
         :: SCC energy              -136.966565630286 Eh    ::
         :: -> dispersion             -0.145180552284 Eh    ::
         :: -> Gsolv                  -0.063405802537 Eh    ::
         :: repulsion energy           2.268513296468 Eh    ::

    * Orbital Energies and Occupations

         #    Occupation            Energy/Eh            Energy/eV
      -------------------------------------------------------------
         1        2.0000           -0.7536335             -20.5074
       ...           ...                  ...                  ...
       113        2.0000           -0.4165915             -11.3360
       114        2.0000           -0.4150948             -11.2953
       115        2.0000           -0.4117202             -11.2035
       116        2.0000           -0.4090224             -11.1301
       117        2.0000           -0.4056173             -11.0374
       118        2.0000           -0.3948072             -10.7433
       119        2.0000           -0.3938600             -10.7175
       120        2.0000           -0.3911063             -10.6425
       121        2.0000           -0.3804320             -10.3521
       122        2.0000           -0.3743589             -10.1868
       123        1.9042           -0.3561611              -9.6916
       124        1.0958           -0.3518964              -9.5756
       125        0.9618           -0.2643919              -7.1945 (HOMO)
       126        0.0382           -0.2582607              -7.0276 (LUMO)
       127        0.0000           -0.2503112              -6.8113
       128                         -0.2342571              -6.3745
       129                         -0.2316626              -6.3039
       130                         -0.2248122              -6.1175
       131                         -0.2202311              -5.9928
       132                         -0.2199489              -5.9851
       133                         -0.2175985              -5.9212
       134                         -0.2133754              -5.8062
       135                         -0.2014382              -5.4814
       136                         -0.1957924              -5.3278
       ...                                ...                  ...
       243                          1.1645675              31.6895
      -------------------------------------------------------------
                  HL-Gap            0.0061312 Eh            0.1668 eV

     #   Z          covCN         q      C6AA      α(0)
     1   6 C        3.752    -0.114    22.745     6.801
     2   6 C        3.739    -0.003    20.706     6.493
     3   7 N        2.791    -0.008    21.416     6.873
     4   6 C        3.117     0.037    27.008     8.512
     5   6 C        2.909    -0.048    29.182     8.858
     6   6 C        2.921    -0.037    28.920     8.819
     7   6 C        2.918    -0.035    28.876     8.812
     8   6 C        2.909    -0.032    28.809     8.801
     9   6 C        3.053    -0.020    28.454     8.748
    10   6 C        3.183     0.017    27.193     8.511
    11   6 C        3.184     0.014    27.254     8.520
    12   6 C        3.050    -0.021    28.471     8.751
    13   6 C        2.910    -0.035    28.872     8.811
    14   6 C        2.918    -0.038    28.937     8.821
    15   6 C        2.922    -0.037    28.913     8.818
    16   6 C        2.908    -0.042    29.046     8.837
    17   6 C        3.112     0.038    26.997     8.512
    18   7 N        2.793    -0.008    21.407     6.872
    19   6 C        2.913     0.041    27.081     8.533
    20   6 C        2.918    -0.044    29.085     8.844
    21   6 C        2.964    -0.038    28.941     8.824
    22   6 C        2.965    -0.102    30.567     9.069
    23  16 S        3.862     0.885   110.012    17.653
    24   8 O        0.860    -0.591    25.895     6.823
    25   8 O        0.860    -0.591    25.895     6.823
    26   6 C        2.965    -0.102    30.567     9.069
    27   6 C        2.964    -0.039    28.961     8.827
    28   6 C        2.917    -0.043    29.069     8.841
    29   6 C        2.913     0.041    27.081     8.533
    30   7 N        2.793    -0.008    21.407     6.872
    31   6 C        3.112     0.038    26.997     8.512
    32   6 C        2.908    -0.042    29.046     8.837
    33   6 C        2.922    -0.037    28.913     8.818
    34   6 C        2.918    -0.038    28.937     8.821
    35   6 C        2.910    -0.035    28.872     8.811
    36   6 C        3.050    -0.021    28.471     8.751
    37   6 C        3.184     0.014    27.253     8.520
    38   6 C        3.183     0.017    27.193     8.511
    39   6 C        3.053    -0.020    28.454     8.748
    40   6 C        2.909    -0.032    28.809     8.801
    41   6 C        2.918    -0.035    28.876     8.812
    42   6 C        2.921    -0.037    28.919     8.819
    43   6 C        2.909    -0.048    29.182     8.858
    44   6 C        3.117     0.037    27.008     8.512
    45   7 N        2.791    -0.008    21.416     6.873
    46   6 C        3.739    -0.003    20.706     6.493
    47   6 C        3.752    -0.114    22.745     6.801
    48   6 C        2.918    -0.044    29.085     8.844
    49   6 C        2.964    -0.038    28.941     8.824
    50   6 C        2.964    -0.039    28.961     8.827
    51   6 C        2.917    -0.043    29.069     8.841
    52   1 H        0.925     0.059     2.213     2.326
    53   1 H        0.925     0.052     2.295     2.369
    54   1 H        0.925     0.051     2.303     2.373
    55   1 H        0.924     0.065     2.142     2.289
    56   1 H        0.924     0.065     2.146     2.291
    57   1 H        0.926     0.045     2.378     2.411
    58   1 H        0.926     0.038     2.470     2.458
    59   1 H        0.926     0.028     2.612     2.528
    60   1 H        0.926     0.027     2.623     2.533
    61   1 H        0.926     0.041     2.431     2.438
    62   1 H        0.926     0.036     2.504     2.475
    63   1 H        0.926     0.034     2.534     2.489
    64   1 H        0.926     0.035     2.521     2.483
    65   1 H        0.926     0.049     2.336     2.390
    66   1 H        0.926     0.034     2.526     2.485
    67   1 H        0.926     0.036     2.500     2.473
    68   1 H        0.926     0.048     2.344     2.394
    69   1 H        0.926     0.035     2.521     2.483
    70   1 H        0.926     0.034     2.534     2.489
    71   1 H        0.926     0.036     2.504     2.475
    72   1 H        0.926     0.041     2.431     2.438
    73   1 H        0.926     0.027     2.623     2.533
    74   1 H        0.926     0.028     2.612     2.528
    75   1 H        0.926     0.038     2.470     2.458
    76   1 H        0.926     0.045     2.378     2.411
    77   1 H        0.924     0.065     2.146     2.291
    78   1 H        0.924     0.065     2.142     2.289
    79   1 H        0.925     0.051     2.303     2.373
    80   1 H        0.925     0.059     2.213     2.326
    81   1 H        0.925     0.052     2.294     2.369
    82   1 H        0.926     0.049     2.336     2.390
    83   1 H        0.926     0.034     2.526     2.485
    84   1 H        0.926     0.036     2.500     2.472
    85   1 H        0.926     0.048     2.344     2.394

molecular dipole:
                 x           y           z       tot (Debye)
 q only:        0.073      -9.682      -0.016
   full:        0.069      -9.097      -0.015      23.123

 projected vibrational frequencies (cm⁻¹)
eigval :       -0.00    -0.00    -0.00     0.00     0.00     0.00
eigval :       22.14    23.77    27.40    27.99    35.75    36.91
eigval :       40.42    42.14    61.70    66.47    70.94    73.32
eigval :       84.82    87.99    93.89   100.36   122.02   129.74
eigval :      130.56   137.32   142.68   149.36   171.13   172.01
eigval :      181.47   183.30   188.39   198.48   206.64   222.97
eigval :      225.20   254.63   257.32   258.14   275.49   284.18
eigval :      304.92   312.50   314.38   320.05   329.38   350.96
eigval :      364.60   371.88   372.21   379.12   383.39   395.60
eigval :      396.22   400.59   405.85   412.32   415.87   427.91
eigval :      430.07   438.30   457.75   459.22   463.73   511.06
eigval :      515.32   525.09   528.34   534.49   534.88   541.06
eigval :      543.33   566.71   567.83   580.35   581.06   597.41
eigval :      598.54   618.93   619.25   626.42   627.60   651.04
eigval :      654.00   672.23   673.41   677.07   678.37   684.14
eigval :      686.43   700.02   711.04   758.48   759.99   762.41
eigval :      762.82   763.72   765.40   789.01   792.62   795.88
eigval :      813.26   831.09   846.82   850.00   855.43   857.37
eigval :      858.82   860.65   861.73   870.60   872.01   885.11
eigval :      886.79   895.45   897.58   902.64   904.58   909.70
eigval :      910.96   914.64   915.51   916.02   917.68   923.36
eigval :      924.17   962.53   969.18   986.32   990.60   992.27
eigval :     1043.15  1049.70  1050.37  1061.31  1062.39  1069.03
eigval :     1070.33  1071.65  1073.94  1081.70  1082.28  1085.00
eigval :     1113.24  1115.58  1119.66  1129.38  1129.85  1137.91
eigval :     1152.25  1156.08  1158.47  1166.19  1173.17  1173.42
eigval :     1176.23  1177.52  1187.80  1194.11  1196.76  1198.92
eigval :     1227.94  1229.67  1241.44  1241.65  1245.58  1246.01
eigval :     1254.38  1254.64  1265.14  1265.54  1312.04  1312.23
eigval :     1313.30  1316.19  1320.69  1320.87  1334.08  1334.74
eigval :     1354.07  1359.62  1363.11  1375.71  1381.35  1395.86
eigval :     1396.62  1397.90  1402.01  1402.13  1403.23  1409.98
eigval :     1411.92  1420.15  1427.13  1440.45  1447.83  1450.42
eigval :     1450.82  1452.91  1454.19  1455.87  1466.90  1479.03
eigval :     1479.31  1491.95  1492.20  1496.45  1502.19  1509.58
eigval :     1522.37  1530.07  1544.61  1551.95  1566.05  1567.04
eigval :     1570.14  1570.19  1580.69  1581.88  1599.78  2978.71
eigval :     2978.92  2984.48  2984.78  3043.18  3043.49  3046.98
eigval :     3047.53  3052.31  3052.87  3077.68  3078.78  3079.59
eigval :     3079.80  3082.84  3083.29  3084.25  3084.53  3085.42
eigval :     3085.66  3085.92  3086.54  3091.71  3092.05  3092.72
eigval :     3093.92  3094.18  3095.77  3096.74  3097.42  3097.84
eigval :     3098.84  3098.95  3100.29

   temp. (K)  partition function   enthalpy   heat capacity  entropy
                                   cal/mol     cal/K/mol   cal/K/mol   J/K/mol
 298.15  VIB  0.168E+19            25207.132    159.068    154.972
         ROT  0.320E+08              888.752      2.981     37.322
         INT  0.537E+26            26095.884    162.049    192.295
         TR   0.173E+29             1481.254      4.968     45.424
         TOT                       27577.1382   167.0172   237.7184   994.6139

       T/K    H(0)-H(T)+PV         H(T)/Eh          T*S/Eh         G(T)/Eh
   ------------------------------------------------------------------------
    298.15    0.439470E-01    0.695138E+00    0.112948E+00    0.582190E+00
   ------------------------------------------------------------------------

         :::::::::::::::::::::::::::::::::::::::::::::::::::::
         ::                  THERMODYNAMIC                  ::
         :::::::::::::::::::::::::::::::::::::::::::::::::::::
         :: total free energy        -134.115862377473 Eh   ::
         ::.................................................::
         :: total energy             -134.698052330346 Eh   ::
         :: zero point energy           0.651190679799 Eh   ::
         :: G(RRHO) w/o ZPVE           -0.069000726926 Eh   ::
         :: G(RRHO) contrib.            0.582189952873 Eh   ::
         :::::::::::::::::::::::::::::::::::::::::::::::::::::

           -------------------------------------------------
          | TOTAL ENERGY             -134.698052330346 Eh   |
          | TOTAL ENTHALPY           -134.002914683415 Eh   |
          | TOTAL FREE ENERGY        -134.115862377473 Eh   |
          | GRADIENT NORM               0.000069766989 Eh/α |
          | HOMO-LUMO GAP               0.166838233161 eV   |
           -------------------------------------------------

 * finished run on 2025/07/19 at 01:39:08.548
