   * xtb version 6.7.1 (edcfbbe) compiled by 'albert@albert-system' on 2024-07-22

   ID    Z sym.   atoms
    1    6 C      1, 2, 4-17, 19-22, 26-29, 31-44, 46-51
    2    7 N      3, 18, 30, 45
    3   16 S      23
    4    8 O      24, 25
    5    1 H      52-85

          program call               : xtb data2507/toluene/DHID-DPS/DHID-DPS.xyz --gfn 2 --gbsa toluene --ohess vtight --parallel 40 --molden --ceasefiles --namespace data2507/toluene/DHID-DPS/DHID-DPS_toluene_S0_preOpt
      * Solvation model:               GBSA
        Solvent                        toluene
        Solvent mass                       9.2140E+01 g/mol
          :  Hamiltonian                  GFN2-xTB          :
 * total energy  :  -134.7592717 Eh     change       -0.7527206E-09 Eh
 * total energy  :  -134.7742944 Eh     change       -0.1502263E-01 Eh
 * total energy  :  -134.7772843 Eh     change       -0.2989951E-02 Eh
 * total energy  :  -134.7777158 Eh     change       -0.4314423E-03 Eh
 * total energy  :  -134.7779839 Eh     change       -0.2681558E-03 Eh
 * total energy  :  -134.7781012 Eh     change       -0.1172536E-03 Eh
 * total energy  :  -134.7781847 Eh     change       -0.8356240E-04 Eh
 * total energy  :  -134.7782429 Eh     change       -0.5814097E-04 Eh
 * total energy  :  -134.7783001 Eh     change       -0.5718471E-04 Eh
 * total energy  :  -134.7783610 Eh     change       -0.6088595E-04 Eh
 * total energy  :  -134.7786967 Eh     change       -0.2894699E-06 Eh
 * total energy  :  -134.7786971 Eh     change       -0.3903302E-06 Eh
 * total energy  :  -134.7786976 Eh     change       -0.4230208E-06 Eh
 * total energy  :  -134.7786979 Eh     change       -0.3322956E-06 Eh
 * total energy  :  -134.7786982 Eh     change       -0.2873014E-06 Eh
 * total energy  :  -134.7786985 Eh     change       -0.2836472E-06 Eh
 * total energy  :  -134.7786988 Eh     change       -0.3138146E-06 Eh
 * total energy  :  -134.7786991 Eh     change       -0.3459285E-06 Eh
 * total energy  :  -134.7786991 Eh     change       -0.6985346E-08 Eh
   *** GEOMETRY OPTIMIZATION CONVERGED AFTER 44 ITERATIONS ***

 final structure:
================
85
 xtb: 6.7.1 (edcfbbe)
C            9.89395558258446       -1.34970820166197       -0.70810512050901
C            8.94362679543208       -0.83762653409395       -1.79027583183369
N            7.80677885805099       -0.15782311553833       -1.22610848231632
C            7.71390861137839        1.17964659131743       -0.92897729181796
C            8.63482259955493        2.19571647756140       -1.15776024790933
C            8.31444423234992        3.47396698598431       -0.75215386318273
C            7.10208529788922        3.75227772588241       -0.11699453485572
C            6.17412547085139        2.76182525886880        0.11573757991389
C            6.46116596875733        1.46026318031554       -0.29707704673390
C            5.80324165888756        0.20603577381557       -0.23657365603317
C            6.65647601595442       -0.75160975821926       -0.77743869714485
C            6.03441690123162       -2.02320398486937       -0.65356137351967
C            6.37097092243879       -3.32707488041695       -1.00929955425624
C            5.47160861074048       -4.33978985831961       -0.75130221002058
C            4.23612738604198       -4.07095700681679       -0.16390454604716
C            3.87783424359493       -2.78852480431296        0.20483922962821
C            4.78690731089529       -1.76280790084092       -0.01242621895583
N            4.65711106749071       -0.40643647538376        0.24343507404445
C            3.56780238104892        0.23875054107269        0.81678119077939
C            3.09258881887552        1.42388079481028        0.24825850809273
C            2.02645543737429        2.08784136827965        0.82138351335715
C            1.43125775441911        1.56973791606005        1.95738187673016
S            0.03066043934830        2.41348819031563        2.68835674412482
O            0.06547041787961        2.21559678579034        4.12308809387153
O            0.01894497361784        3.78253246767407        2.21448606129545
C           -1.40579455630025        1.56888102607821        2.03090040792299
C           -2.05866704617531        0.62348720027213        2.80021377944392
C           -3.16533746743752       -0.02764757253465        2.29048880417701
C           -3.61159738789427        0.26246874008909        0.99866883934180
N           -4.73586865970618       -0.36399648786456        0.47423065212826
C           -5.04167269200248       -1.71533244933470        0.52087160352742
C           -4.30891979164816       -2.76410010413858        1.05841102003816
C           -4.82208201342390       -4.04279892467442        0.95588532847959
C           -6.03805817379475       -4.28892113739982        0.31982570721803
C           -6.76033036986554       -3.26372936563753       -0.25319008454618
C           -6.26502084597838       -1.96470422522873       -0.16943040946857
C           -6.68692734921136       -0.69243504250143       -0.64102483648300
C           -5.74506515586815        0.25344392953188       -0.24648757298743
C           -6.21144201932224        1.52909328338356       -0.65260442535822
C           -5.77106864573338        2.84596056330840       -0.51562324877255
C           -6.53044247334607        3.85994393568583       -1.05560977920534
C           -7.72368135973090        3.59073279274382       -1.72966019347539
C           -8.19390686438310        2.30204219250841       -1.86862486882549
C           -7.44476493565839        1.26333062712865       -1.32764335301122
N           -7.70660207645061       -0.08476459423087       -1.32520018639331
C           -8.88975899579827       -0.73290778864006       -1.82800072941573
C           -9.97122516800063       -0.85281437866621       -0.75440137096333
C           -2.93282787918066        1.21306564891701        0.23018412099661
C           -1.83281327943811        1.86596286331505        0.74866246962274
C            1.88442566544076        0.39447103660462        2.52910282767813
C            2.95575493008201       -0.27053959940912        1.96557519844754
H           10.73503530640287       -1.86471586885241       -1.16450111061565
H            9.37448043311798       -2.04041907634011       -0.04784429448866
H           10.27017044332089       -0.52067288799413       -0.11303603713542
H            9.46766112410991       -0.14497199923813       -2.45357378157277
H            8.57448873638460       -1.67306876430128       -2.39108878962207
H            9.58348341807204        1.99518869800560       -1.63246452970129
H            9.01793876733799        4.27684222583027       -0.91881101855347
H            6.89335483024884        4.76435284437877        0.19876278797269
H            5.24646639331276        2.98628523909630        0.62115322690463
H            7.31749414804634       -3.54187834363203       -1.48177101654635
H            5.71922700946905       -5.35678635229631       -1.01819409053966
H            3.54277069221632       -4.88202411007231        0.00353785847024
H            2.90883845132287       -2.59409491736997        0.63806516352463
H            3.56116188463479        1.80757733883276       -0.64454911022404
H            1.65076915982037        3.01187826463372        0.41081732859848
H           -1.70616180396056        0.43595715700662        3.80236655701818
H           -3.70564290329794       -0.73667113804934        2.89767171782590
H           -3.35562079560634       -2.59325179838567        1.53436489566036
H           -4.26759239919024       -4.86961114013352        1.37492311203363
H           -6.41069196914167       -5.30143770188513        0.26665603514577
H           -7.69173357284633       -3.46596974531339       -0.75999863533668
H           -4.85798400394161        3.06774086141510        0.01678336170574
H           -6.20194943480503        4.88443213514525       -0.95486712956043
H           -8.29319479351950        4.41163356524822       -2.14083971750210
H           -9.12683661944205        2.11321762645733       -2.37799230350429
H           -9.26595230815479       -0.15723522071431       -2.67731777022313
H           -8.60540991167862       -1.72580504517941       -2.18652882665961
H           -9.60242851115107       -1.43331244247174        0.08813657689645
H          -10.84915748603534       -1.34565554620742       -1.16342413395080
H          -10.25717967719844        0.13324336933523       -0.39536038101406
H           -3.27350357252292        1.42340991650386       -0.77163312857236
H           -1.30475652020785        2.61377839384084        0.17868804198945
H            1.41111878007447        0.03407889962082        3.42867434930498
H            3.34224255895364       -1.16622014348919        2.42588689545740

          :  Hamiltonian                  GFN2-xTB          :
         :: gradient norm              0.000061305645 Eh/a0 ::
         :: HOMO-LUMO gap              2.152073162403 eV    ::
         :: SCC energy              -137.062418262502 Eh    ::
         :: -> dispersion             -0.118697969682 Eh    ::
         :: -> Gsolv                  -0.062044294226 Eh    ::
         :: repulsion energy           2.283719136665 Eh    ::

    * Orbital Energies and Occupations

         #    Occupation            Energy/Eh            Energy/eV
      -------------------------------------------------------------
         1        2.0000           -0.7739025             -21.0590
       ...           ...                  ...                  ...
       112        2.0000           -0.4176994             -11.3662
       113        2.0000           -0.4175272             -11.3615
       114        2.0000           -0.4152605             -11.2998
       115        2.0000           -0.4147455             -11.2858
       116        2.0000           -0.4097728             -11.1505
       117        2.0000           -0.4097188             -11.1490
       118        2.0000           -0.4086735             -11.1206
       119        2.0000           -0.3876296             -10.5479
       120        2.0000           -0.3870377             -10.5318
       121        2.0000           -0.3681719             -10.0185
       122        2.0000           -0.3679566             -10.0126
       123        2.0000           -0.3489227              -9.4947
       124        2.0000           -0.3483773              -9.4798 (HOMO)
       125                         -0.2692901              -7.3278 (LUMO)
       126                         -0.2554303              -6.9506
       127                         -0.2480604              -6.7501
       128                         -0.2472059              -6.7268
       129                         -0.2435175              -6.6264
       130                         -0.2407971              -6.5524
       131                         -0.2116561              -5.7595
       132                         -0.2107979              -5.7361
       133                         -0.2080479              -5.6613
       134                         -0.2076961              -5.6517
       135                         -0.1918073              -5.2193
       ...                                ...                  ...
       243                          1.1615173              31.6065
      -------------------------------------------------------------
                  HL-Gap            0.0790872 Eh            2.1521 eV

     #   Z          covCN         q      C6AA      α(0)
     1   6 C        3.752    -0.112    22.694     6.794
     2   6 C        3.738     0.003    20.609     6.478
     3   7 N        2.794    -0.039    21.991     6.965
     4   6 C        3.125     0.038    26.963     8.503
     5   6 C        2.909    -0.052    29.279     8.873
     6   6 C        2.921    -0.039    28.976     8.827
     7   6 C        2.919    -0.044    29.092     8.845
     8   6 C        2.909    -0.042    29.042     8.837
     9   6 C        3.066    -0.025    28.562     8.764
    10   6 C        3.182    -0.001    27.609     8.577
    11   6 C        3.199     0.008    27.285     8.513
    12   6 C        3.060    -0.019    28.418     8.742
    13   6 C        2.911    -0.039    28.972     8.826
    14   6 C        2.919    -0.042    29.039     8.837
    15   6 C        2.922    -0.038    28.935     8.821
    16   6 C        2.909    -0.051    29.262     8.870
    17   6 C        3.102     0.038    27.016     8.517
    18   7 N        2.797    -0.031    21.849     6.942
    19   6 C        2.911     0.075    26.329     8.414
    20   6 C        2.925    -0.039    28.971     8.827
    21   6 C        2.954    -0.024    28.608     8.773
    22   6 C        2.970    -0.080    29.997     8.984
    23  16 S        3.819     0.932   108.627    17.542
    24   8 O        0.860    -0.579    25.602     6.784
    25   8 O        0.860    -0.580    25.626     6.787
    26   6 C        2.970    -0.080    29.997     8.984
    27   6 C        2.954    -0.025    28.617     8.774
    28   6 C        2.923    -0.041    29.011     8.833
    29   6 C        2.911     0.075    26.330     8.414
    30   7 N        2.797    -0.031    21.849     6.942
    31   6 C        3.101     0.038    27.016     8.517
    32   6 C        2.909    -0.051    29.261     8.870
    33   6 C        2.922    -0.038    28.936     8.821
    34   6 C        2.919    -0.042    29.039     8.837
    35   6 C        2.911    -0.039    28.973     8.826
    36   6 C        3.060    -0.019    28.418     8.742
    37   6 C        3.199     0.008    27.284     8.513
    38   6 C        3.182    -0.001    27.609     8.576
    39   6 C        3.065    -0.025    28.563     8.764
    40   6 C        2.909    -0.042    29.043     8.837
    41   6 C        2.919    -0.044    29.092     8.845
    42   6 C        2.921    -0.039    28.975     8.827
    43   6 C        2.909    -0.052    29.280     8.873
    44   6 C        3.125     0.038    26.963     8.503
    45   7 N        2.794    -0.039    21.993     6.965
    46   6 C        3.738     0.003    20.609     6.478
    47   6 C        3.752    -0.112    22.694     6.794
    48   6 C        2.925    -0.039    28.967     8.826
    49   6 C        2.957    -0.025    28.637     8.777
    50   6 C        2.957    -0.026    28.646     8.779
    51   6 C        2.923    -0.041    29.007     8.832
    52   1 H        0.925     0.052     2.301     2.372
    53   1 H        0.925     0.049     2.336     2.390
    54   1 H        0.925     0.047     2.361     2.403
    55   1 H        0.924     0.054     2.270     2.356
    56   1 H        0.924     0.055     2.255     2.348
    57   1 H        0.926     0.031     2.579     2.511
    58   1 H        0.926     0.026     2.648     2.545
    59   1 H        0.926     0.022     2.708     2.574
    60   1 H        0.926     0.023     2.693     2.566
    61   1 H        0.926     0.033     2.546     2.495
    62   1 H        0.926     0.029     2.602     2.522
    63   1 H        0.926     0.030     2.585     2.514
    64   1 H        0.926     0.032     2.563     2.503
    65   1 H        0.926     0.068     2.105     2.269
    66   1 H        0.926     0.060     2.204     2.321
    67   1 H        0.926     0.061     2.190     2.314
    68   1 H        0.926     0.067     2.122     2.278
    69   1 H        0.926     0.032     2.563     2.504
    70   1 H        0.926     0.030     2.586     2.515
    71   1 H        0.926     0.029     2.603     2.523
    72   1 H        0.926     0.033     2.547     2.496
    73   1 H        0.926     0.023     2.690     2.565
    74   1 H        0.926     0.022     2.707     2.573
    75   1 H        0.926     0.026     2.648     2.545
    76   1 H        0.926     0.031     2.579     2.511
    77   1 H        0.924     0.054     2.269     2.356
    78   1 H        0.924     0.055     2.255     2.348
    79   1 H        0.925     0.049     2.337     2.391
    80   1 H        0.925     0.051     2.301     2.372
    81   1 H        0.925     0.047     2.362     2.403
    82   1 H        0.926     0.069     2.102     2.267
    83   1 H        0.926     0.057     2.232     2.336
    84   1 H        0.926     0.059     2.216     2.328
    85   1 H        0.926     0.067     2.118     2.276

molecular dipole:
                 x           y           z       tot (Debye)
 q only:       -0.079      -3.232      -2.575
   full:       -0.073      -3.009      -2.425       9.825

 projected vibrational frequencies (cm⁻¹)
eigval :       -0.00    -0.00    -0.00    -0.00     0.00     0.00
eigval :       -1.18     6.97    10.34    24.31    28.12    31.12
eigval :       35.45    39.69    43.62    61.08    63.98    69.55
eigval :       72.91    76.96    80.72   106.23   112.43   122.22
eigval :      128.58   132.78   140.01   148.05   154.81   174.88
eigval :      175.85   182.09   186.29   202.14   206.87   224.33
eigval :      229.10   254.78   262.56   267.59   273.61   278.13
eigval :      310.37   312.80   323.35   326.22   335.62   363.22
eigval :      376.62   378.12   380.57   381.93   384.11   390.00
eigval :      406.02   406.53   409.98   414.92   416.90   436.56
eigval :      445.27   449.23   451.49   483.66   494.47   521.42
eigval :      528.05   529.14   536.19   536.69   544.26   544.67
eigval :      547.66   569.10   570.49   582.59   584.16   601.25
eigval :      601.94   624.08   625.41   646.68   647.78   659.44
eigval :      668.00   682.03   682.55   686.58   686.64   689.30
eigval :      689.71   704.91   713.32   762.10   766.92   768.17
eigval :      769.22   769.87   770.37   807.32   809.26   819.38
eigval :      824.32   857.72   858.58   861.74   863.26   866.22
eigval :      868.26   872.91   873.24   877.25   880.07   896.58
eigval :      899.34   900.77   901.40   914.33   915.42   918.55
eigval :      920.46   922.32   924.34   925.91   927.82   931.10
eigval :      933.66   970.97   972.88  1000.29  1003.36  1051.78
eigval :     1052.00  1061.77  1062.47  1065.33  1073.49  1074.06
eigval :     1074.69  1076.39  1083.96  1084.16  1110.45  1115.04
eigval :     1117.35  1119.52  1136.95  1137.25  1143.79  1144.10
eigval :     1164.92  1166.01  1173.30  1175.74  1178.64  1179.50
eigval :     1187.17  1190.42  1190.62  1202.72  1203.54  1236.14
eigval :     1236.27  1243.53  1247.64  1250.96  1251.23  1266.64
eigval :     1266.97  1272.16  1272.64  1320.94  1323.06  1324.84
eigval :     1325.81  1332.47  1333.14  1346.81  1347.21  1356.74
eigval :     1357.02  1369.81  1369.98  1395.72  1397.18  1399.81
eigval :     1400.07  1402.01  1402.09  1411.52  1412.63  1431.21
eigval :     1431.42  1442.39  1442.64  1459.86  1461.77  1470.42
eigval :     1472.55  1481.97  1482.70  1493.89  1494.30  1495.30
eigval :     1495.40  1501.61  1501.70  1538.75  1538.79  1567.86
eigval :     1569.27  1569.86  1571.39  1581.27  1581.39  1584.61
eigval :     1584.68  1602.22  1602.26  1618.86  1618.97  2965.76
eigval :     2965.92  2975.23  2975.29  3038.90  3039.19  3043.08
eigval :     3043.45  3046.23  3046.49  3068.15  3068.22  3073.48
eigval :     3073.63  3074.40  3074.65  3080.25  3080.63  3082.84
eigval :     3083.12  3089.13  3089.81  3090.24  3090.34  3096.00
eigval :     3096.00  3098.62  3099.26  3099.77  3100.40  3107.97
eigval :     3109.03  3109.13  3109.91

   temp. (K)  partition function   enthalpy   heat capacity  entropy
                                   cal/mol     cal/K/mol   cal/K/mol   J/K/mol
 298.15  VIB  0.109E+22            25172.619    155.859    160.030
         ROT  0.136E+09              888.752      2.981     40.205
         INT  0.148E+30            26061.371    158.840    200.235
         TR   0.173E+29             1481.254      4.968     45.424
         TOT                       27542.6253   163.8077   245.6591  1027.8375

       T/K    H(0)-H(T)+PV         H(T)/Eh          T*S/Eh         G(T)/Eh
   ------------------------------------------------------------------------
    298.15    0.438920E-01    0.699688E+00    0.116721E+00    0.582967E+00
   ------------------------------------------------------------------------

         :::::::::::::::::::::::::::::::::::::::::::::::::::::
         ::                  THERMODYNAMIC                  ::
         :::::::::::::::::::::::::::::::::::::::::::::::::::::
         :: total free energy        -134.195732050674 Eh   ::
         ::.................................................::
         :: total energy             -134.778699124493 Eh   ::
         :: zero point energy           0.655795652127 Eh   ::
         :: G(RRHO) w/o ZPVE           -0.072828578307 Eh   ::
         :: G(RRHO) contrib.            0.582967073819 Eh   ::
         :::::::::::::::::::::::::::::::::::::::::::::::::::::

           -------------------------------------------------
          | TOTAL ENERGY             -134.778699124493 Eh   |
          | TOTAL ENTHALPY           -134.079011505038 Eh   |
          | TOTAL FREE ENERGY        -134.195732050674 Eh   |
          | GRADIENT NORM               0.000061303353 Eh/α |
          | HOMO-LUMO GAP               2.152073605286 eV   |
           -------------------------------------------------

 * finished run on 2025/07/19 at 01:14:04.276
