   * xtb version 6.7.1 (edcfbbe) compiled by 'albert@albert-system' on 2024-07-22

   ID    Z sym.   atoms
    1    6 C      1-4, 6-17, 19, 21, 22, 24-39
    2    7 N      5, 18, 20, 23
    3    1 H      40-61

          program call               : xtb data2507/toluene/TPA-APy/TPA-APy_toluene_T1_crest.xyz --gfn 2 --uhf 2 --gbsa toluene --ohess vtight --parallel 40 --molden --ceasefiles --namespace data2507/toluene/TPA-APy/TPA-APy_toluene_T1_finalOpt
      * Solvation model:               GBSA
        Solvent                        toluene
        Solvent mass                       9.2140E+01 g/mol
          :  Hamiltonian                  GFN2-xTB          :
 * total energy  :   -97.8752214 Eh     change       -0.3085486E-07 Eh
 * total energy  :   -97.8752938 Eh     change       -0.7240049E-04 Eh
 * total energy  :   -97.8753308 Eh     change       -0.3700204E-04 Eh
 * total energy  :   -97.8753353 Eh     change       -0.4532677E-05 Eh
 * total energy  :   -97.8753366 Eh     change       -0.1246259E-05 Eh
 * total energy  :   -97.8753362 Eh     change        0.3393112E-06 Eh
 * total energy  :   -97.8753371 Eh     change       -0.8754510E-06 Eh
 * total energy  :   -97.8753374 Eh     change       -0.3181135E-06 Eh
 * total energy  :   -97.8753377 Eh     change       -0.2567839E-06 Eh
 * total energy  :   -97.8753378 Eh     change       -0.1090607E-06 Eh
 * total energy  :   -97.8753378 Eh     change        0.2464105E-08 Eh
 * total energy  :   -97.8753379 Eh     change       -0.5713403E-07 Eh
   *** GEOMETRY OPTIMIZATION CONVERGED AFTER 12 ITERATIONS ***

 final structure:
================
61
 xtb: 6.7.1 (edcfbbe)
C           -6.72268727379616        4.11753167290818        0.01226206556554
C           -7.38011243248306        3.15051439973741       -0.73165403945578
C           -6.92423076545865        1.84621322108850       -0.74281753738542
C           -5.80010541575274        1.48952532838341        0.00228543862386
N           -5.33871584184767        0.16587000127504        0.00135928739599
C           -6.25989051983304       -0.88972861608423        0.00191656628705
C           -6.00795854583633       -2.04921329342465       -0.73230538933619
C           -6.92021779223917       -3.08681280102111       -0.72762591842341
C           -8.09676671433130       -2.98418150273281       -0.00233272744566
C           -8.35389778456925       -1.83240180985848        0.72431842610453
C           -7.44433571269721       -0.79245932855499        0.73283057801012
C           -3.96980930221160       -0.09665391907471        0.00105384053251
C           -3.08473983460315        0.73494593991088       -0.69056786660512
C           -1.73170457083632        0.47752893128208       -0.68476138086844
C           -1.20819140527291       -0.62053475617670        0.00258161571976
C            0.22703964563319       -0.89157387539782        0.00185743969735
C            0.71848566030847       -2.19026240200802       -0.00757328268940
N            2.01023812175233       -2.48031220612480       -0.01123933873263
C            2.94206683964369       -1.55050364508251       -0.01054817976974
N            4.22768275791785       -1.86436239171102        0.00383087172778
C            5.13929366943997       -0.90031128483427        0.00422228441194
C            4.74805220907741        0.47257441079060       -0.01010970508697
N            3.47740569526073        0.81129525329649       -0.02837237693155
C            2.53735672435096       -0.13926589655715       -0.02327606529972
C            1.18164944314816        0.14111671599325       -0.00859202386605
C            5.94676221244052        1.29107784883847       -0.01121590025577
C            6.21797068813615        2.63739768943734       -0.02233124662851
C            7.56689083073117        3.04315511597005       -0.01821164943006
C            8.61516786939093        2.15388071167312       -0.00280834361747
C            8.36953401644115        0.76047773909339        0.00883868693239
C            9.31208791547883       -0.29683270839665        0.02414598018177
C            8.88359234740467       -1.60327151570930        0.03240197647029
C            7.52360938648724       -1.96754992787042        0.02631439920847
C            6.58089026524712       -0.96501841664250        0.01203188535347
C            7.02953641906575        0.38070551240715        0.00384031218608
C           -2.09844963374425       -1.45177161716341        0.68731579836904
C           -3.45168806766290       -1.19544689791580        0.69242966004891
C           -5.14407747210332        2.46561780320032        0.75293730664683
C           -5.60342038332889        3.76863759593765        0.75145979132980
H           -7.08021940116652        5.13614717752512        0.01648884839636
H           -8.25004980771461        3.41488635625352       -1.31479712106711
H           -7.43169040702234        1.09598273608354       -1.33134502684927
H           -5.09765856367029       -2.12641692050649       -1.30872978691896
H           -6.71440342951514       -3.97808951702902       -1.30217118435660
H           -8.80853720931530       -3.79581128967846       -0.00412013730259
H           -9.26596161759627       -1.74590861831140        1.29649226729698
H           -7.64176485195087        0.09966634626810        1.30888216339247
H           -3.47045985312091        1.57973392710114       -1.24193375748575
H           -1.06970686076511        1.11963445488386       -1.24618451766784
H            0.06192122739756       -3.04773950882662       -0.04085975962383
H            0.87753251103829        1.17533501847805        0.02780416900505
H            5.42846372657907        3.37354866921944       -0.03396152865561
H            7.77717376448222        4.10303033787292       -0.02718011129434
H            9.63324764797152        2.51488798330191        0.00019532964546
H           10.36794782721339       -0.07005218734730        0.02866352479596
H            9.61840754573230       -2.39567058659500        0.04389098576658
H            7.23834224118483       -3.00856179474808        0.03297736010873
H           -1.71731110406805       -2.29072197117535        1.25010247023194
H           -4.12017585752937       -1.83908822210695        1.24484603298190
H           -4.27897407421716        2.19278752866182        1.33951181370246
H           -5.08873352059564        4.51445112489321        1.33938373752233

          :  Hamiltonian                  GFN2-xTB          :
         :: gradient norm              0.000056680504 Eh/a0 ::
         :: HOMO-LUMO gap              0.251602120012 eV    ::
         :: SCC energy               -99.674878042587 Eh    ::
         :: -> dispersion             -0.082376841709 Eh    ::
         :: -> Gsolv                  -0.046555570468 Eh    ::
         :: repulsion energy           1.799540161046 Eh    ::

    * Orbital Energies and Occupations

         #    Occupation            Energy/Eh            Energy/eV
      -------------------------------------------------------------
         1        2.0000           -0.6842363             -18.6190
       ...           ...                  ...                  ...
        80        2.0000           -0.4241558             -11.5419
        81        2.0000           -0.4149594             -11.2916
        82        2.0000           -0.4140631             -11.2672
        83        2.0000           -0.4126532             -11.2289
        84        2.0000           -0.4110150             -11.1843
        85        2.0000           -0.4099900             -11.1564
        86        2.0000           -0.4089588             -11.1283
        87        2.0000           -0.4008797             -10.9085
        88        2.0000           -0.3981050             -10.8330
        89        2.0000           -0.3923847             -10.6773
        90        1.9296           -0.3563957              -9.6980
        91        1.0704           -0.3514914              -9.5646
        92        0.9924           -0.3075298              -8.3683 (HOMO)
        93        0.0076           -0.2982834              -8.1167 (LUMO)
        94                         -0.2535238              -6.8987
        95                         -0.2375424              -6.4639
        96                         -0.2356871              -6.4134
        97                         -0.2329512              -6.3389
        98                         -0.2291210              -6.2347
        99                         -0.2275826              -6.1928
       100                         -0.2264437              -6.1618
       101                         -0.2210142              -6.0141
       102                         -0.2002394              -5.4488
       103                         -0.1833570              -4.9894
       ...                                ...                  ...
       178                          0.7261610              19.7598
      -------------------------------------------------------------
                  HL-Gap            0.0092465 Eh            0.2516 eV

     #   Z          covCN         q      C6AA      α(0)
     1   6 C        2.919    -0.036    28.886     8.814
     2   6 C        2.919    -0.028    28.710     8.787
     3   6 C        2.922    -0.045    29.120     8.849
     4   6 C        2.924     0.064    26.566     8.452
     5   7 N        2.752    -0.062    22.439     7.035
     6   6 C        2.924     0.064    26.565     8.452
     7   6 C        2.922    -0.046    29.136     8.852
     8   6 C        2.919    -0.028    28.712     8.787
     9   6 C        2.919    -0.036    28.889     8.814
    10   6 C        2.919    -0.028    28.711     8.787
    11   6 C        2.922    -0.045    29.127     8.850
    12   6 C        2.923     0.065    26.550     8.450
    13   6 C        2.920    -0.047    29.158     8.855
    14   6 C        2.923    -0.033    28.828     8.805
    15   6 C        2.974     0.002    27.980     8.677
    16   6 C        2.967    -0.008    28.214     8.713
    17   6 C        2.891     0.043    27.037     8.525
    18   7 N        1.845    -0.240    27.133     7.720
    19   6 C        2.920     0.184    24.071     8.045
    20   7 N        1.844    -0.245    27.239     7.735
    21   6 C        3.039     0.069    26.415     8.430
    22   6 C        3.039     0.079    26.211     8.397
    23   7 N        1.840    -0.244    27.223     7.732
    24   6 C        2.950     0.084    26.128     8.384
    25   6 C        2.928    -0.065    29.615     8.925
    26   6 C        3.036    -0.008    28.195     8.709
    27   6 C        2.913    -0.021    28.523     8.758
    28   6 C        2.919    -0.029    28.720     8.788
    29   6 C        2.918    -0.028    28.704     8.786
    30   6 C        2.976     0.017    27.633     8.623
    31   6 C        2.918    -0.032    28.802     8.801
    32   6 C        2.918    -0.028    28.696     8.784
    33   6 C        2.912    -0.023    28.590     8.768
    34   6 C        3.037    -0.009    28.200     8.710
    35   6 C        3.147    -0.017    28.161     8.681
    36   6 C        2.923    -0.035    28.870     8.811
    37   6 C        2.920    -0.046    29.149     8.854
    38   6 C        2.922    -0.045    29.129     8.851
    39   6 C        2.919    -0.028    28.712     8.787
    40   1 H        0.926     0.037     2.494     2.470
    41   1 H        0.926     0.038     2.473     2.459
    42   1 H        0.926     0.037     2.494     2.470
    43   1 H        0.926     0.035     2.511     2.478
    44   1 H        0.926     0.037     2.483     2.464
    45   1 H        0.926     0.036     2.497     2.471
    46   1 H        0.926     0.038     2.476     2.461
    47   1 H        0.926     0.036     2.497     2.471
    48   1 H        0.926     0.041     2.442     2.444
    49   1 H        0.926     0.039     2.462     2.454
    50   1 H        0.926     0.050     2.315     2.379
    51   1 H        0.926     0.053     2.279     2.361
    52   1 H        0.926     0.047     2.358     2.401
    53   1 H        0.926     0.049     2.329     2.387
    54   1 H        0.926     0.051     2.308     2.376
    55   1 H        0.926     0.049     2.335     2.390
    56   1 H        0.926     0.047     2.354     2.399
    57   1 H        0.926     0.045     2.386     2.415
    58   1 H        0.926     0.038     2.480     2.463
    59   1 H        0.926     0.041     2.438     2.442
    60   1 H        0.926     0.035     2.512     2.479
    61   1 H        0.926     0.038     2.482     2.464

molecular dipole:
                 x           y           z       tot (Debye)
 q only:       -1.191       0.992       0.005
   full:       -1.280       1.169       0.008       4.406

 projected vibrational frequencies (cm⁻¹)
eigval :       -0.00    -0.00    -0.00    -0.00     0.00     0.00
eigval :      -10.56    13.55    18.80    27.67    45.36    46.63
eigval :       64.54    68.83    71.43    96.60   111.69   131.23
eigval :      144.44   150.84   153.48   178.91   201.17   213.78
eigval :      230.26   249.45   272.57   288.20   298.22   315.83
eigval :      338.45   360.17   375.26   377.78   381.14   390.76
eigval :      394.54   407.28   418.84   420.59   435.14   460.37
eigval :      463.05   476.02   485.17   491.45   506.36   534.48
eigval :      548.72   561.07   568.44   579.25   582.33   584.76
eigval :      588.69   591.61   593.04   616.23   638.60   648.75
eigval :      656.55   662.25   666.10   678.39   686.28   691.28
eigval :      723.05   727.15   756.07   759.54   771.81   779.42
eigval :      785.64   799.66   810.13   815.55   834.49   863.46
eigval :      872.39   873.01   880.61   884.67   885.62   891.71
eigval :      894.11   896.02   908.70   915.08   919.44   924.19
eigval :      925.96   926.74   928.18   929.50   929.57   931.07
eigval :      964.00   984.68  1003.43  1017.56  1045.92  1073.59
eigval :     1077.72  1080.94  1082.00  1103.57  1120.21  1120.74
eigval :     1122.95  1138.06  1142.48  1175.07  1178.21  1178.54
eigval :     1181.25  1183.19  1191.28  1193.26  1194.68  1213.23
eigval :     1224.24  1227.75  1231.18  1240.85  1269.04  1273.55
eigval :     1275.83  1278.90  1287.81  1303.32  1311.52  1314.31
eigval :     1323.48  1325.11  1326.16  1354.10  1367.14  1378.35
eigval :     1393.53  1411.78  1415.68  1417.80  1433.15  1438.16
eigval :     1440.15  1464.79  1466.64  1474.05  1478.98  1501.68
eigval :     1506.50  1518.01  1545.26  1573.16  1574.99  1576.79
eigval :     1584.05  1586.66  1593.93  1594.70  1610.14  3069.04
eigval :     3073.91  3075.30  3075.43  3075.48  3075.97  3076.78
eigval :     3080.39  3081.90  3084.52  3085.05  3085.78  3086.70
eigval :     3087.41  3088.56  3091.25  3092.86  3093.05  3094.32
eigval :     3094.96  3096.36  3096.80

   temp. (K)  partition function   enthalpy   heat capacity  entropy
                                   cal/mol     cal/K/mol   cal/K/mol   J/K/mol
 298.15  VIB  0.615E+13            16883.707    110.529    103.578
         ROT  0.597E+08              888.752      2.981     38.564
         INT  0.368E+21            17772.460    113.510    142.142
         TR   0.108E+29             1481.254      4.968     44.487
         TOT                       19253.7137   118.4784   186.6286   780.8541

       T/K    H(0)-H(T)+PV         H(T)/Eh          T*S/Eh         G(T)/Eh
   ------------------------------------------------------------------------
    298.15    0.306827E-01    0.487563E+00    0.886733E-01    0.398890E+00
   ------------------------------------------------------------------------

         :::::::::::::::::::::::::::::::::::::::::::::::::::::
         ::                  THERMODYNAMIC                  ::
         :::::::::::::::::::::::::::::::::::::::::::::::::::::
         :: total free energy         -97.476447714346 Eh   ::
         ::.................................................::
         :: total energy              -97.875337884060 Eh   ::
         :: zero point energy           0.456880694801 Eh   ::
         :: G(RRHO) w/o ZPVE           -0.057990525088 Eh   ::
         :: G(RRHO) contrib.            0.398890169714 Eh   ::
         :::::::::::::::::::::::::::::::::::::::::::::::::::::

           -------------------------------------------------
          | TOTAL ENERGY              -97.875337884060 Eh   |
          | TOTAL ENTHALPY            -97.387774443406 Eh   |
          | TOTAL FREE ENERGY         -97.476447714346 Eh   |
          | GRADIENT NORM               0.000061100703 Eh/α |
          | HOMO-LUMO GAP               0.251608729866 eV   |
           -------------------------------------------------

 * finished run on 2025/08/23 at 01:18:35.549
