   * xtb version 6.7.1 (edcfbbe) compiled by 'albert@albert-system' on 2024-07-22

   ID    Z sym.   atoms
    1    6 C      1-4, 6-17, 19, 21, 22, 24-39
    2    7 N      5, 18, 20, 23
    3    1 H      40-61

          program call               : xtb data2507/toluene/TPA-APy/TPA-APy_toluene_S0_crest.xyz --gfn 2 --gbsa toluene --ohess vtight --parallel 40 --molden --ceasefiles --namespace data2507/toluene/TPA-APy/TPA-APy_toluene_S0_finalOpt
      * Solvation model:               GBSA
        Solvent                        toluene
        Solvent mass                       9.2140E+01 g/mol
          :  Hamiltonian                  GFN2-xTB          :
 * total energy  :   -97.9200318 Eh     change       -0.2566509E-08 Eh
 * total energy  :   -97.9200666 Eh     change       -0.3480232E-04 Eh
 * total energy  :   -97.9200757 Eh     change       -0.9127456E-05 Eh
 * total energy  :   -97.9200782 Eh     change       -0.2542681E-05 Eh
 * total energy  :   -97.9200807 Eh     change       -0.2456672E-05 Eh
 * total energy  :   -97.9200831 Eh     change       -0.2370922E-05 Eh
 * total energy  :   -97.9200859 Eh     change       -0.2827164E-05 Eh
 * total energy  :   -97.9200882 Eh     change       -0.2263588E-05 Eh
 * total energy  :   -97.9200896 Eh     change       -0.1434770E-05 Eh
 * total energy  :   -97.9200907 Eh     change       -0.1145037E-05 Eh
 * total energy  :   -97.9201052 Eh     change       -0.2157734E-06 Eh
 * total energy  :   -97.9201054 Eh     change       -0.2376272E-06 Eh
 * total energy  :   -97.9201056 Eh     change       -0.2186898E-06 Eh
 * total energy  :   -97.9201058 Eh     change       -0.2183155E-06 Eh
 * total energy  :   -97.9201061 Eh     change       -0.2416731E-06 Eh
 * total energy  :   -97.9201063 Eh     change       -0.2279934E-06 Eh
 * total energy  :   -97.9201065 Eh     change       -0.1699081E-06 Eh
 * total energy  :   -97.9201066 Eh     change       -0.1127647E-06 Eh
 * total energy  :   -97.9201067 Eh     change       -0.7388182E-07 Eh
   *** GEOMETRY OPTIMIZATION CONVERGED AFTER 37 ITERATIONS ***

 final structure:
================
61
 xtb: 6.7.1 (edcfbbe)
C           -6.79651103708551        4.08314118645683        0.08351686378475
C           -5.66107080434525        3.78244315875206       -0.65167265523329
C           -5.16941724242863        2.49134116584508       -0.68393512837582
C           -5.80719641808084        1.47960065755792        0.03328280324731
N           -5.31688660065233        0.16499826348644        0.00425125358262
C           -6.22738375046700       -0.90323577137753       -0.04298083504070
C           -7.37208713179892       -0.81688630615861       -0.83395663149484
C           -8.27067868288926       -1.86612330212547       -0.87303243069947
C           -8.04016239408567       -3.01498697849958       -0.13348511436835
C           -6.90371565864539       -3.10508830061880        0.65423391086054
C           -6.00331288383561       -2.05794101679673        0.70570247553691
C           -3.94864408652049       -0.08028161808681        0.01849764326513
C           -3.07433677171806        0.76975300631526        0.70294846057653
C           -1.71862162898326        0.52769617942447        0.70537502431561
C           -1.18232225676209       -0.57886748774497        0.04382085215074
C            0.25754506362695       -0.83526270253510        0.05595700096971
C            0.75837253935627       -2.15765233000096        0.12581545299171
N            2.02082066112458       -2.48054461194591        0.14072529358008
C            2.93796703092847       -1.50121680784856        0.08553879903775
N            4.23641377510298       -1.88089130813653        0.09993820908890
C            5.10365947932782       -0.90840086942886        0.04426573986338
C            4.71785332905420        0.48957412002656       -0.03033440292321
N            3.47275446531968        0.87593217273616       -0.04118358847459
C            2.55536117433942       -0.12650720671326        0.01879674129200
C            1.18865057690098        0.18418405147190        0.00560437665314
C            5.93057080022308        1.29079367698770       -0.07952207680123
C            6.21588612690913        2.63223850290855       -0.15327503461263
C            7.56722861529184        3.02572725165569       -0.17646387592241
C            8.60627150110320        2.12621610682622       -0.12691578897699
C            8.34845385846596        0.73824311223956       -0.04992293860964
C            9.28266910949212       -0.32139191030773        0.01010923343266
C            8.85229624629112       -1.62566807045422        0.08143824938353
C            7.49009220941609       -1.98003595326658        0.10053683726628
C            6.55613637811124       -0.97439198999018        0.04501497228665
C            7.00106810559944        0.36686915808664       -0.02968015529529
C           -2.05898203052543       -1.43176730399012       -0.62970947785761
C           -3.41375734078112       -1.18482340623420       -0.65172820729443
C           -6.94850934274888        1.78735112985888        0.77288426961415
C           -7.43807542680263        3.07953118655152        0.79141924490060
H           -7.17933790494459        5.09242116663709        0.10341552415492
H           -5.15857766649007        4.55692962006779       -1.21273614196269
H           -4.29131553241296        2.25704008502974       -1.26803491281735
H           -7.54929393418894        0.07548797117514       -1.41643558906058
H           -9.15253300594684       -1.78874033970805       -1.49212872756305
H           -8.74246691245714       -3.83414447406941       -0.16930756499647
H           -6.71976476735522       -3.99410128608412        1.23976088825231
H           -5.12249640384253       -2.12590092780830        1.32762121003645
H           -3.47078016783542        1.61798954490564        1.24099808162675
H           -1.06454062915706        1.18576998910391        1.25807448697763
H            0.07108016732853       -2.99181035146541        0.19303638931216
H            0.89720729274253        1.22188354273201       -0.06662550093421
H            5.43036357782772        3.37119874548415       -0.19280403817518
H            7.78883858085863        4.08151935590719       -0.23461250891638
H            9.62803757280509        2.47591567035694       -0.14627536539149
H           10.33947758390453       -0.09840432709315       -0.00126246468526
H            9.58465373362756       -2.41866184939417        0.12557020953000
H            7.19325136038805       -3.01593321476660        0.15750749279554
H           -1.66737353471503       -2.27736146924382       -1.17546159917106
H           -4.07149920702861       -1.84393098187919       -1.19853512424123
H           -7.44560371695054        1.00789301550864        1.33175876514712
H           -8.32213926698850        3.30520711467897        1.36974263958164

          :  Hamiltonian                  GFN2-xTB          :
         :: gradient norm              0.000032100075 Eh/a0 ::
         :: HOMO-LUMO gap              1.230490882842 eV    ::
         :: SCC energy               -99.713947517551 Eh    ::
         :: -> dispersion             -0.082504664621 Eh    ::
         :: -> Gsolv                  -0.047387465430 Eh    ::
         :: repulsion energy           1.793840857007 Eh    ::

    * Orbital Energies and Occupations

         #    Occupation            Energy/Eh            Energy/eV
      -------------------------------------------------------------
         1        2.0000           -0.6850415             -18.6409
       ...           ...                  ...                  ...
        79        2.0000           -0.4263586             -11.6018
        80        2.0000           -0.4245867             -11.5536
        81        2.0000           -0.4187742             -11.3954
        82        2.0000           -0.4144678             -11.2782
        83        2.0000           -0.4139748             -11.2648
        84        2.0000           -0.4107421             -11.1769
        85        2.0000           -0.4081829             -11.1072
        86        2.0000           -0.4075495             -11.0900
        87        2.0000           -0.4025147             -10.9530
        88        2.0000           -0.3975324             -10.8174
        89        2.0000           -0.3939049             -10.7187
        90        2.0000           -0.3547909              -9.6544
        91        2.0000           -0.3529341              -9.6038 (HOMO)
        92                         -0.3077144              -8.3733 (LUMO)
        93                         -0.3025440              -8.2326
        94                         -0.2548019              -6.9335
        95                         -0.2438593              -6.6357
        96                         -0.2380103              -6.4766
        97                         -0.2334789              -6.3533
        98                         -0.2319595              -6.3119
        99                         -0.2265033              -6.1635
       100                         -0.2247101              -6.1147
       101                         -0.2229092              -6.0657
       102                         -0.2004035              -5.4533
       ...                                ...                  ...
       178                          0.7165439              19.4982
      -------------------------------------------------------------
                  HL-Gap            0.0452197 Eh            1.2305 eV

     #   Z          covCN         q      C6AA      α(0)
     1   6 C        2.919    -0.037    28.931     8.820
     2   6 C        2.919    -0.029    28.735     8.791
     3   6 C        2.922    -0.047    29.166     8.856
     4   6 C        2.924     0.064    26.568     8.453
     5   7 N        2.752    -0.071    22.619     7.064
     6   6 C        2.925     0.064    26.569     8.453
     7   6 C        2.922    -0.046    29.140     8.852
     8   6 C        2.919    -0.029    28.728     8.789
     9   6 C        2.919    -0.037    28.920     8.819
    10   6 C        2.919    -0.029    28.731     8.790
    11   6 C        2.922    -0.046    29.153     8.854
    12   6 C        2.922     0.068    26.479     8.438
    13   6 C        2.920    -0.049    29.211     8.863
    14   6 C        2.923    -0.032    28.806     8.802
    15   6 C        2.975    -0.004    28.112     8.697
    16   6 C        2.969    -0.002    28.070     8.690
    17   6 C        2.910     0.061    26.630     8.462
    18   7 N        1.842    -0.261    27.636     7.791
    19   6 C        2.978     0.171    24.325     8.090
    20   7 N        1.842    -0.263    27.676     7.796
    21   6 C        3.061     0.089    25.956     8.355
    22   6 C        3.059     0.089    25.969     8.357
    23   7 N        1.837    -0.272    27.922     7.831
    24   6 C        2.985     0.071    26.402     8.429
    25   6 C        2.930    -0.040    28.986     8.829
    26   6 C        3.026    -0.012    28.289     8.724
    27   6 C        2.912    -0.018    28.460     8.748
    28   6 C        2.918    -0.027    28.666     8.780
    29   6 C        2.918    -0.026    28.655     8.778
    30   6 C        2.976     0.019    27.589     8.616
    31   6 C        2.918    -0.026    28.660     8.779
    32   6 C        2.918    -0.026    28.650     8.777
    33   6 C        2.912    -0.017    28.442     8.745
    34   6 C        3.026    -0.012    28.277     8.722
    35   6 C        3.140    -0.008    27.975     8.656
    36   6 C        2.923    -0.033    28.832     8.805
    37   6 C        2.920    -0.049    29.206     8.862
    38   6 C        2.922    -0.046    29.151     8.854
    39   6 C        2.919    -0.029    28.730     8.790
    40   1 H        0.926     0.034     2.523     2.484
    41   1 H        0.926     0.036     2.509     2.477
    42   1 H        0.926     0.033     2.540     2.492
    43   1 H        0.926     0.034     2.527     2.486
    44   1 H        0.926     0.036     2.498     2.472
    45   1 H        0.926     0.035     2.517     2.481
    46   1 H        0.926     0.036     2.502     2.474
    47   1 H        0.926     0.033     2.537     2.491
    48   1 H        0.926     0.040     2.448     2.447
    49   1 H        0.926     0.038     2.479     2.462
    50   1 H        0.925     0.049     2.330     2.387
    51   1 H        0.926     0.054     2.273     2.358
    52   1 H        0.926     0.052     2.289     2.366
    53   1 H        0.926     0.053     2.282     2.362
    54   1 H        0.926     0.055     2.253     2.347
    55   1 H        0.926     0.056     2.251     2.346
    56   1 H        0.926     0.053     2.277     2.360
    57   1 H        0.926     0.054     2.272     2.357
    58   1 H        0.926     0.037     2.495     2.470
    59   1 H        0.926     0.040     2.452     2.449
    60   1 H        0.926     0.034     2.531     2.488
    61   1 H        0.926     0.036     2.503     2.474

molecular dipole:
                 x           y           z       tot (Debye)
 q only:        0.091       1.016      -0.055
   full:       -0.023       1.293      -0.073       3.292

 projected vibrational frequencies (cm⁻¹)
eigval :       -0.00    -0.00     0.00     0.00     0.00     0.00
eigval :       10.20    17.75    20.01    33.61    45.55    50.10
eigval :       64.87    68.13    72.71    83.91   106.96   133.64
eigval :      143.40   151.97   158.03   176.49   202.02   215.85
eigval :      232.29   256.26   280.96   293.79   305.23   315.46
eigval :      339.74   364.03   374.32   377.20   380.01   383.23
eigval :      392.97   402.77   423.11   423.42   446.79   453.70
eigval :      463.29   479.45   489.21   491.99   510.60   539.82
eigval :      562.84   572.98   574.96   582.42   584.43   590.73
eigval :      591.38   593.39   604.91   623.54   645.47   659.31
eigval :      666.29   679.02   686.67   693.59   710.92   734.72
eigval :      743.56   757.49   762.39   762.44   785.64   788.97
eigval :      808.52   813.41   815.10   849.50   864.62   874.07
eigval :      874.52   888.45   893.75   894.42   895.79   899.82
eigval :      903.66   909.16   912.75   916.40   921.03   925.18
eigval :      927.72   928.50   929.27   929.61   931.57   942.79
eigval :      971.26   986.18  1004.26  1018.18  1057.30  1074.00
eigval :     1079.15  1081.07  1082.22  1119.64  1120.49  1122.29
eigval :     1124.97  1143.35  1174.70  1178.18  1181.45  1184.26
eigval :     1186.24  1193.43  1195.31  1204.48  1213.98  1215.70
eigval :     1227.30  1228.90  1249.47  1270.67  1276.50  1278.52
eigval :     1283.84  1302.55  1305.63  1314.40  1322.20  1324.17
eigval :     1326.53  1330.44  1354.48  1362.79  1391.11  1395.72
eigval :     1409.62  1419.08  1433.34  1434.74  1440.22  1451.88
eigval :     1468.27  1471.06  1475.25  1480.44  1492.22  1537.62
eigval :     1549.06  1561.44  1576.43  1579.96  1580.44  1585.21
eigval :     1590.65  1596.42  1601.78  1606.21  1610.47  3048.39
eigval :     3073.40  3073.97  3074.45  3075.02  3077.87  3078.43
eigval :     3078.76  3080.73  3081.58  3083.49  3083.96  3085.70
eigval :     3086.74  3087.81  3089.46  3091.25  3093.72  3095.14
eigval :     3096.00  3098.48  3100.49

   temp. (K)  partition function   enthalpy   heat capacity  entropy
                                   cal/mol     cal/K/mol   cal/K/mol   J/K/mol
 298.15  VIB  0.346E+13            16709.644    109.345    102.597
         ROT  0.595E+08              888.752      2.981     38.554
         INT  0.206E+21            17598.397    112.326    141.152
         TR   0.108E+29             1481.254      4.968     44.487
         TOT                       19079.6506   117.2942   185.6386   776.7120

       T/K    H(0)-H(T)+PV         H(T)/Eh          T*S/Eh         G(T)/Eh
   ------------------------------------------------------------------------
    298.15    0.304054E-01    0.490200E+00    0.882029E-01    0.401997E+00
   ------------------------------------------------------------------------

         :::::::::::::::::::::::::::::::::::::::::::::::::::::
         ::                  THERMODYNAMIC                  ::
         :::::::::::::::::::::::::::::::::::::::::::::::::::::
         :: total free energy         -97.518109673127 Eh   ::
         ::.................................................::
         :: total energy              -97.920106654656 Eh   ::
         :: zero point energy           0.459794518758 Eh   ::
         :: G(RRHO) w/o ZPVE           -0.057797537228 Eh   ::
         :: G(RRHO) contrib.            0.401996981529 Eh   ::
         :::::::::::::::::::::::::::::::::::::::::::::::::::::

           -------------------------------------------------
          | TOTAL ENERGY              -97.920106654656 Eh   |
          | TOTAL ENTHALPY            -97.429906777340 Eh   |
          | TOTAL FREE ENERGY         -97.518109673127 Eh   |
          | GRADIENT NORM               0.000032044153 Eh/α |
          | HOMO-LUMO GAP               1.230489897598 eV   |
           -------------------------------------------------

 * finished run on 2025/08/23 at 01:15:28.131
