   * xtb version 6.7.1 (edcfbbe) compiled by 'albert@albert-system' on 2024-07-22

   ID    Z sym.   atoms
    1    6 C      1-4, 6-17, 19, 21, 22, 24-39
    2    7 N      5, 18, 20, 23
    3    1 H      40-61

          program call               : xtb data2507/toluene/TPA-APy/TPA-APy.xyz --gfn 2 --gbsa toluene --ohess vtight --parallel 40 --molden --ceasefiles --namespace data2507/toluene/TPA-APy/TPA-APy_toluene_S0_preOpt
      * Solvation model:               GBSA
        Solvent                        toluene
        Solvent mass                       9.2140E+01 g/mol
          :  Hamiltonian                  GFN2-xTB          :
 * total energy  :   -97.8988298 Eh     change       -0.6624674E-09 Eh
 * total energy  :   -97.9130713 Eh     change       -0.1424151E-01 Eh
 * total energy  :   -97.9178452 Eh     change       -0.4773937E-02 Eh
 * total energy  :   -97.9188428 Eh     change       -0.9975963E-03 Eh
 * total energy  :   -97.9194287 Eh     change       -0.5858662E-03 Eh
 * total energy  :   -97.9196289 Eh     change       -0.2002224E-03 Eh
 * total energy  :   -97.9197773 Eh     change       -0.1484406E-03 Eh
 * total energy  :   -97.9198822 Eh     change       -0.1048363E-03 Eh
 * total energy  :   -97.9199427 Eh     change       -0.6052991E-04 Eh
 * total energy  :   -97.9199742 Eh     change       -0.3145308E-04 Eh
 * total energy  :   -97.9201010 Eh     change       -0.6398183E-06 Eh
 * total energy  :   -97.9201017 Eh     change       -0.6693648E-06 Eh
 * total energy  :   -97.9201022 Eh     change       -0.5441440E-06 Eh
 * total energy  :   -97.9201025 Eh     change       -0.3311549E-06 Eh
 * total energy  :   -97.9201027 Eh     change       -0.2080119E-06 Eh
 * total energy  :   -97.9201029 Eh     change       -0.1660341E-06 Eh
 * total energy  :   -97.9201031 Eh     change       -0.1723679E-06 Eh
 * total energy  :   -97.9201032 Eh     change       -0.1555676E-06 Eh
 * total energy  :   -97.9201032 Eh     change       -0.1951236E-08 Eh
   *** GEOMETRY OPTIMIZATION CONVERGED AFTER 44 ITERATIONS ***

 final structure:
================
61
 xtb: 6.7.1 (edcfbbe)
C           -7.62262654249875        3.02990814757584        0.22545188184242
C           -6.48219067647323        3.15754192083836       -0.55126865450888
C           -5.57200921738999        2.12088622112006       -0.63358639067527
C           -5.78978751918824        0.93873027745452        0.07304574362529
N           -4.86928469776132       -0.11891860621679       -0.00393690803419
C           -5.34889944174242       -1.43634994268916       -0.07311239994059
C           -6.47932951617990       -1.73253057653374       -0.83371614824358
C           -6.95943035984252       -3.02712363917261       -0.89106056351655
C           -6.31891141190145       -4.04397430861266       -0.20132120714352
C           -5.19392823093188       -3.75475872878231        0.55426216504325
C           -4.71153408168814       -2.46162388250427        0.62478120437045
C           -3.50315514175468        0.13713360277636       -0.00782562499849
C           -2.97788123331000        1.22899055850570        0.69032184106302
C           -1.62543775379544        1.48864775417249        0.67455381129891
C           -0.74096921607904        0.66120268956090       -0.02030041842278
C            0.69590161947238        0.93375428747784       -0.02966653395703
C            1.18108442695947        2.26335569304452       -0.06611158513518
N            2.43954811005354        2.60148180774414       -0.07690289909521
C            3.36829063292882        1.63195083622957       -0.05041790986933
N            4.66206057814916        2.02732518156995       -0.05766639397155
C            5.54089602478445        1.06414545292641       -0.02861421429795
C            5.17191755580815       -0.33977431505558        0.01034649204428
N            3.93150998559627       -0.74113009458532        0.01298924238133
C            3.00208108496462        0.25151915152139       -0.01896926851086
C            1.63914709516027       -0.07557956737332       -0.00989924618113
C            6.39428200412506       -1.12725529711920        0.03943800618081
C            6.69587465868163       -2.46644949101748        0.08182113439101
C            8.05189809808031       -2.84393914405219        0.09792797768557
C            9.07999431894938       -1.93096707520529        0.07212984632579
C            8.80533256857453       -0.54478251315477        0.02833663516686
C            9.72657853558208        0.52739614491170       -0.00273685754391
C            9.28044653350725        1.82766268403363       -0.04305903255950
C            7.91404339482229        2.16577239277119       -0.05614298107820
C            6.99243362354590        1.14773101429781       -0.02743210657829
C            7.45354853830668       -0.18946856534002        0.01407705245966
C           -1.26722783364320       -0.43479862180224       -0.70706248016442
C           -2.62070073933853       -0.68905488646137       -0.71089444750946
C           -6.93900886743821        0.81445157210271        0.85246480073045
C           -7.84759675380158        1.85342023674754        0.92196982166819
H           -8.33240809514106        3.84116179993156        0.28562944697370
H           -6.30269033224197        4.06808136329756       -1.10417911287562
H           -4.68840636524857        2.21845402208068       -1.24757495136615
H           -6.97540612583348       -0.94202189124642       -1.37780133957697
H           -7.83523584241628       -3.24406538331612       -1.48505822898840
H           -6.69457080214510       -5.05490227596527       -0.25124593173064
H           -4.69250962267810       -4.54007323910847        1.10104734132244
H           -3.84127903605804       -2.23624441403970        1.22396677678383
H           -3.64117814652808        1.86854016704733        1.25338727491505
H           -1.24173141098395        2.32414940345151        1.24106505051951
H            0.48387890173782        3.09085825598161       -0.10881172342519
H            1.36032060453266       -1.11825821248396        0.03547294082307
H            5.91936529690446       -3.21564050022844        0.10252148395663
H            8.28624206888806       -3.89805471300680        0.13142480905439
H           10.10592585787767       -2.26858662096971        0.08535370861945
H           10.78601188142438        0.31715589289864        0.00604265299180
H           10.00313563661156        2.63038027957432       -0.06571069306702
H            7.60465345301518        3.19908495951679       -0.08762311473256
H           -0.60739922135210       -1.07381793047415       -1.27506989713379
H           -3.00919173998376       -1.52777647213516       -1.26926164005107
H           -7.11175062568525       -0.09924450058333        1.40231576219189
H           -8.73273248799259        1.74629163808040        1.53189500045441

          :  Hamiltonian                  GFN2-xTB          :
         :: gradient norm              0.000030552338 Eh/a0 ::
         :: HOMO-LUMO gap              1.230910634986 eV    ::
         :: SCC energy               -99.713942378006 Eh    ::
         :: -> dispersion             -0.082505241728 Eh    ::
         :: -> Gsolv                  -0.047389813111 Eh    ::
         :: repulsion energy           1.793839143734 Eh    ::

    * Orbital Energies and Occupations

         #    Occupation            Energy/Eh            Energy/eV
      -------------------------------------------------------------
         1        2.0000           -0.6850097             -18.6401
       ...           ...                  ...                  ...
        79        2.0000           -0.4263925             -11.6027
        80        2.0000           -0.4245893             -11.5537
        81        2.0000           -0.4187577             -11.3950
        82        2.0000           -0.4144151             -11.2768
        83        2.0000           -0.4139522             -11.2642
        84        2.0000           -0.4107982             -11.1784
        85        2.0000           -0.4082149             -11.1081
        86        2.0000           -0.4075799             -11.0908
        87        2.0000           -0.4024911             -10.9523
        88        2.0000           -0.3975129             -10.8169
        89        2.0000           -0.3938799             -10.7180
        90        2.0000           -0.3547956              -9.6545
        91        2.0000           -0.3529171              -9.6034 (HOMO)
        92                         -0.3076820              -8.3725 (LUMO)
        93                         -0.3025178              -8.2319
        94                         -0.2547951              -6.9333
        95                         -0.2438432              -6.6353
        96                         -0.2379791              -6.4757
        97                         -0.2335241              -6.3545
        98                         -0.2319285              -6.3111
        99                         -0.2265192              -6.1639
       100                         -0.2247403              -6.1155
       101                         -0.2228960              -6.0653
       102                         -0.2004134              -5.4535
       ...                                ...                  ...
       178                          0.7166073              19.4999
      -------------------------------------------------------------
                  HL-Gap            0.0452351 Eh            1.2309 eV

     #   Z          covCN         q      C6AA      α(0)
     1   6 C        2.919    -0.037    28.922     8.819
     2   6 C        2.919    -0.029    28.732     8.790
     3   6 C        2.922    -0.047    29.156     8.855
     4   6 C        2.925     0.064    26.570     8.453
     5   7 N        2.752    -0.071    22.617     7.063
     6   6 C        2.924     0.064    26.569     8.453
     7   6 C        2.922    -0.046    29.146     8.853
     8   6 C        2.919    -0.029    28.729     8.790
     9   6 C        2.919    -0.037    28.927     8.820
    10   6 C        2.919    -0.029    28.734     8.790
    11   6 C        2.922    -0.047    29.161     8.856
    12   6 C        2.922     0.068    26.479     8.438
    13   6 C        2.920    -0.049    29.208     8.863
    14   6 C        2.923    -0.033    28.833     8.806
    15   6 C        2.975    -0.004    28.114     8.697
    16   6 C        2.969    -0.002    28.070     8.690
    17   6 C        2.910     0.061    26.630     8.462
    18   7 N        1.842    -0.261    27.637     7.791
    19   6 C        2.978     0.171    24.325     8.090
    20   7 N        1.842    -0.263    27.677     7.797
    21   6 C        3.061     0.089    25.956     8.355
    22   6 C        3.059     0.089    25.969     8.357
    23   7 N        1.837    -0.273    27.923     7.831
    24   6 C        2.985     0.071    26.403     8.429
    25   6 C        2.929    -0.040    28.987     8.830
    26   6 C        3.026    -0.012    28.289     8.724
    27   6 C        2.912    -0.018    28.461     8.748
    28   6 C        2.918    -0.027    28.666     8.780
    29   6 C        2.918    -0.026    28.656     8.778
    30   6 C        2.976     0.019    27.589     8.616
    31   6 C        2.918    -0.026    28.660     8.779
    32   6 C        2.918    -0.026    28.651     8.778
    33   6 C        2.912    -0.017    28.442     8.745
    34   6 C        3.026    -0.012    28.277     8.722
    35   6 C        3.140    -0.008    27.976     8.656
    36   6 C        2.923    -0.032    28.806     8.802
    37   6 C        2.920    -0.049    29.214     8.863
    38   6 C        2.922    -0.046    29.143     8.853
    39   6 C        2.919    -0.029    28.728     8.789
    40   1 H        0.926     0.035     2.518     2.481
    41   1 H        0.926     0.036     2.503     2.474
    42   1 H        0.926     0.034     2.537     2.491
    43   1 H        0.926     0.034     2.530     2.487
    44   1 H        0.926     0.036     2.501     2.473
    45   1 H        0.926     0.035     2.521     2.483
    46   1 H        0.926     0.036     2.507     2.476
    47   1 H        0.926     0.033     2.538     2.491
    48   1 H        0.926     0.040     2.452     2.448
    49   1 H        0.926     0.037     2.495     2.470
    50   1 H        0.925     0.049     2.330     2.387
    51   1 H        0.926     0.054     2.274     2.358
    52   1 H        0.926     0.052     2.290     2.366
    53   1 H        0.926     0.053     2.282     2.362
    54   1 H        0.926     0.055     2.253     2.347
    55   1 H        0.926     0.056     2.251     2.346
    56   1 H        0.926     0.053     2.277     2.360
    57   1 H        0.926     0.054     2.272     2.357
    58   1 H        0.926     0.038     2.480     2.462
    59   1 H        0.926     0.040     2.450     2.448
    60   1 H        0.926     0.034     2.528     2.486
    61   1 H        0.926     0.036     2.499     2.472

molecular dipole:
                 x           y           z       tot (Debye)
 q only:        0.092      -1.023       0.032
   full:       -0.018      -1.302       0.043       3.312

 projected vibrational frequencies (cm⁻¹)
eigval :       -0.00    -0.00    -0.00    -0.00    -0.00     0.00
eigval :        8.13    14.61    20.38    38.28    48.27    52.73
eigval :       65.55    69.78    73.43    85.27   107.05   133.76
eigval :      143.37   152.16   154.90   176.68   202.48   216.68
eigval :      234.59   256.34   280.87   293.82   304.65   315.66
eigval :      339.98   363.70   374.50   379.25   380.34   383.11
eigval :      393.22   402.22   422.96   423.63   446.97   452.66
eigval :      463.77   480.00   490.43   492.93   509.79   539.92
eigval :      563.05   573.13   574.53   582.52   584.23   588.86
eigval :      591.14   593.50   604.27   622.92   645.86   661.10
eigval :      667.53   679.05   686.05   693.63   711.21   732.82
eigval :      743.77   758.53   762.54   763.04   786.52   789.03
eigval :      808.19   813.18   815.84   849.81   863.35   875.02
eigval :      876.29   888.71   894.50   895.26   896.95   900.17
eigval :      905.19   909.30   912.70   915.48   923.26   924.55
eigval :      928.46   929.61   930.44   930.67   931.27   943.03
eigval :      971.48   986.29  1004.32  1018.20  1057.47  1074.97
eigval :     1079.56  1081.29  1082.39  1120.26  1120.57  1122.47
eigval :     1125.04  1143.13  1175.27  1178.02  1180.75  1184.55
eigval :     1187.53  1193.55  1195.16  1205.83  1215.51  1218.12
eigval :     1227.58  1230.48  1249.97  1270.67  1276.59  1278.75
eigval :     1284.00  1303.98  1307.81  1314.57  1322.35  1324.53
eigval :     1326.70  1330.64  1354.69  1362.93  1391.35  1396.52
eigval :     1409.73  1419.36  1433.34  1434.73  1440.23  1451.83
eigval :     1468.24  1471.06  1475.94  1480.89  1492.25  1538.08
eigval :     1548.96  1561.63  1576.49  1579.96  1580.43  1585.21
eigval :     1590.69  1596.49  1601.88  1606.24  1610.49  3049.76
eigval :     3073.27  3073.81  3074.27  3074.74  3077.96  3078.34
eigval :     3078.88  3080.58  3081.55  3083.34  3083.85  3085.54
eigval :     3086.54  3087.99  3089.53  3091.15  3093.66  3095.07
eigval :     3095.75  3098.42  3100.35

   temp. (K)  partition function   enthalpy   heat capacity  entropy
                                   cal/mol     cal/K/mol   cal/K/mol   J/K/mol
 298.15  VIB  0.392E+13            16692.970    109.523    102.851
         ROT  0.595E+08              888.752      2.981     38.555
         INT  0.233E+21            17581.723    112.503    141.406
         TR   0.108E+29             1481.254      4.968     44.487
         TOT                       19062.9765   117.4715   185.8925   777.7744

       T/K    H(0)-H(T)+PV         H(T)/Eh          T*S/Eh         G(T)/Eh
   ------------------------------------------------------------------------
    298.15    0.303788E-01    0.490280E+00    0.883235E-01    0.401956E+00
   ------------------------------------------------------------------------

         :::::::::::::::::::::::::::::::::::::::::::::::::::::
         ::                  THERMODYNAMIC                  ::
         :::::::::::::::::::::::::::::::::::::::::::::::::::::
         :: total free energy         -97.518146922588 Eh   ::
         ::.................................................::
         :: total energy              -97.920103238909 Eh   ::
         :: zero point energy           0.459901075615 Eh   ::
         :: G(RRHO) w/o ZPVE           -0.057944759293 Eh   ::
         :: G(RRHO) contrib.            0.401956316322 Eh   ::
         :::::::::::::::::::::::::::::::::::::::::::::::::::::

           -------------------------------------------------
          | TOTAL ENERGY              -97.920103238909 Eh   |
          | TOTAL ENTHALPY            -97.429823376555 Eh   |
          | TOTAL FREE ENERGY         -97.518146922588 Eh   |
          | GRADIENT NORM               0.000030555035 Eh/α |
          | HOMO-LUMO GAP               1.230910204643 eV   |
           -------------------------------------------------

 * finished run on 2025/08/23 at 01:12:44.702
