   * xtb version 6.7.1 (edcfbbe) compiled by 'albert@albert-system' on 2024-07-22

   ID    Z sym.   atoms
    1    6 C      1-4, 6-17, 19, 21, 22, 24-39
    2    7 N      5, 18, 20, 23
    3    1 H      40-61

          program call               : xtb data2507/toluene/TPA-APy/TPA-APy_toluene_S0_finalOpt.xtbopt.xyz --gfn 2 --uhf 2 --gbsa toluene --ohess vtight --parallel 40 --molden --ceasefiles --namespace data2507/toluene/TPA-APy/TPA-APy_toluene_T1_preOpt
      * Solvation model:               GBSA
        Solvent                        toluene
        Solvent mass                       9.2140E+01 g/mol
          :  Hamiltonian                  GFN2-xTB          :
 * total energy  :   -97.8690691 Eh     change       -0.3865992E-08 Eh
 * total energy  :   -97.8731923 Eh     change       -0.4123250E-02 Eh
 * total energy  :   -97.8750320 Eh     change       -0.1839682E-02 Eh
 * total energy  :   -97.8752363 Eh     change       -0.2043417E-03 Eh
 * total energy  :   -97.8753190 Eh     change       -0.8264294E-04 Eh
 * total energy  :   -97.8753237 Eh     change       -0.4676736E-05 Eh
 * total energy  :   -97.8753256 Eh     change       -0.1945793E-05 Eh
 * total energy  :   -97.8753278 Eh     change       -0.2214158E-05 Eh
 * total energy  :   -97.8753294 Eh     change       -0.1603854E-05 Eh
 * total energy  :   -97.8753312 Eh     change       -0.1721691E-05 Eh
 * total energy  :   -97.8753338 Eh     change       -0.8783844E-06 Eh
 * total energy  :   -97.8753346 Eh     change       -0.7555266E-06 Eh
 * total energy  :   -97.8753352 Eh     change       -0.5669877E-06 Eh
 * total energy  :   -97.8753356 Eh     change       -0.4807327E-06 Eh
 * total energy  :   -97.8753361 Eh     change       -0.4982565E-06 Eh
 * total energy  :   -97.8753366 Eh     change       -0.4627091E-06 Eh
 * total energy  :   -97.8753370 Eh     change       -0.3580810E-06 Eh
 * total energy  :   -97.8753372 Eh     change       -0.2851819E-06 Eh
 * total energy  :   -97.8753373 Eh     change       -0.1326521E-07 Eh
   *** GEOMETRY OPTIMIZATION CONVERGED AFTER 22 ITERATIONS ***

 final structure:
================
61
 xtb: 6.7.1 (edcfbbe)
C           -6.78245297560618        4.09479028261102        0.07047399291458
C           -5.64022525659060        3.78445807315636       -0.65058225198104
C           -5.15918506772521        2.48953900995773       -0.67724664235687
C           -5.81553241226470        1.48238947033446        0.03106985533458
N           -5.33606358037133        0.16584095088618        0.00830694644189
C           -6.24809237740599       -0.89888601810498       -0.03205173908202
C           -7.40372472204036       -0.80762861015822       -0.80780871701437
C           -8.30088676021924       -1.85782350067562       -0.84392184347831
C           -8.05943328981374       -3.01237014921990       -0.11631513243275
C           -6.91291555522885       -3.10729709833768        0.65655748211767
C           -6.01280442904017       -2.06008374869064        0.70441467583034
C           -3.96647571032376       -0.08833361706448        0.01680233537112
C           -3.08690627407389        0.74640154748946        0.71218891768505
C           -1.73263847054633        0.49414919250827        0.71110964642852
C           -1.20374144662129       -0.60479737069735        0.03012994898405
C            0.23183413468156       -0.87547727189733        0.03910386861777
C            0.71990242506177       -2.17388191621547        0.09705279561981
N            2.01129872871791       -2.46583343283022        0.11531682161790
C            2.94432423646953       -1.53819832854783        0.07796624267469
N            4.22958082742516       -1.85488581409639        0.08508701961083
C            5.14306868912845       -0.89393728354615        0.03898190276951
C            4.75491814240316        0.47834303499671       -0.02375233286094
N            3.48473319184338        0.82032231032530       -0.02153640475615
C            2.54267439905379       -0.12695577207709        0.02521825473790
C            1.18713878317894        0.15546402471548        0.00543591974408
C            5.95541995409390        1.29295809620900       -0.06731194040425
C            6.22980084583399        2.63703165890839       -0.13502691934074
C            7.57970713788712        3.03895451836954       -0.15744362187487
C            8.62598255208670        2.14831045207244       -0.11316508804842
C            8.37716355685716        0.75719879724161       -0.04260859671702
C            9.31732913444227       -0.30092212734721        0.01186898640945
C            8.88587305568616       -1.60482397350285        0.07653723127593
C            7.52499290005826       -1.96546050738736        0.09382190589292
C            6.58464871737176       -0.96192596329207        0.04317410217648
C            7.03627063542944        0.38109312359533       -0.02369857600526
C           -2.08777357923109       -1.44094847553321       -0.65594762322403
C           -3.44112000018493       -1.18655157759896       -0.67072044691645
C           -6.96366535190130        1.80033993803259        0.75728138775063
C           -7.44146753621209        3.09666030888103        0.77057911857157
H           -7.15652953181414        5.10732649826533        0.08605160778359
H           -5.12424847356055        4.55471525737136       -1.20496450898190
H           -4.27689049708531        2.24760650653329       -1.25157526406562
H           -7.58806201923574        0.08767133944443       -1.38330906148553
H           -9.19004058355288       -1.77735464186862       -1.45189194741015
H           -8.76096796536794       -3.83215695702376       -0.15002067371339
H           -6.72074891238611       -4.00053037397048        1.23273013884970
H           -5.12462301887673       -2.13133430116907        1.31515409691912
H           -3.47722123071298        1.58972536953080        1.26246403829424
H           -1.07353257034847        1.14028968286923        1.27157853282574
H            0.06055695934050       -3.02752583152575        0.16080812609694
H            0.88299055048753        1.18752236407521       -0.07192049090943
H            5.44206310304138        3.37430651721342       -0.17086689074417
H            7.79240745194494        4.09702594194317       -0.21114311912268
H            9.64490843342212        2.50641638006816       -0.13206410092639
H           10.37372429176628       -0.07678782032325        0.00173268834224
H            9.61883097940813       -2.39801016023581        0.11669204988572
H            7.23728519868101       -3.00455007353948        0.14516761873107
H           -1.70073147149630       -2.28141795594558       -1.21255386075618
H           -4.10425837952003       -1.83229657400016       -1.22698567586558
H           -7.47287170197747        1.02599305766602        1.31213581567056
H           -8.32998036652495        3.33022164692448        1.33866578712494

          :  Hamiltonian                  GFN2-xTB          :
         :: gradient norm              0.000069445360 Eh/a0 ::
         :: HOMO-LUMO gap              0.249885873082 eV    ::
         :: SCC energy               -99.674841821025 Eh    ::
         :: -> dispersion             -0.082377031303 Eh    ::
         :: -> Gsolv                  -0.046623921285 Eh    ::
         :: repulsion energy           1.799504558311 Eh    ::

    * Orbital Energies and Occupations

         #    Occupation            Energy/Eh            Energy/eV
      -------------------------------------------------------------
         1        2.0000           -0.6841428             -18.6165
       ...           ...                  ...                  ...
        80        2.0000           -0.4240106             -11.5379
        81        2.0000           -0.4148242             -11.2879
        82        2.0000           -0.4140057             -11.2657
        83        2.0000           -0.4128157             -11.2333
        84        2.0000           -0.4110519             -11.1853
        85        2.0000           -0.4100486             -11.1580
        86        2.0000           -0.4090252             -11.1301
        87        2.0000           -0.4007922             -10.9061
        88        2.0000           -0.3981795             -10.8350
        89        2.0000           -0.3924394             -10.6788
        90        1.9328           -0.3564201              -9.6987
        91        1.0672           -0.3514220              -9.5627
        92        0.9921           -0.3074062              -8.3649 (HOMO)
        93        0.0079           -0.2982231              -8.1151 (LUMO)
        94                         -0.2528592              -6.8806
        95                         -0.2375122              -6.4630
        96                         -0.2358165              -6.4169
        97                         -0.2329206              -6.3381
        98                         -0.2291190              -6.2346
        99                         -0.2275845              -6.1929
       100                         -0.2265760              -6.1654
       101                         -0.2213296              -6.0227
       102                         -0.2002416              -5.4489
       103                         -0.1833269              -4.9886
       ...                                ...                  ...
       178                          0.7261793              19.7603
      -------------------------------------------------------------
                  HL-Gap            0.0091832 Eh            0.2499 eV

     #   Z          covCN         q      C6AA      α(0)
     1   6 C        2.919    -0.036    28.890     8.814
     2   6 C        2.919    -0.029    28.714     8.787
     3   6 C        2.922    -0.046    29.135     8.852
     4   6 C        2.924     0.064    26.566     8.452
     5   7 N        2.752    -0.062    22.437     7.035
     6   6 C        2.925     0.064    26.567     8.453
     7   6 C        2.922    -0.045    29.113     8.848
     8   6 C        2.919    -0.028    28.708     8.786
     9   6 C        2.919    -0.035    28.880     8.813
    10   6 C        2.919    -0.028    28.710     8.787
    11   6 C        2.922    -0.045    29.122     8.850
    12   6 C        2.923     0.065    26.547     8.449
    13   6 C        2.920    -0.047    29.167     8.856
    14   6 C        2.923    -0.033    28.826     8.805
    15   6 C        2.975     0.002    27.986     8.678
    16   6 C        2.967    -0.008    28.210     8.712
    17   6 C        2.891     0.043    27.043     8.526
    18   7 N        1.845    -0.241    27.133     7.720
    19   6 C        2.920     0.184    24.071     8.045
    20   7 N        1.844    -0.245    27.244     7.736
    21   6 C        3.039     0.069    26.411     8.429
    22   6 C        3.039     0.078    26.215     8.398
    23   7 N        1.840    -0.244    27.226     7.733
    24   6 C        2.950     0.084    26.126     8.383
    25   6 C        2.928    -0.065    29.612     8.924
    26   6 C        3.036    -0.008    28.195     8.709
    27   6 C        2.913    -0.021    28.525     8.758
    28   6 C        2.919    -0.029    28.720     8.788
    29   6 C        2.918    -0.028    28.705     8.786
    30   6 C        2.976     0.017    27.634     8.623
    31   6 C        2.918    -0.032    28.801     8.800
    32   6 C        2.918    -0.028    28.696     8.784
    33   6 C        2.912    -0.023    28.589     8.768
    34   6 C        3.037    -0.009    28.200     8.710
    35   6 C        3.147    -0.017    28.161     8.681
    36   6 C        2.923    -0.035    28.868     8.811
    37   6 C        2.920    -0.047    29.160     8.855
    38   6 C        2.922    -0.045    29.125     8.850
    39   6 C        2.919    -0.028    28.710     8.787
    40   1 H        0.926     0.036     2.497     2.471
    41   1 H        0.926     0.037     2.484     2.465
    42   1 H        0.926     0.036     2.509     2.477
    43   1 H        0.926     0.037     2.494     2.470
    44   1 H        0.926     0.038     2.471     2.458
    45   1 H        0.926     0.037     2.490     2.468
    46   1 H        0.926     0.038     2.477     2.461
    47   1 H        0.926     0.036     2.506     2.475
    48   1 H        0.926     0.041     2.439     2.442
    49   1 H        0.926     0.039     2.467     2.456
    50   1 H        0.926     0.050     2.318     2.381
    51   1 H        0.926     0.053     2.282     2.362
    52   1 H        0.926     0.047     2.359     2.402
    53   1 H        0.926     0.049     2.330     2.387
    54   1 H        0.926     0.051     2.308     2.376
    55   1 H        0.926     0.049     2.335     2.389
    56   1 H        0.926     0.047     2.354     2.399
    57   1 H        0.926     0.045     2.385     2.415
    58   1 H        0.926     0.037     2.485     2.465
    59   1 H        0.926     0.041     2.441     2.443
    60   1 H        0.926     0.036     2.498     2.472
    61   1 H        0.926     0.038     2.476     2.460

molecular dipole:
                 x           y           z       tot (Debye)
 q only:       -1.225       0.963      -0.045
   full:       -1.312       1.141      -0.057       4.422

 projected vibrational frequencies (cm⁻¹)
eigval :       -0.00    -0.00     0.00     0.00     0.00     0.00
eigval :       10.58    17.08    19.61    32.91    45.79    49.54
eigval :       64.47    68.05    72.52    87.59   106.20   131.29
eigval :      144.53   152.93   155.74   177.18   200.45   213.72
eigval :      231.74   250.35   272.48   288.40   298.78   315.76
eigval :      337.92   360.49   376.33   378.31   381.79   391.02
eigval :      395.73   408.38   419.33   421.36   434.52   461.16
eigval :      464.25   477.17   486.62   493.09   508.03   534.53
eigval :      549.02   561.12   569.84   579.91   582.74   585.20
eigval :      588.82   592.86   593.60   617.03   638.63   648.80
eigval :      658.64   663.85   665.76   677.97   686.23   691.53
eigval :      724.63   727.20   757.60   761.03   770.69   779.20
eigval :      785.61   799.45   808.70   815.66   833.02   863.75
eigval :      872.77   874.08   880.60   882.86   885.80   891.55
eigval :      895.41   897.43   908.91   915.31   917.27   923.80
eigval :      924.48   928.33   929.57   930.06   930.79   931.56
eigval :      964.02   985.00  1003.58  1017.50  1046.12  1073.96
eigval :     1078.29  1080.77  1081.92  1103.70  1120.77  1120.94
eigval :     1122.83  1136.44  1142.25  1173.89  1178.01  1178.99
eigval :     1181.04  1182.94  1191.06  1193.18  1194.37  1212.73
eigval :     1223.72  1226.85  1231.68  1240.80  1268.45  1272.42
eigval :     1275.84  1278.86  1286.90  1302.96  1311.98  1314.05
eigval :     1323.33  1325.13  1326.41  1354.15  1367.30  1378.45
eigval :     1393.60  1411.75  1415.62  1417.56  1433.29  1438.19
eigval :     1440.06  1464.85  1466.83  1474.01  1479.62  1501.69
eigval :     1506.52  1517.99  1545.36  1573.32  1575.11  1576.97
eigval :     1584.16  1586.89  1594.20  1594.88  1610.38  3068.83
eigval :     3073.87  3075.28  3075.31  3075.83  3076.25  3076.80
eigval :     3079.94  3081.54  3084.45  3085.17  3085.81  3086.65
eigval :     3087.44  3088.47  3090.90  3092.12  3093.05  3093.77
eigval :     3094.99  3096.32  3097.09

   temp. (K)  partition function   enthalpy   heat capacity  entropy
                                   cal/mol     cal/K/mol   cal/K/mol   J/K/mol
 298.15  VIB  0.411E+13            16867.569    110.596    103.395
         ROT  0.598E+08              888.752      2.981     38.565
         INT  0.246E+21            17756.322    113.577    141.960
         TR   0.108E+29             1481.254      4.968     44.487
         TOT                       19237.5756   118.5455   186.4469   780.0939

       T/K    H(0)-H(T)+PV         H(T)/Eh          T*S/Eh         G(T)/Eh
   ------------------------------------------------------------------------
    298.15    0.306570E-01    0.487595E+00    0.885869E-01    0.399008E+00
   ------------------------------------------------------------------------

         :::::::::::::::::::::::::::::::::::::::::::::::::::::
         ::                  THERMODYNAMIC                  ::
         :::::::::::::::::::::::::::::::::::::::::::::::::::::
         :: total free energy         -97.476329070773 Eh   ::
         ::.................................................::
         :: total energy              -97.875337256294 Eh   ::
         :: zero point energy           0.456938105773 Eh   ::
         :: G(RRHO) w/o ZPVE           -0.057929920253 Eh   ::
         :: G(RRHO) contrib.            0.399008185521 Eh   ::
         :::::::::::::::::::::::::::::::::::::::::::::::::::::

           -------------------------------------------------
          | TOTAL ENERGY              -97.875337256294 Eh   |
          | TOTAL ENTHALPY            -97.387742122432 Eh   |
          | TOTAL FREE ENERGY         -97.476329070773 Eh   |
          | GRADIENT NORM               0.000069211983 Eh/α |
          | HOMO-LUMO GAP               0.249886270777 eV   |
           -------------------------------------------------

 * finished run on 2025/08/23 at 01:15:31.569
