   * xtb version 6.7.1 (edcfbbe) compiled by 'albert@albert-system' on 2024-07-22

   ID    Z sym.   atoms
    1    6 C      1-6, 8-11, 13-21, 23-51
    2    5 B      7
    3    7 N      12, 22
    4    1 H      52-92

          program call               : xtb data2507/gas/CCDMB/CCDMB_gas_S0_crest.xyz --gfn 2 --ohess vtight --parallel 40 --molden --ceasefiles --namespace data2507/gas/CCDMB/CCDMB_gas_S0_finalOpt
          :  Hamiltonian                  GFN2-xTB          :
 * total energy  :  -130.8593852 Eh     change       -0.2741899E-08 Eh
 * total energy  :  -130.8593862 Eh     change       -0.9286012E-06 Eh
 * total energy  :  -130.8593873 Eh     change       -0.1166122E-05 Eh
 * total energy  :  -130.8593899 Eh     change       -0.2624927E-05 Eh
 * total energy  :  -130.8593916 Eh     change       -0.1625521E-05 Eh
 * total energy  :  -130.8593935 Eh     change       -0.1962822E-05 Eh
 * total energy  :  -130.8593967 Eh     change       -0.3205050E-05 Eh
 * total energy  :  -130.8593992 Eh     change       -0.2504686E-05 Eh
 * total energy  :  -130.8594004 Eh     change       -0.1137972E-05 Eh
 * total energy  :  -130.8594014 Eh     change       -0.9939140E-06 Eh
 * total energy  :  -130.8594208 Eh     change       -0.2729806E-06 Eh
 * total energy  :  -130.8594211 Eh     change       -0.2574394E-06 Eh
 * total energy  :  -130.8594213 Eh     change       -0.2402454E-06 Eh
 * total energy  :  -130.8594216 Eh     change       -0.2594578E-06 Eh
 * total energy  :  -130.8594219 Eh     change       -0.3186152E-06 Eh
 * total energy  :  -130.8594223 Eh     change       -0.3679802E-06 Eh
 * total energy  :  -130.8594226 Eh     change       -0.3624669E-06 Eh
 * total energy  :  -130.8594230 Eh     change       -0.3158771E-06 Eh
 * total energy  :  -130.8594230 Eh     change       -0.2885315E-08 Eh
   *** GEOMETRY OPTIMIZATION CONVERGED AFTER 44 ITERATIONS ***

 final structure:
================
92
 xtb: 6.7.1 (edcfbbe)
C           -8.87087902939021       -2.96936430865146        2.08431757578448
C           -7.79208150015927       -2.09712892122341        1.51805154949668
C           -7.54736034734116       -0.84117157436538        2.05949155297502
C           -6.56242304919650       -0.01207631023167        1.55271897993454
C           -6.33697202911194        1.32681613629359        2.19256298437811
C           -5.76400086892457       -0.43024359854007        0.47189162416453
B           -4.59931091805729        0.47640971186483       -0.05853313534102
C           -3.15241031142792       -0.11740927471381       -0.09190745126966
C           -2.77824197338940       -1.17378718857596        0.74694398664139
C           -1.50055136379242       -1.69302478396997        0.73508570465787
C           -0.55007441898616       -1.18027457385898       -0.14398930740789
N            0.74781071947574       -1.70796363377816       -0.16707669856794
C            1.07554086437129       -3.04524196701751       -0.26676094313250
C            0.24804410952332       -4.14886823995326       -0.41874185863003
C            0.84363433126412       -5.39067139734128       -0.52579538234498
C            2.22874256430373       -5.53994942476552       -0.49256397100215
C            3.05797133171404       -4.44405431045280       -0.36486283045407
C            2.48244651060135       -3.18495496970979       -0.25485579956909
C            3.02151512917591       -1.85991204021459       -0.13377057751020
C            4.31362289831410       -1.36608571124995       -0.03826154137729
C            4.49158432738388        0.00301644693328        0.09425688707592
N            5.78914924062245        0.53484252614061        0.18101428175997
C            6.25080040877818        1.38467234714760        1.16379838193923
C            5.59864920889249        1.87433964505839        2.28682076889199
C            6.30790296522813        2.70301776374262        3.13437177978228
C            7.63735644562988        3.03611213820583        2.88269633328300
C            8.29810534913108        2.53478985520163        1.77934846640779
C            7.60677322903345        1.69901110322252        0.91207783805126
C            7.97075068745543        0.99887948251757       -0.28715675309606
C            9.14045679933396        0.91957124036702       -1.03160870598975
C            9.14575420742163        0.14679419475201       -2.17530503032352
C            8.00054442958012       -0.53210818367810       -2.58702778121290
C            6.82529535917623       -0.46934667794347       -1.86390322398156
C            6.81938147564419        0.28997214071357       -0.70225129747705
C            3.39005118348305        0.86555295109399        0.14992575349386
C            2.09819758618490        0.38768097895672        0.07210727206594
C            1.91560618539894       -0.97893936843429       -0.08827428604982
C           -0.90005990933976       -0.13768882343220       -0.99825666135170
C           -2.17558852052104        0.38564648850460       -0.95920669751822
C           -4.81321819782686        1.94894499574977       -0.55386976191368
C           -4.07643258502735        3.01616515050574       -0.02252944035910
C           -3.11424645182867        2.83300416143563        1.11839514684556
C           -4.24363687875355        4.30466945076890       -0.51383793033757
C           -5.12932300651301        4.57836455917496       -1.54070683317443
C           -5.31022144314609        5.96761774032558       -2.07212995960367
C           -5.86529359723406        3.52331474213933       -2.06554444718139
C           -5.72567916696404        2.23251958489663       -1.58716106802075
C           -6.53822919509820        1.13425327231539       -2.20876849854610
C           -6.01618902758628       -1.69546813326897       -0.07514447176961
C           -5.25723845745370       -2.21667398199005       -1.26392133743592
C           -7.01861552010831       -2.50392725979398        0.44570120793724
H           -8.69276424342772       -3.15509099377320        3.14298524471619
H           -9.84040352396528       -2.48052313506446        1.99215051749893
H           -8.91312315445066       -3.92398906794199        1.56570237922556
H           -8.14508498454271       -0.50525499716623        2.89608357643222
H           -6.41129738256066        2.12114448442376        1.45291722736825
H           -7.07055108095165        1.50705505246442        2.97505790495491
H           -5.34308235374478        1.37772035823892        2.63437337898504
H           -3.50814300393615       -1.57996609987814        1.43274441452805
H           -1.22383169020283       -2.48862803673543        1.41143545209898
H           -0.82518128355067       -4.04153522846768       -0.46333988811708
H            0.22148439236342       -6.26583090978399       -0.64187706522381
H            2.65476192568589       -6.52842793269649       -0.57753470083904
H            4.13150194001785       -4.55711781134444       -0.35493889576942
H            5.16428858122123       -2.02990435544167       -0.05029121865818
H            4.57384584257026        1.60802223103305        2.49830820770894
H            5.82210952908924        3.09897684957866        4.01427865862756
H            8.15628963219721        3.68928996826651        3.56859646067581
H            9.33260006419485        2.78103296457945        1.59232140647010
H           10.02404172422643        1.45608658989289       -0.71976623297913
H           10.04578688593334        0.06993004152886       -2.76727665774699
H            8.03197873923382       -1.11844187586041       -3.49376568779796
H            5.93817462618687       -0.98665117625318       -2.19767953207091
H            3.56534470300652        1.92612192641193        0.24928828874637
H            1.25758642318850        1.06140630352450        0.13724046439023
H           -0.16932954995075        0.24614135812421       -1.69523950068317
H           -2.43583459248586        1.19576199126515       -1.62561166759863
H           -3.12846756080449        1.81723143462071        1.50064577153574
H           -2.09988192721574        3.06542488439432        0.79387118350847
H           -3.36555235369441        3.51576818417611        1.92975828432433
H           -3.66550949071325        5.10900953151478       -0.07896125751321
H           -6.32009930216883        6.32202024438590       -1.86600972898470
H           -5.16702092374977        5.98445198869610       -3.15178484313674
H           -4.60284567441949        6.65523376637764       -1.61509239281610
H           -6.56570651970443        3.71952152493181       -2.86611245267770
H           -7.10876881994786        0.60402795125649       -1.44932120998103
H           -7.22766804610773        1.53738071799536       -2.94707243713806
H           -5.89061184457416        0.41091222707385       -2.70177015751963
H           -4.69805689069595       -3.11099247016253       -0.98875130057647
H           -4.56011186447608       -1.48113721693446       -1.65270360554464
H           -5.95221571376374       -2.49308497199281       -2.05659873944869
H           -7.19444182554617       -3.47270246465569       -0.00249193248890

          :  Hamiltonian                  GFN2-xTB          :
         :: gradient norm              0.000040226827 Eh/a0 ::
         :: HOMO-LUMO gap              2.113077462177 eV    ::
         :: SCC energy              -133.280043541506 Eh    ::
         :: -> dispersion             -0.124277282005 Eh    ::
         :: repulsion energy           2.420620577590 Eh    ::

    * Orbital Energies and Occupations

         #    Occupation            Energy/Eh            Energy/eV
      -------------------------------------------------------------
         1        2.0000           -0.6801241             -18.5071
       ...           ...                  ...                  ...
       111        2.0000           -0.4087063             -11.1215
       112        2.0000           -0.4080062             -11.1024
       113        2.0000           -0.4014891             -10.9251
       114        2.0000           -0.3981044             -10.8330
       115        2.0000           -0.3938231             -10.7165
       116        2.0000           -0.3835004             -10.4356
       117        2.0000           -0.3814990             -10.3811
       118        2.0000           -0.3805307             -10.3548
       119        2.0000           -0.3750552             -10.2058
       120        2.0000           -0.3713718             -10.1055
       121        2.0000           -0.3697167             -10.0605
       122        2.0000           -0.3688832             -10.0378
       123        2.0000           -0.3519273              -9.5764 (HOMO)
       124                         -0.2742730              -7.4633 (LUMO)
       125                         -0.2494602              -6.7882
       126                         -0.2384813              -6.4894
       127                         -0.2287511              -6.2246
       128                         -0.2276042              -6.1934
       129                         -0.2214686              -6.0265
       130                         -0.2146800              -5.8417
       131                         -0.2115255              -5.7559
       132                         -0.2080230              -5.6606
       133                         -0.2070946              -5.6353
       134                         -0.2006050              -5.4587
       ...                                ...                  ...
       245                          0.7535491              20.5051
      -------------------------------------------------------------
                  HL-Gap            0.0776542 Eh            2.1131 eV

     #   Z          covCN         q      C6AA      α(0)
     1   6 C        3.758    -0.107    22.597     6.777
     2   6 C        2.963     0.013    27.723     8.636
     3   6 C        2.929    -0.057    29.406     8.893
     4   6 C        2.967     0.011    27.762     8.643
     5   6 C        3.759    -0.113    22.707     6.794
     6   6 C        2.889    -0.085    30.121     8.998
     7   5 B        2.710     0.247    17.752     7.065
     8   6 C        2.884    -0.065    29.609     8.921
     9   6 C        2.924    -0.027    28.679     8.782
    10   6 C        2.917    -0.045    29.107     8.847
    11   6 C        2.914     0.065    26.553     8.450
    12   7 N        2.803    -0.041    22.036     6.972
    13   6 C        3.078     0.048    26.850     8.495
    14   6 C        2.910    -0.050    29.241     8.867
    15   6 C        2.924    -0.033    28.813     8.803
    16   6 C        2.920    -0.040    28.999     8.831
    17   6 C        2.912    -0.032    28.801     8.800
    18   6 C        3.068    -0.017    28.359     8.732
    19   6 C        3.069    -0.016    28.340     8.729
    20   6 C        2.915    -0.047    29.158     8.855
    21   6 C        2.913     0.053    26.816     8.491
    22   7 N        2.804    -0.044    22.091     6.981
    23   6 C        3.078     0.046    26.876     8.499
    24   6 C        2.910    -0.051    29.279     8.873
    25   6 C        2.924    -0.034    28.854     8.809
    26   6 C        2.920    -0.042    29.044     8.838
    27   6 C        2.912    -0.033    28.832     8.805
    28   6 C        3.069    -0.018    28.389     8.737
    29   6 C        3.069    -0.018    28.390     8.737
    30   6 C        2.912    -0.033    28.832     8.805
    31   6 C        2.920    -0.042    29.043     8.838
    32   6 C        2.924    -0.034    28.850     8.808
    33   6 C        2.910    -0.051    29.274     8.872
    34   6 C        3.079     0.046    26.874     8.499
    35   6 C        2.926    -0.047    29.159     8.855
    36   6 C        2.909    -0.050    29.244     8.867
    37   6 C        3.077     0.044    26.929     8.508
    38   6 C        2.917    -0.045    29.115     8.848
    39   6 C        2.924    -0.027    28.678     8.782
    40   6 C        2.889    -0.085    30.121     8.998
    41   6 C        2.967     0.011    27.766     8.643
    42   6 C        3.759    -0.109    22.636     6.783
    43   6 C        2.930    -0.057    29.414     8.894
    44   6 C        2.963     0.013    27.720     8.636
    45   6 C        3.758    -0.107    22.598     6.778
    46   6 C        2.929    -0.057    29.406     8.893
    47   6 C        2.967     0.011    27.760     8.642
    48   6 C        3.759    -0.113    22.709     6.794
    49   6 C        2.967     0.011    27.767     8.643
    50   6 C        3.759    -0.109    22.637     6.783
    51   6 C        2.930    -0.057    29.414     8.894
    52   1 H        0.925     0.042     2.418     2.432
    53   1 H        0.925     0.043     2.412     2.429
    54   1 H        0.925     0.038     2.479     2.462
    55   1 H        0.925     0.024     2.679     2.559
    56   1 H        0.925     0.049     2.331     2.388
    57   1 H        0.925     0.037     2.487     2.466
    58   1 H        0.925     0.039     2.459     2.452
    59   1 H        0.926     0.035     2.516     2.480
    60   1 H        0.926     0.035     2.510     2.477
    61   1 H        0.926     0.029     2.595     2.519
    62   1 H        0.926     0.030     2.580     2.512
    63   1 H        0.926     0.030     2.592     2.517
    64   1 H        0.926     0.033     2.551     2.498
    65   1 H        0.926     0.041     2.429     2.437
    66   1 H        0.926     0.026     2.649     2.545
    67   1 H        0.926     0.026     2.637     2.539
    68   1 H        0.926     0.026     2.649     2.545
    69   1 H        0.926     0.029     2.601     2.522
    70   1 H        0.926     0.029     2.602     2.522
    71   1 H        0.926     0.026     2.648     2.545
    72   1 H        0.926     0.027     2.631     2.537
    73   1 H        0.926     0.026     2.640     2.541
    74   1 H        0.926     0.040     2.446     2.446
    75   1 H        0.926     0.034     2.527     2.486
    76   1 H        0.926     0.035     2.517     2.481
    77   1 H        0.926     0.035     2.516     2.481
    78   1 H        0.925     0.036     2.497     2.471
    79   1 H        0.925     0.040     2.452     2.449
    80   1 H        0.925     0.041     2.434     2.440
    81   1 H        0.925     0.023     2.685     2.562
    82   1 H        0.925     0.043     2.408     2.426
    83   1 H        0.925     0.042     2.420     2.433
    84   1 H        0.925     0.038     2.477     2.461
    85   1 H        0.925     0.024     2.678     2.559
    86   1 H        0.925     0.049     2.330     2.387
    87   1 H        0.925     0.037     2.488     2.466
    88   1 H        0.925     0.039     2.457     2.451
    89   1 H        0.925     0.040     2.451     2.448
    90   1 H        0.925     0.037     2.495     2.470
    91   1 H        0.925     0.041     2.435     2.441
    92   1 H        0.925     0.023     2.688     2.564

molecular dipole:
                 x           y           z       tot (Debye)
 q only:       -1.323      -0.097      -0.047
   full:       -1.370      -0.126      -0.049       3.500

 projected vibrational frequencies (cm⁻¹)
eigval :       -0.00    -0.00    -0.00    -0.00     0.00     0.00
eigval :        7.96    10.70    13.20    17.24    18.62    23.65
eigval :       24.47    26.52    30.04    30.84    36.58    48.57
eigval :       51.87    58.52    68.49    81.46    98.99   102.72
eigval :      105.30   108.16   124.58   129.54   133.08   136.14
eigval :      142.30   146.64   155.71   162.27   180.03   183.49
eigval :      189.13   200.40   207.45   210.23   225.54   250.63
eigval :      267.63   272.42   273.83   274.50   278.12   303.52
eigval :      308.07   318.43   324.49   333.62   339.47   375.66
eigval :      381.93   392.83   396.65   399.01   413.44   422.94
eigval :      430.13   435.52   453.61   463.33   478.64   486.34
eigval :      491.02   498.32   498.81   505.27   510.16   518.17
eigval :      523.64   529.26   534.49   537.14   541.18   543.30
eigval :      557.19   561.36   585.72   588.44   597.27   600.64
eigval :      601.06   604.39   619.47   628.26   635.06   672.15
eigval :      673.78   678.78   679.39   688.32   696.60   707.58
eigval :      708.86   728.36   755.60   769.19   775.64   780.45
eigval :      794.74   814.03   826.84   840.64   842.04   866.71
eigval :      870.25   872.72   879.36   879.88   883.73   885.33
eigval :      891.41   891.48   894.38   898.17   901.14   903.32
eigval :      904.12   913.76   922.04   922.34   923.49   931.16
eigval :      937.01   943.81   964.54   964.70   972.68   974.23
eigval :      974.84  1012.08  1020.08  1021.97  1023.76  1028.47
eigval :     1029.27  1029.36  1031.32  1033.43  1034.27  1034.49
eigval :     1040.56  1041.31  1043.90  1044.14  1069.61  1071.49
eigval :     1073.04  1104.73  1108.60  1125.35  1136.30  1151.05
eigval :     1153.77  1166.12  1173.30  1178.67  1181.59  1182.77
eigval :     1185.00  1191.24  1206.70  1220.00  1223.57  1223.98
eigval :     1234.28  1235.13  1237.27  1242.49  1247.94  1271.83
eigval :     1278.77  1296.55  1301.83  1303.11  1304.76  1307.68
eigval :     1308.58  1339.35  1341.79  1344.33  1353.29  1359.01
eigval :     1360.89  1365.20  1384.54  1397.75  1401.29  1401.50
eigval :     1404.10  1404.26  1405.99  1408.68  1422.38  1427.37
eigval :     1428.34  1428.75  1429.17  1441.87  1453.59  1457.19
eigval :     1475.15  1477.89  1479.38  1480.31  1482.40  1482.51
eigval :     1484.40  1485.85  1486.41  1486.58  1487.98  1489.29
eigval :     1489.91  1490.27  1491.70  1496.49  1497.00  1545.89
eigval :     1562.70  1563.29  1566.81  1574.30  1583.95  1586.29
eigval :     1589.29  1598.73  1599.52  1601.92  1604.02  1615.04
eigval :     1616.36  2996.95  2997.16  3001.40  3002.50  3010.55
eigval :     3010.95  3012.89  3013.41  3015.54  3016.89  3031.86
eigval :     3032.44  3037.10  3037.36  3041.27  3041.38  3059.86
eigval :     3059.94  3062.19  3062.34  3062.75  3063.30  3072.68
eigval :     3073.69  3073.77  3074.07  3077.99  3078.94  3080.14
eigval :     3083.38  3085.50  3086.07  3086.57  3087.52  3088.18
eigval :     3090.65  3093.14  3094.86  3096.94  3098.20  3099.64

   temp. (K)  partition function   enthalpy   heat capacity  entropy
                                   cal/mol     cal/K/mol   cal/K/mol   J/K/mol
 298.15  VIB  0.269E+24            27385.891    162.479    174.091
         ROT  0.126E+09              888.752      2.981     40.044
         INT  0.338E+32            28274.643    165.459    214.135
         TR   0.163E+29             1481.254      4.968     45.307
         TOT                       29755.8972   170.4276   259.4419  1085.5050

       T/K    H(0)-H(T)+PV         H(T)/Eh          T*S/Eh         G(T)/Eh
   ------------------------------------------------------------------------
    298.15    0.474190E-01    0.782502E+00    0.123269E+00    0.659233E+00
   ------------------------------------------------------------------------

         :::::::::::::::::::::::::::::::::::::::::::::::::::::
         ::                  THERMODYNAMIC                  ::
         :::::::::::::::::::::::::::::::::::::::::::::::::::::
         :: total free energy        -130.200190257793 Eh   ::
         ::.................................................::
         :: total energy             -130.859422963914 Eh   ::
         :: zero point energy           0.735082891687 Eh   ::
         :: G(RRHO) w/o ZPVE           -0.075850185566 Eh   ::
         :: G(RRHO) contrib.            0.659232706121 Eh   ::
         :::::::::::::::::::::::::::::::::::::::::::::::::::::

           -------------------------------------------------
          | TOTAL ENERGY             -130.859422963914 Eh   |
          | TOTAL ENTHALPY           -130.076921031718 Eh   |
          | TOTAL FREE ENERGY        -130.200190257793 Eh   |
          | GRADIENT NORM               0.000040211581 Eh/α |
          | HOMO-LUMO GAP               2.113079364913 eV   |
           -------------------------------------------------

 * finished run on 2025/07/19 at 04:22:31.020
