   * xtb version 6.7.1 (edcfbbe) compiled by 'albert@albert-system' on 2024-07-22

   ID    Z sym.   atoms
    1    6 C      1-6, 8-11, 13-21, 23-51
    2    5 B      7
    3    7 N      12, 22
    4    1 H      52-92

          program call               : xtb data2507/gas/CCDMB/CCDMB_gas_T1_crest.xyz --gfn 2 --spinpol --tblite --uhf 2 --ohess vtight --parallel 40 --molden --ceasefiles --namespace data2507/gas/CCDMB/CCDMB_gas_T1_finalOpt
 * total energy  :  -130.7682885 Eh     change       -0.8134654E-07 Eh
 * total energy  :  -130.7683216 Eh     change       -0.3317200E-04 Eh
 * total energy  :  -130.7683428 Eh     change       -0.2113973E-04 Eh
 * total energy  :  -130.7683474 Eh     change       -0.4583898E-05 Eh
 * total energy  :  -130.7683530 Eh     change       -0.5595594E-05 Eh
 * total energy  :  -130.7683567 Eh     change       -0.3701268E-05 Eh
 * total energy  :  -130.7683590 Eh     change       -0.2315966E-05 Eh
 * total energy  :  -130.7683600 Eh     change       -0.1056188E-05 Eh
 * total energy  :  -130.7683613 Eh     change       -0.1225628E-05 Eh
 * total energy  :  -130.7683628 Eh     change       -0.1574621E-05 Eh
 * total energy  :  -130.7683662 Eh     change       -0.2100181E-06 Eh
 * total energy  :  -130.7683665 Eh     change       -0.2953544E-06 Eh
 * total energy  :  -130.7683667 Eh     change       -0.2152302E-06 Eh
 * total energy  :  -130.7683670 Eh     change       -0.2597872E-06 Eh
 * total energy  :  -130.7683672 Eh     change       -0.1920268E-06 Eh
 * total energy  :  -130.7683674 Eh     change       -0.2361519E-06 Eh
 * total energy  :  -130.7683676 Eh     change       -0.2110680E-06 Eh
 * total energy  :  -130.7683678 Eh     change       -0.1542351E-06 Eh
 * total energy  :  -130.7683679 Eh     change       -0.9081526E-07 Eh
   *** GEOMETRY OPTIMIZATION CONVERGED AFTER 22 ITERATIONS ***

 final structure:
================
92
 xtb: 6.7.1 (edcfbbe)
C           -6.40203593103719        4.45607873490276        3.75804209577321
C           -5.98184165102343        3.37964755051926        2.80454821879385
C           -6.19095909982724        3.52463634986490        1.43686749466803
C           -5.81540601980036        2.54513912556994        0.53544533345866
C           -6.07986327690361        2.76976659069822       -0.92400418328258
C           -5.16376859956616        1.38170234975239        0.98805865814056
B           -4.58215675681747        0.31074067111520       -0.01168325683051
C           -3.15545234068685       -0.18595622352083        0.11566278933029
C           -2.13556582798772        0.57606886389027        0.76120430287109
C           -0.85116194426759        0.13338523624571        0.88179989685545
C           -0.47803546364905       -1.12653188599786        0.37075807825228
N            0.82609138870627       -1.58870565323716        0.50068987858117
C            1.19613926118380       -2.85578152951583        0.91733216919990
C            0.40363413260520       -3.90951720205880        1.34644955331237
C            1.03511071178736       -5.07596601506537        1.74086618750221
C            2.42394895403434       -5.19235325506375        1.72066807548680
C            3.22185833758135       -4.13587297300285        1.32600269981182
C            2.61046047694522       -2.95383883884271        0.92808040933040
C            3.10837879270305       -1.67898480721807        0.50506280439204
C            4.38358320891261       -1.17568400155076        0.30725737429219
C            4.52112162919255        0.12743961692817       -0.15538810751990
N            5.80003853306394        0.66232873647700       -0.35362730218527
C            6.83345326417117        0.62993883332937        0.56099432832282
C            6.85011122172470        0.13700002777210        1.85842328211587
C            8.02302092059232        0.25757107842860        2.57915721632985
C            9.15355526918497        0.86114226931184        2.03330305290103
C            9.13528660408356        1.37645898212355        0.75167019172802
C            7.96886045523645        1.26647605281102        0.00787238038514
C            7.59315235668026        1.69474007747432       -1.31129409006061
C            8.27132241965132        2.34505123882149       -2.33254638213654
C            7.60574397953985        2.58851009642456       -3.51832743901484
C            6.28713256337917        2.17683660721323       -3.69709950847800
C            5.59128166707817        1.52746203111053       -2.69516749116292
C            6.24578206391422        1.30376130448721       -1.49175932650335
C            3.39138078614928        0.91193486461688       -0.43695059697472
C            2.11523066180486        0.42391215296938       -0.24535904911384
C            1.96989918906742       -0.86621253810632        0.24849938173388
C           -1.45877127102005       -1.90851068272565       -0.27340480858122
C           -2.73737489930320       -1.45030178614053       -0.39745138671157
C           -5.53354279213922       -0.23022462129053       -1.14664994534303
C           -5.08310599423937       -0.27201578281153       -2.48021526327163
C           -3.76283192204377        0.31217861556476       -2.88929941637410
C           -5.85987713712836       -0.87421337534333       -3.45841456924959
C           -7.10920159442091       -1.40142059962774       -3.17270433507411
C           -7.94772079643313       -2.04296237438893       -4.23565722992981
C           -7.57313997987090       -1.31309835805016       -1.86413519595971
C           -6.82204189963341       -0.72278313080741       -0.86397497695178
C           -7.39152848314515       -0.65938366504440        0.52240841291410
C           -4.99830910263029        1.20943647511954        2.37618023741464
C           -4.39974156992932       -0.03934616949148        2.95394581612913
C           -5.38271301739372        2.21290597612548        3.25239635953535
H           -5.67619161692678        5.27055453528384        3.74447903257222
H           -7.36908093864059        4.86800822301122        3.47494929440530
H           -6.46491503929170        4.07406076401557        4.77431734295906
H           -6.66452895673351        4.42634973382215        1.07180649276882
H           -6.85291321523303        2.09200647187775       -1.28317192048874
H           -6.40920960139250        3.79128801113679       -1.10243001024582
H           -5.18262406371144        2.58338129963416       -1.50950842414808
H           -2.40975015244346        1.53619010194036        1.17649059494687
H           -0.11397361913129        0.71828398077779        1.41414272628778
H           -0.67084223826840       -3.82081397446006        1.38891867852300
H            0.43927755793495       -5.91108524314527        2.07711162738013
H            2.87977148334673       -6.12063760149433        2.03128973472004
H            4.29805329645947       -4.22082859396965        1.33006225661310
H            5.25455786074209       -1.78914937028342        0.47920272839418
H            5.97336591586052       -0.31495608471428        2.29698664699454
H            8.06236297562216       -0.12100039393709        3.58984389496019
H           10.05195138294901        0.93391670321445        2.62790388564138
H           10.00615228090033        1.85962529001271        0.33512207976040
H            9.29911514063444        2.64767002810163       -2.20046373303646
H            8.11433988238725        3.09552600265802       -4.32467810455365
H            5.79847195577429        2.36542286449703       -4.64155367862809
H            4.57643321751573        1.19469476736273       -2.85101384519282
H            3.53302722001568        1.92069193052291       -0.79268088108378
H            1.25637388925455        1.03284563660680       -0.48016731696973
H           -1.16707688765086       -2.85441095373839       -0.70804475716723
H           -3.47298609937348       -2.05507227974492       -0.90984640606894
H           -3.81382785829141        0.69134988196197       -3.90863079303341
H           -3.46337641520264        1.11667611937762       -2.22212290826423
H           -2.98381207260444       -0.45040578328718       -2.85275388010987
H           -5.48588715611227       -0.91497299109089       -4.47293475394651
H           -7.58603900864506       -1.78297786364873       -5.22772288225992
H           -8.98774897560041       -1.73359781875716       -4.14680504004036
H           -7.91367478645048       -3.12860500616410       -4.13342818955058
H           -8.54969202170886       -1.71360818479010       -1.62631053176964
H           -7.62636768992979        0.36846820367007        0.79493316177037
H           -8.30304764651505       -1.24948168802801        0.59110279423339
H           -6.67497611573777       -1.03565171670853        1.24878959024790
H           -3.32266156260802        0.07951606851677        3.07854487988873
H           -4.55999085095729       -0.89313673440623        2.30022616623775
H           -4.82944076590860       -0.25032109805774        3.93179841183004
H           -5.22689915419956        2.06998274186125        4.31356262656740

 projected vibrational frequencies (cm⁻¹)
eigval :       -0.00    -0.00    -0.00     0.00     0.00     0.00
eigval :        9.23    12.25    14.01    24.78    24.98    25.62
eigval :       29.26    30.83    31.26    35.94    51.33    53.45
eigval :       64.94    79.70    87.23    94.66   101.57   102.90
eigval :      105.12   118.40   123.85   130.37   136.46   141.33
eigval :      143.84   151.98   161.04   166.28   179.43   183.87
eigval :      186.41   195.39   204.12   208.79   229.37   253.60
eigval :      262.45   268.65   273.46   275.30   275.45   294.51
eigval :      304.48   311.30   320.96   322.18   332.28   377.00
eigval :      384.97   388.56   393.76   397.50   414.06   421.07
eigval :      424.77   436.02   437.26   461.69   465.32   479.07
eigval :      483.76   486.66   489.05   496.58   508.25   517.16
eigval :      517.56   518.30   530.86   539.22   539.99   541.95
eigval :      552.66   555.65   559.60   584.24   587.50   595.05
eigval :      596.42   597.37   613.40   620.18   630.45   645.26
eigval :      661.79   666.09   674.13   675.39   680.63   701.38
eigval :      709.13   720.95   754.92   769.61   770.37   780.07
eigval :      792.63   802.49   823.07   836.92   837.48   839.62
eigval :      849.72   864.27   866.94   871.22   871.45   872.81
eigval :      873.69   881.10   890.85   897.26   900.15   901.39
eigval :      904.60   907.59   908.51   914.58   920.70   922.80
eigval :      923.79   928.34   959.22   962.75   968.38   973.12
eigval :      974.26   986.93   989.71  1011.87  1016.92  1019.30
eigval :     1024.04  1026.31  1026.51  1027.32  1027.57  1028.88
eigval :     1029.12  1035.73  1040.98  1043.40  1048.51  1068.49
eigval :     1070.03  1073.01  1073.17  1105.31  1118.77  1128.97
eigval :     1143.83  1150.36  1169.29  1172.99  1176.33  1180.53
eigval :     1183.92  1186.10  1188.70  1196.87  1218.62  1226.23
eigval :     1232.61  1233.45  1235.23  1240.43  1247.53  1250.75
eigval :     1267.88  1281.49  1291.96  1297.41  1299.20  1308.19
eigval :     1309.38  1312.48  1317.99  1339.32  1346.66  1352.65
eigval :     1358.43  1359.40  1374.87  1380.39  1398.10  1401.49
eigval :     1401.88  1402.25  1403.80  1408.43  1409.64  1410.57
eigval :     1412.33  1422.76  1423.33  1426.09  1427.64  1431.66
eigval :     1440.77  1458.82  1465.48  1471.37  1472.90  1473.44
eigval :     1474.67  1478.62  1481.81  1482.03  1484.21  1484.43
eigval :     1485.24  1485.69  1486.70  1487.17  1489.22  1489.89
eigval :     1515.86  1520.26  1526.06  1538.35  1545.34  1554.18
eigval :     1566.98  1572.45  1573.86  1576.63  1586.84  1592.17
eigval :     1608.65  2987.06  2987.28  2987.49  2988.46  3011.95
eigval :     3012.44  3019.03  3019.27  3021.34  3022.68  3028.95
eigval :     3029.24  3034.59  3034.96  3035.97  3036.66  3036.85
eigval :     3037.47  3056.13  3056.30  3057.20  3057.76  3058.04
eigval :     3058.85  3070.72  3072.98  3078.12  3078.55  3079.90
eigval :     3083.12  3084.60  3086.33  3090.30  3092.21  3093.65
eigval :     3094.73  3096.38  3097.12  3098.32  3100.64  3105.29

   temp. (K)  partition function   enthalpy   heat capacity  entropy
                                   cal/mol     cal/K/mol   cal/K/mol   J/K/mol
 298.15  VIB  0.189E+23            27417.980    165.397    172.613
         ROT  0.128E+09              888.752      2.981     40.075
         INT  0.242E+31            28306.732    168.378    212.688
         TR   0.163E+29             1481.254      4.968     45.307
         TOT                       29787.9862   173.3459   257.9957  1079.4542

       T/K    H(0)-H(T)+PV         H(T)/Eh          T*S/Eh         G(T)/Eh
   ------------------------------------------------------------------------
    298.15    0.474702E-01    0.778330E+00    0.122582E+00    0.655748E+00
   ------------------------------------------------------------------------

         :::::::::::::::::::::::::::::::::::::::::::::::::::::
         ::                  THERMODYNAMIC                  ::
         :::::::::::::::::::::::::::::::::::::::::::::::::::::
         :: total free energy        -130.112620305149 Eh   ::
         ::.................................................::
         :: total energy             -130.768367878929 Eh   ::
         :: zero point energy           0.730859498247 Eh   ::
         :: G(RRHO) w/o ZPVE           -0.075111924467 Eh   ::
         :: G(RRHO) contrib.            0.655747573779 Eh   ::
         :::::::::::::::::::::::::::::::::::::::::::::::::::::

           -------------------------------------------------
          | TOTAL ENERGY             -130.768367878929 Eh   |
          | TOTAL ENTHALPY           -129.990038203028 Eh   |
          | TOTAL FREE ENERGY        -130.112620305149 Eh   |
          | GRADIENT NORM               0.000057161003 Eh/α |
           -------------------------------------------------

 * finished run on 2025/07/19 at 04:34:18.721
