   * xtb version 6.7.1 (edcfbbe) compiled by 'albert@albert-system' on 2024-07-22

   ID    Z sym.   atoms
    1    6 C      1-6, 8-11, 13-21, 23-51
    2    5 B      7
    3    7 N      12, 22
    4    1 H      52-92

          program call               : xtb data2507/gas/CCDMB/CCDMB_gas_S0_finalOpt.xtbopt.xyz --gfn 2 --spinpol --tblite --uhf 2 --ohess vtight --parallel 40 --molden --ceasefiles --namespace data2507/gas/CCDMB/CCDMB_gas_T1_preOpt
 * total energy  :  -130.7638075 Eh     change       -0.1601290E-07 Eh
 * total energy  :  -130.7656328 Eh     change       -0.1825317E-02 Eh
 * total energy  :  -130.7663272 Eh     change       -0.6944258E-03 Eh
 * total energy  :  -130.7665234 Eh     change       -0.1962068E-03 Eh
 * total energy  :  -130.7667149 Eh     change       -0.1914759E-03 Eh
 * total energy  :  -130.7668243 Eh     change       -0.1094057E-03 Eh
 * total energy  :  -130.7669137 Eh     change       -0.8941053E-04 Eh
 * total energy  :  -130.7669831 Eh     change       -0.6934491E-04 Eh
 * total energy  :  -130.7670456 Eh     change       -0.6250610E-04 Eh
 * total energy  :  -130.7671090 Eh     change       -0.6344497E-04 Eh
 * total energy  :  -130.7678259 Eh     change       -0.6279766E-06 Eh
 * total energy  :  -130.7678257 Eh     change        0.2254918E-06 Eh
 * total energy  :  -130.7678261 Eh     change       -0.4153607E-06 Eh
 * total energy  :  -130.7678263 Eh     change       -0.1641979E-06 Eh
 * total energy  :  -130.7678266 Eh     change       -0.3437023E-06 Eh
 * total energy  :  -130.7678270 Eh     change       -0.3826225E-06 Eh
 * total energy  :  -130.7678273 Eh     change       -0.2806679E-06 Eh
 * total energy  :  -130.7678275 Eh     change       -0.2175905E-06 Eh
 * total energy  :  -130.7678275 Eh     change       -0.3070178E-07 Eh
   *** GEOMETRY OPTIMIZATION CONVERGED AFTER 77 ITERATIONS ***

 final structure:
================
92
 xtb: 6.7.1 (edcfbbe)
C           -8.91844351380584       -2.95817720413870        1.95333705406966
C           -7.83550544000217       -2.07654451599618        1.41057103685194
C           -7.67957360003467       -0.77729706617148        1.88243270223559
C           -6.69222468192525        0.06048731355760        1.39604162435215
C           -6.59020636677513        1.44986570033856        1.95251347528054
C           -5.78356544550289       -0.40823719204380        0.42787209833209
B           -4.55353232907053        0.45780630179132       -0.04641380971334
C           -3.14917250357319       -0.11807949111480       -0.06787180138843
C           -2.76097758969733       -1.21178742007491        0.76177190038880
C           -1.50233980688549       -1.73928410854126        0.74040414011891
C           -0.51279877475885       -1.18916271960254       -0.09884959213270
N            0.77652002850672       -1.71110617643727       -0.11075317243264
C            1.10420429174006       -3.05417808594921       -0.17576671549308
C            0.27676561625995       -4.15871715260107       -0.30951889944925
C            0.86912366194299       -5.40700350581075       -0.38395997561680
C            2.25414302632293       -5.55739768331823       -0.33659435636608
C            3.08687729271130       -4.45989082801421       -0.23628991400021
C            2.51480447887282       -3.19598830298684       -0.16327411488752
C            3.05468649482981       -1.87126499103000       -0.09363117402467
C            4.34643833682936       -1.37427088488408       -0.03250718272314
C            4.52745427626316       -0.00060427122684        0.07122586155867
N            5.82309205900643        0.52737255387945        0.12948492085505
C            6.28957604180093        1.43291278092002        1.06116578162099
C            5.64303969278794        1.98681819526352        2.15748103716923
C            6.35948431316923        2.85655081170986        2.95754228736861
C            7.69027869751993        3.16584188280342        2.68660374895461
C            8.34753330389458        2.59657803914910        1.61302829081340
C            7.64880495490737        1.72008271001457        0.79499380127481
C            8.01056288077029        0.94545841693355       -0.36004075302559
C            9.18040830163399        0.81659612487463       -1.09523847305556
C            9.18237791728191       -0.02140179447329       -2.19363292556886
C            8.03271148205726       -0.71183687274145       -2.57030067358580
C            6.85593766142628       -0.59897892648605       -1.85457101250190
C            6.85497543443511        0.22107333606126       -0.73466065560925
C            3.42437016963135        0.86617628152816        0.13107698256301
C            2.13267095380383        0.38557300340087        0.07139629607736
C            1.94350526554490       -0.98399163434722       -0.06238263512807
C           -0.85551862430724       -0.10000254915895       -0.92442016219253
C           -2.12607466626746        0.39876311976688       -0.91772046543233
C           -4.83983813279899        1.94191902040101       -0.49356413727656
C           -4.04725378101189        2.99289240963365        0.00810239991710
C           -3.00593491091308        2.76260875256232        1.06315645548144
C           -4.20495603135038        4.27971024416845       -0.48317187719127
C           -5.16858950713897        4.58292411147191       -1.43200153200740
C           -5.34356169198792        5.97744753117465       -1.95066639838713
C           -5.98298386541209        3.55207391074997       -1.88997122644264
C           -5.84900402113910        2.25667621932866       -1.42448397743024
C           -6.76788435747916        1.20073878786269       -1.96394035364646
C           -5.96969439131950       -1.70582886896238       -0.08643295516828
C           -5.10002166733951       -2.25554955733920       -1.17832484956314
C           -6.96734456421359       -2.52106881933099        0.42599041473350
H           -8.64165410550881       -3.32293280943511        2.94356209220806
H           -9.85234801763506       -2.40723099682955        2.05173197061131
H           -9.08250295437144       -3.81741293255901        1.30729401967181
H           -8.35268344563596       -0.41337039182689        2.64734389901675
H           -6.89364201310442        2.18531712821152        1.20877469253803
H           -7.22941393566616        1.56195803691385        2.82585486361315
H           -5.56512557002047        1.67480669637624        2.23719332777694
H           -3.49599793002817       -1.61976886776020        1.44183015564800
H           -1.23261489873022       -2.54852113204542        1.40467431746473
H           -0.79504479777158       -4.05096782047530       -0.37046044621221
H            0.24542445668056       -6.28217289844593       -0.48674273469895
H            2.67895524369311       -6.54858092949364       -0.39205007008025
H            4.16000349786582       -4.57638204770560       -0.22003845447084
H            5.19647684461655       -2.03903006870509       -0.03318529915392
H            4.61840804963366        1.73804956494351        2.38799003687019
H            5.87745394295830        3.30298246674362        3.81467433182593
H            8.21493735301459        3.85255013433752        3.33397472808811
H            9.38442095853520        2.82161058778739        1.41410661870450
H           10.06658970747678        1.36510794041094       -0.81386891169523
H           10.08317636211236       -0.13817867197869       -2.77746353471197
H            8.06013162157650       -1.34657194558592       -3.44360880958354
H            5.96490522136505       -1.12292707817952       -2.16565419281248
H            3.59967231282258        1.92809204977795        0.20693960729070
H            1.29498109600312        1.06227444585028        0.13300591182460
H           -0.11164837307296        0.29679999401964       -1.60145098634994
H           -2.38243497607374        1.20735061016860       -1.58834061738376
H           -3.27251244115826        1.92745656733678        1.70638736268113
H           -2.04751227236409        2.52408631815399        0.60001233625073
H           -2.87331738460837        3.65607023391639        1.67085186056419
H           -3.57044545796066        5.06834518331297       -0.10072324274242
H           -6.39800827029715        6.24674327332623       -1.98599481608318
H           -4.94764721392606        6.05158726181550       -2.96451476233665
H           -4.81758566857857        6.69518026903950       -1.32553883942468
H           -6.74360091195823        3.77365326989065       -2.62684465538237
H           -7.47355110595508        0.87778475192191       -1.19988042181676
H           -7.33231525240453        1.58002300287237       -2.81331919334698
H           -6.20382222590952        0.32649541066666       -2.28009950969418
H           -4.23982562041930       -2.77194811096887       -0.75018617437692
H           -4.71842035563269       -1.46264334845593       -1.81699391322598
H           -5.65386635541046       -2.97003878144271       -1.78488689986361
H           -7.07967029536741       -3.52260430987349        0.03221326544152

 projected vibrational frequencies (cm⁻¹)
eigval :       -0.00     0.00     0.00     0.00     0.00     0.00
eigval :        9.35    11.27    13.98    23.96    27.31    28.58
eigval :       29.36    30.62    32.76    35.76    52.54    53.46
eigval :       61.29    79.98    85.99    97.56   101.51   102.65
eigval :      105.45   124.20   126.00   128.53   139.26   141.72
eigval :      143.08   150.18   160.53   167.21   175.95   185.56
eigval :      186.90   191.83   204.56   207.58   229.70   253.68
eigval :      263.26   270.56   272.31   275.10   275.53   297.35
eigval :      300.60   308.60   317.06   323.57   333.36   375.95
eigval :      380.60   386.35   393.40   396.55   408.90   420.90
eigval :      424.85   436.24   440.30   459.19   466.14   478.39
eigval :      483.88   486.33   489.01   496.08   507.33   517.03
eigval :      517.35   518.34   530.88   538.86   539.84   541.73
eigval :      552.38   557.01   560.18   580.49   587.16   594.41
eigval :      595.99   597.73   613.42   621.29   630.75   647.28
eigval :      661.29   666.24   674.19   675.34   681.37   701.26
eigval :      709.16   721.54   755.09   769.59   770.15   780.03
eigval :      792.44   801.80   822.22   835.36   836.79   841.19
eigval :      848.26   863.93   866.01   869.96   870.81   871.39
eigval :      873.26   880.81   890.56   897.22   900.22   901.16
eigval :      904.72   908.71   909.67   915.13   922.69   922.78
eigval :      925.16   930.70   956.77   962.75   968.43   970.62
eigval :      974.77   977.49   991.15  1011.76  1016.23  1018.56
eigval :     1024.03  1025.08  1025.70  1026.86  1027.02  1028.61
eigval :     1028.75  1035.11  1040.44  1043.38  1046.84  1068.23
eigval :     1069.36  1069.95  1073.18  1104.94  1118.56  1132.24
eigval :     1143.77  1150.14  1168.92  1172.71  1176.20  1180.47
eigval :     1183.87  1185.52  1189.04  1196.82  1218.94  1225.29
eigval :     1232.60  1233.45  1235.04  1240.32  1249.41  1251.58
eigval :     1268.08  1281.08  1292.09  1296.84  1298.59  1308.65
eigval :     1311.00  1312.45  1317.12  1339.30  1346.83  1352.75
eigval :     1358.11  1359.62  1374.89  1386.18  1397.29  1400.92
eigval :     1401.67  1402.05  1403.49  1408.02  1408.91  1410.48
eigval :     1413.80  1422.05  1422.62  1425.91  1427.04  1431.55
eigval :     1439.53  1457.37  1464.60  1470.83  1471.82  1472.43
eigval :     1474.38  1478.40  1481.34  1481.64  1484.00  1484.34
eigval :     1485.15  1485.38  1486.39  1486.66  1488.70  1489.45
eigval :     1514.13  1518.63  1526.28  1537.27  1546.65  1552.21
eigval :     1566.74  1571.82  1572.90  1576.20  1586.49  1591.52
eigval :     1608.64  2984.62  2985.38  2988.20  2988.56  3010.99
eigval :     3011.26  3018.97  3019.65  3019.73  3020.20  3028.58
eigval :     3028.62  3032.86  3033.33  3036.35  3036.91  3037.14
eigval :     3037.26  3055.46  3055.99  3057.63  3058.02  3058.73
eigval :     3060.62  3072.10  3073.59  3078.24  3078.64  3079.72
eigval :     3083.30  3084.73  3086.22  3090.48  3092.35  3093.50
eigval :     3094.93  3096.51  3097.16  3098.00  3100.39  3105.35

   temp. (K)  partition function   enthalpy   heat capacity  entropy
                                   cal/mol     cal/K/mol   cal/K/mol   J/K/mol
 298.15  VIB  0.169E+23            27423.802    165.519    172.619
         ROT  0.126E+09              888.752      2.981     40.045
         INT  0.213E+31            28312.555    168.500    212.664
         TR   0.163E+29             1481.254      4.968     45.307
         TOT                       29793.8087   173.4683   257.9718  1079.3539

       T/K    H(0)-H(T)+PV         H(T)/Eh          T*S/Eh         G(T)/Eh
   ------------------------------------------------------------------------
    298.15    0.474795E-01    0.778202E+00    0.122571E+00    0.655632E+00
   ------------------------------------------------------------------------

         :::::::::::::::::::::::::::::::::::::::::::::::::::::
         ::                  THERMODYNAMIC                  ::
         :::::::::::::::::::::::::::::::::::::::::::::::::::::
         :: total free energy        -130.112195978739 Eh   ::
         ::.................................................::
         :: total energy             -130.767827549716 Eh   ::
         :: zero point energy           0.730722826830 Eh   ::
         :: G(RRHO) w/o ZPVE           -0.075091255853 Eh   ::
         :: G(RRHO) contrib.            0.655631570977 Eh   ::
         :::::::::::::::::::::::::::::::::::::::::::::::::::::

           -------------------------------------------------
          | TOTAL ENERGY             -130.767827549716 Eh   |
          | TOTAL ENTHALPY           -129.989625266500 Eh   |
          | TOTAL FREE ENERGY        -130.112195978739 Eh   |
          | GRADIENT NORM               0.000175180101 Eh/α |
           -------------------------------------------------

 * finished run on 2025/07/19 at 04:22:47.945
