   * xtb version 6.7.1 (edcfbbe) compiled by 'albert@albert-system' on 2024-07-22

   ID    Z sym.   atoms
    1    6 C      1-6, 8-11, 13-21, 23-51
    2    5 B      7
    3    7 N      12, 22
    4    1 H      52-92

          program call               : xtb data2507/gas/CCDMB/CCDMB.xyz --gfn 2 --ohess vtight --parallel 40 --molden --ceasefiles --namespace data2507/gas/CCDMB/CCDMB_gas_S0_preOpt
          :  Hamiltonian                  GFN2-xTB          :
 * total energy  :  -130.8089696 Eh     change       -0.3146766E-08 Eh
 * total energy  :  -130.8444394 Eh     change       -0.3546972E-01 Eh
 * total energy  :  -130.8525052 Eh     change       -0.8065866E-02 Eh
 * total energy  :  -130.8540822 Eh     change       -0.1577005E-02 Eh
 * total energy  :  -130.8550135 Eh     change       -0.9312328E-03 Eh
 * total energy  :  -130.8554157 Eh     change       -0.4022207E-03 Eh
 * total energy  :  -130.8556859 Eh     change       -0.2701882E-03 Eh
 * total energy  :  -130.8558597 Eh     change       -0.1738588E-03 Eh
 * total energy  :  -130.8559784 Eh     change       -0.1186262E-03 Eh
 * total energy  :  -130.8560776 Eh     change       -0.9928339E-04 Eh
 * total energy  :  -130.8593961 Eh     change       -0.5975248E-06 Eh
 * total energy  :  -130.8593967 Eh     change       -0.6096767E-06 Eh
 * total energy  :  -130.8593973 Eh     change       -0.6209094E-06 Eh
 * total energy  :  -130.8593979 Eh     change       -0.6022879E-06 Eh
 * total energy  :  -130.8593985 Eh     change       -0.6028406E-06 Eh
 * total energy  :  -130.8593991 Eh     change       -0.6016203E-06 Eh
 * total energy  :  -130.8593997 Eh     change       -0.5997523E-06 Eh
 * total energy  :  -130.8594003 Eh     change       -0.5897476E-06 Eh
 * total energy  :  -130.8594003 Eh     change       -0.2088399E-08 Eh
   *** GEOMETRY OPTIMIZATION CONVERGED AFTER 300 ITERATIONS ***

 final structure:
================
92
 xtb: 6.7.1 (edcfbbe)
C           -8.35407987127705       -3.48031882075766        0.93473301620590
C           -7.24086601376526       -2.51894386295979        0.64901859420529
C           -7.10470987306998       -1.35561058265868        1.39489546593034
C           -6.09679320095288       -0.44222041879891        1.13717455163806
C           -5.99533824148821        0.78878373820412        1.99009419325562
C           -5.16526126096974       -0.67976737136933        0.11043201631184
B           -3.98156028776899        0.31396127584472       -0.15373412038201
C           -2.52446675308781       -0.25264918546478       -0.15528344363053
C           -2.17549240328097       -1.37365685784897        0.60568965242840
C           -0.88854827923619       -1.87018384637230        0.61967397468853
C            0.09566716801712       -1.27262383173958       -0.16358317586685
N            1.40092936720233       -1.78210846129238       -0.17006762828830
C            1.75182177288919       -3.10462015936298       -0.35615043303284
C            0.94745405193471       -4.20591177130739       -0.61354274453916
C            1.56534425107630       -5.42890817885385       -0.78908312301571
C            2.95077469066311       -5.56206758888236       -0.72161862767452
C            3.75820566483841       -4.46665830335264       -0.49166233492457
C            3.15975317675841       -3.22647661213634       -0.31164340064627
C            3.67528461310545       -1.90616549624257       -0.08450197162682
C            4.95773367496521       -1.40277617729795        0.07153965101911
C            5.11322442307648       -0.04283011846378        0.29520376924495
N            6.40151179718837        0.50080335610678        0.43140003173305
C            6.83880238064288        1.30189842726270        1.46490394424493
C            6.16832104991747        1.71533471314956        2.60761704601455
C            6.85462347076311        2.50823021789327        3.50675231454118
C            8.17949424571790        2.87964573182560        3.28653682580709
C            8.85882006530610        2.45326245172786        2.16316043096659
C            8.19065651343450        1.65492691271296        1.24404201606227
C            8.57767719851359        1.03131707570974        0.01031106883589
C            9.75468205238111        1.01679874479260       -0.72671967063558
C            9.78384794395615        0.31193550354575       -1.91311339964884
C            8.65488416276895       -0.36253833350626       -2.37399203913185
C            7.47288856457834       -0.36342889168928       -1.65919368479218
C            7.44328692351725        0.32658452207165       -0.45540201058451
C            3.99774609891222        0.79818960295321        0.38874064209590
C            2.71496617528639        0.30893144569476        0.25288467015345
C            2.55542577451809       -1.04531061219896       -0.00719447471364
C           -0.22962613693338       -0.16438960252148       -0.94167971932115
C           -1.51337429939535        0.33975837324668       -0.91960960153974
C           -4.18092467914500        1.84649784157983       -0.41873002606727
C           -3.49177569576993        2.80717483081666        0.33517882408668
C           -2.59161762728768        2.42151865396410        1.47636809885341
C           -3.64117843128343        4.15968621495847        0.06116336786558
C           -4.46017046752792        4.60463487624699       -0.96235798594366
C           -4.62500581680576        6.06504430348754       -1.25410629134208
C           -5.14659814114745        3.65542640588118       -1.70827553645242
C           -5.02476288951429        2.30122849549735       -1.44816179284065
C           -5.78154962163711        1.32571224004404       -2.30185859625465
C           -5.30704283874872       -1.85368707053858       -0.64347501660859
C           -4.38036349253689       -2.18020074302478       -1.78188844962327
C           -6.33397022795736       -2.74701979707245       -0.37187730596325
H           -9.30514078183369       -3.06141348115164        0.60465842900454
H           -8.19733249807753       -4.42329271799438        0.41653305344110
H           -8.42960532563566       -3.67393547714163        2.00341130773725
H           -7.80695788623533       -1.15883819247334        2.19370012804797
H           -5.06986906050482        0.78269697628110        2.56416994364317
H           -5.99464209252693        1.68402704141692        1.37215854176514
H           -6.82943775909961        0.84370633104825        2.68587301492478
H           -2.93272262779687       -1.84971126692743        1.21278263328807
H           -0.63237482378947       -2.71554657237835        1.24153835777514
H           -0.12530687380656       -4.11115720536347       -0.68669102486036
H            0.96058885660177       -6.30155782929825       -0.98709033739760
H            3.39453604760072       -6.53635517894349       -0.86170839610553
H            4.83261641754583       -4.56528187902532       -0.45611436794494
H            5.81799618094993       -2.05307118421635        0.03323821914843
H            5.14709473635808        1.41859544798444        2.79442836755072
H            6.35406425238122        2.84522324992958        4.40278785046693
H            8.68012003846398        3.50303912276773        4.01258264791264
H            9.88991131829313        2.72883622173580        1.99972527107777
H           10.62538395255898        1.55058542911357       -0.37634645708674
H           10.68990955692409        0.28605011498149       -2.50029496458973
H            8.70446992548963       -0.89435470660263       -3.31296404392086
H            6.59840867298802       -0.87625763193720       -2.03102652382653
H            4.15469199369139        1.85204422845605        0.56235218372632
H            1.86398985563640        0.96581435677978        0.34777104130510
H            0.52693441078491        0.28653722204853       -1.56721671065940
H           -1.75267841303131        1.20380545155103       -1.52353124388357
H           -1.54843336604303        2.47702561972094        1.16374075930891
H           -2.72540780984646        3.10917250055606        2.31007980095349
H           -2.78702366996390        1.41041981210127        1.82007679397531
H           -3.10331818076612        4.87943499551882        0.66359573292361
H           -4.49681475964150        6.26006703058986       -2.31768779795914
H           -3.90184031675668        6.65754571975270       -0.69898585957702
H           -5.62629289012120        6.39346253399067       -0.97453923038586
H           -5.79442399044679        3.98536164482442       -2.50916644323336
H           -6.38463045646687        0.66347017828492       -1.68464280918472
H           -6.43461194505408        1.84923947937345       -2.99632165340618
H           -5.09484393582292        0.70675882373605       -2.87766173287120
H           -4.94076810394035       -2.60470818739125       -2.61346064891087
H           -3.64520389579277       -2.92020315283796       -1.46407093096713
H           -3.84520581434190       -1.30233998436300       -2.13058272729531
H           -6.42457766044085       -3.64110414374009       -0.97410573500730

          :  Hamiltonian                  GFN2-xTB          :
         :: gradient norm              0.000031410157 Eh/a0 ::
         :: HOMO-LUMO gap              2.118244786817 eV    ::
         :: SCC energy              -133.280231913567 Eh    ::
         :: -> dispersion             -0.124430826280 Eh    ::
         :: repulsion energy           2.420831576829 Eh    ::

    * Orbital Energies and Occupations

         #    Occupation            Energy/Eh            Energy/eV
      -------------------------------------------------------------
         1        2.0000           -0.6799794             -18.5032
       ...           ...                  ...                  ...
       111        2.0000           -0.4087538             -11.1228
       112        2.0000           -0.4079396             -11.1006
       113        2.0000           -0.4016098             -10.9284
       114        2.0000           -0.3981070             -10.8330
       115        2.0000           -0.3935627             -10.7094
       116        2.0000           -0.3834432             -10.4340
       117        2.0000           -0.3818586             -10.3909
       118        2.0000           -0.3813397             -10.3768
       119        2.0000           -0.3755658             -10.2197
       120        2.0000           -0.3713733             -10.1056
       121        2.0000           -0.3695181             -10.0551
       122        2.0000           -0.3686500             -10.0315
       123        2.0000           -0.3518688              -9.5748 (HOMO)
       124                         -0.2740248              -7.4566 (LUMO)
       125                         -0.2494539              -6.7880
       126                         -0.2385026              -6.4900
       127                         -0.2283974              -6.2150
       128                         -0.2276525              -6.1947
       129                         -0.2224484              -6.0531
       130                         -0.2146864              -5.8419
       131                         -0.2119193              -5.7666
       132                         -0.2080033              -5.6601
       133                         -0.2073259              -5.6416
       134                         -0.2004040              -5.4533
       ...                                ...                  ...
       245                          0.7535364              20.5048
      -------------------------------------------------------------
                  HL-Gap            0.0778440 Eh            2.1182 eV

     #   Z          covCN         q      C6AA      α(0)
     1   6 C        3.758    -0.107    22.598     6.778
     2   6 C        2.963     0.013    27.715     8.635
     3   6 C        2.929    -0.057    29.405     8.893
     4   6 C        2.967     0.011    27.757     8.642
     5   6 C        3.759    -0.112    22.698     6.792
     6   6 C        2.890    -0.085    30.123     8.998
     7   5 B        2.710     0.247    17.752     7.065
     8   6 C        2.884    -0.063    29.561     8.914
     9   6 C        2.924    -0.027    28.677     8.782
    10   6 C        2.918    -0.045    29.118     8.849
    11   6 C        2.914     0.064    26.566     8.452
    12   7 N        2.802    -0.041    22.032     6.971
    13   6 C        3.078     0.048    26.852     8.496
    14   6 C        2.910    -0.050    29.241     8.867
    15   6 C        2.924    -0.033    28.814     8.803
    16   6 C        2.920    -0.040    28.998     8.831
    17   6 C        2.912    -0.032    28.801     8.800
    18   6 C        3.068    -0.017    28.359     8.732
    19   6 C        3.069    -0.016    28.340     8.729
    20   6 C        2.915    -0.047    29.160     8.855
    21   6 C        2.913     0.053    26.815     8.491
    22   7 N        2.804    -0.044    22.090     6.981
    23   6 C        3.078     0.046    26.877     8.499
    24   6 C        2.910    -0.051    29.278     8.873
    25   6 C        2.924    -0.034    28.853     8.809
    26   6 C        2.920    -0.042    29.044     8.838
    27   6 C        2.912    -0.033    28.831     8.805
    28   6 C        3.069    -0.018    28.389     8.737
    29   6 C        3.068    -0.018    28.390     8.737
    30   6 C        2.912    -0.033    28.832     8.805
    31   6 C        2.920    -0.042    29.043     8.837
    32   6 C        2.924    -0.034    28.850     8.808
    33   6 C        2.910    -0.051    29.274     8.872
    34   6 C        3.079     0.046    26.874     8.499
    35   6 C        2.926    -0.047    29.162     8.856
    36   6 C        2.909    -0.050    29.242     8.867
    37   6 C        3.076     0.044    26.932     8.508
    38   6 C        2.918    -0.045    29.126     8.850
    39   6 C        2.924    -0.027    28.677     8.782
    40   6 C        2.890    -0.085    30.123     8.998
    41   6 C        2.967     0.011    27.761     8.642
    42   6 C        3.759    -0.109    22.628     6.782
    43   6 C        2.929    -0.056    29.404     8.893
    44   6 C        2.963     0.013    27.714     8.635
    45   6 C        3.758    -0.107    22.599     6.778
    46   6 C        2.929    -0.057    29.406     8.893
    47   6 C        2.967     0.011    27.758     8.642
    48   6 C        3.759    -0.112    22.697     6.792
    49   6 C        2.967     0.011    27.760     8.642
    50   6 C        3.759    -0.109    22.628     6.782
    51   6 C        2.929    -0.057    29.405     8.893
    52   1 H        0.924     0.044     2.400     2.423
    53   1 H        0.925     0.038     2.472     2.459
    54   1 H        0.925     0.042     2.428     2.437
    55   1 H        0.925     0.024     2.678     2.559
    56   1 H        0.925     0.038     2.472     2.459
    57   1 H        0.925     0.049     2.327     2.385
    58   1 H        0.925     0.037     2.483     2.464
    59   1 H        0.926     0.033     2.544     2.494
    60   1 H        0.926     0.035     2.514     2.479
    61   1 H        0.926     0.029     2.597     2.520
    62   1 H        0.926     0.030     2.580     2.512
    63   1 H        0.926     0.030     2.592     2.517
    64   1 H        0.926     0.032     2.551     2.498
    65   1 H        0.926     0.042     2.429     2.437
    66   1 H        0.926     0.026     2.648     2.544
    67   1 H        0.926     0.027     2.636     2.539
    68   1 H        0.926     0.026     2.649     2.545
    69   1 H        0.926     0.029     2.601     2.522
    70   1 H        0.926     0.029     2.602     2.522
    71   1 H        0.926     0.026     2.648     2.545
    72   1 H        0.926     0.027     2.631     2.537
    73   1 H        0.926     0.026     2.639     2.540
    74   1 H        0.926     0.040     2.446     2.446
    75   1 H        0.926     0.034     2.529     2.487
    76   1 H        0.926     0.035     2.522     2.483
    77   1 H        0.926     0.033     2.543     2.494
    78   1 H        0.924     0.040     2.442     2.444
    79   1 H        0.925     0.040     2.443     2.444
    80   1 H        0.925     0.036     2.500     2.472
    81   1 H        0.925     0.023     2.684     2.562
    82   1 H        0.925     0.042     2.424     2.435
    83   1 H        0.925     0.038     2.473     2.459
    84   1 H        0.924     0.044     2.401     2.423
    85   1 H        0.925     0.024     2.677     2.559
    86   1 H        0.925     0.049     2.328     2.386
    87   1 H        0.925     0.037     2.483     2.464
    88   1 H        0.925     0.038     2.474     2.460
    89   1 H        0.925     0.040     2.445     2.445
    90   1 H        0.924     0.041     2.440     2.443
    91   1 H        0.925     0.036     2.499     2.472
    92   1 H        0.925     0.023     2.685     2.563

molecular dipole:
                 x           y           z       tot (Debye)
 q only:       -1.351      -0.102      -0.086
   full:       -1.388      -0.134      -0.095       3.551

 projected vibrational frequencies (cm⁻¹)
eigval :       -0.00    -0.00    -0.00    -0.00    -0.00     0.00
eigval :        6.77    10.73    12.32    13.28    16.28    24.00
eigval :       26.01    27.82    29.92    34.51    37.58    50.67
eigval :       52.30    56.81    69.05    87.13    98.46   100.14
eigval :      102.18   106.32   121.60   126.15   133.55   134.65
eigval :      142.30   146.70   156.01   160.84   179.06   182.68
eigval :      187.50   200.82   205.83   207.68   223.90   251.12
eigval :      268.09   272.64   274.12   275.04   278.66   304.14
eigval :      308.92   318.44   324.07   333.67   338.65   376.63
eigval :      381.39   392.13   396.60   399.08   413.15   422.94
eigval :      430.48   435.65   455.46   463.72   480.60   486.22
eigval :      491.80   497.45   497.75   507.03   510.50   518.17
eigval :      523.72   529.38   534.80   537.63   541.19   543.27
eigval :      557.35   561.81   585.96   588.49   597.21   600.13
eigval :      600.29   604.53   619.91   628.37   635.33   672.31
eigval :      673.80   678.80   679.47   687.83   696.10   707.61
eigval :      708.86   728.06   755.61   769.21   775.53   780.47
eigval :      794.73   814.03   827.17   840.05   841.50   866.66
eigval :      870.13   872.76   879.78   880.78   883.96   886.18
eigval :      890.67   890.78   894.24   898.15   901.18   903.41
eigval :      904.18   913.84   922.03   922.40   923.53   932.13
eigval :      937.27   944.60   964.46   964.70   972.69   975.72
eigval :      976.09  1012.04  1020.30  1020.60  1022.60  1028.19
eigval :     1028.49  1028.80  1030.81  1031.96  1032.79  1033.19
eigval :     1040.06  1041.37  1044.87  1045.07  1069.70  1071.92
eigval :     1073.14  1104.85  1108.67  1125.57  1136.49  1151.22
eigval :     1154.08  1166.48  1173.34  1178.68  1181.60  1182.80
eigval :     1185.08  1192.70  1207.06  1221.34  1223.56  1224.57
eigval :     1235.23  1235.69  1237.24  1242.61  1247.95  1272.06
eigval :     1278.78  1296.42  1304.14  1304.90  1306.24  1307.65
eigval :     1308.41  1336.31  1338.61  1344.33  1353.28  1359.00
eigval :     1360.82  1365.17  1384.40  1397.36  1402.26  1402.41
eigval :     1404.10  1404.22  1405.51  1408.71  1422.32  1428.04
eigval :     1428.56  1429.22  1429.36  1441.86  1453.54  1455.96
eigval :     1475.00  1478.48  1479.40  1480.82  1482.70  1482.96
eigval :     1483.47  1485.90  1485.97  1487.56  1488.55  1488.71
eigval :     1488.87  1489.30  1491.79  1495.89  1497.37  1546.51
eigval :     1561.91  1562.41  1566.77  1574.32  1584.01  1586.49
eigval :     1589.26  1598.69  1599.50  1601.41  1603.61  1615.04
eigval :     1616.35  2994.89  2995.29  2997.35  2998.87  3009.35
eigval :     3010.13  3018.59  3019.02  3020.26  3022.32  3033.23
eigval :     3033.64  3037.62  3038.06  3039.84  3040.63  3056.55
eigval :     3056.68  3061.19  3061.36  3062.70  3063.22  3070.21
eigval :     3071.43  3073.73  3074.10  3078.07  3078.98  3080.18
eigval :     3083.51  3085.08  3086.00  3086.17  3087.68  3088.39
eigval :     3091.01  3093.15  3094.91  3097.10  3098.35  3099.86

   temp. (K)  partition function   enthalpy   heat capacity  entropy
                                   cal/mol     cal/K/mol   cal/K/mol   J/K/mol
 298.15  VIB  0.403E+24            27400.518    162.602    174.766
         ROT  0.125E+09              888.752      2.981     40.038
         INT  0.506E+32            28289.270    165.583    214.804
         TR   0.163E+29             1481.254      4.968     45.307
         TOT                       29770.5244   170.5508   260.1117  1088.3074

       T/K    H(0)-H(T)+PV         H(T)/Eh          T*S/Eh         G(T)/Eh
   ------------------------------------------------------------------------
    298.15    0.474424E-01    0.782500E+00    0.123587E+00    0.658913E+00
   ------------------------------------------------------------------------

         :::::::::::::::::::::::::::::::::::::::::::::::::::::
         ::                  THERMODYNAMIC                  ::
         :::::::::::::::::::::::::::::::::::::::::::::::::::::
         :: total free energy        -130.200487819116 Eh   ::
         ::.................................................::
         :: total energy             -130.859400336738 Eh   ::
         :: zero point energy           0.735057637928 Eh   ::
         :: G(RRHO) w/o ZPVE           -0.076145120306 Eh   ::
         :: G(RRHO) contrib.            0.658912517622 Eh   ::
         :::::::::::::::::::::::::::::::::::::::::::::::::::::

           -------------------------------------------------
          | TOTAL ENERGY             -130.859400336738 Eh   |
          | TOTAL ENTHALPY           -130.076900348350 Eh   |
          | TOTAL FREE ENERGY        -130.200487819116 Eh   |
          | GRADIENT NORM               0.000031409193 Eh/α |
          | HOMO-LUMO GAP               2.118243660154 eV   |
           -------------------------------------------------

 * finished run on 2025/07/19 at 04:12:43.090
