   * xtb version 6.7.1 (edcfbbe) compiled by 'albert@albert-system' on 2024-07-22

   ID    Z sym.   atoms
    1    8 O      1, 3, 15, 16, 24, 25, 33, 34
    2    6 C      2, 4-14, 17-23, 26-32, 35-38
    3    1 H      39-60

          program call               : xtb data2507/gas/H4TCPE/H4TCPE_gas_S0_crest.xyz --gfn 2 --ohess vtight --parallel 40 --molden --ceasefiles --namespace data2507/gas/H4TCPE/H4TCPE_gas_S0_finalOpt
          :  Hamiltonian                  GFN2-xTB          :
 * total energy  :  -108.0301374 Eh     change       -0.2108109E-08 Eh
 * total energy  :  -108.0301384 Eh     change       -0.9621143E-06 Eh
 * total energy  :  -108.0301399 Eh     change       -0.1486250E-05 Eh
 * total energy  :  -108.0301410 Eh     change       -0.1126616E-05 Eh
 * total energy  :  -108.0301427 Eh     change       -0.1736840E-05 Eh
 * total energy  :  -108.0301444 Eh     change       -0.1722131E-05 Eh
 * total energy  :  -108.0301452 Eh     change       -0.7353916E-06 Eh
 * total energy  :  -108.0301456 Eh     change       -0.4472621E-06 Eh
 * total energy  :  -108.0301456 Eh     change        0.2449704E-07 Eh
 * total energy  :  -108.0301459 Eh     change       -0.3255794E-06 Eh
 * total energy  :  -108.0301461 Eh     change       -0.1827546E-06 Eh
 * total energy  :  -108.0301463 Eh     change       -0.2124421E-06 Eh
 * total energy  :  -108.0301465 Eh     change       -0.1893228E-06 Eh
 * total energy  :  -108.0301466 Eh     change       -0.1087025E-06 Eh
 * total energy  :  -108.0301467 Eh     change       -0.9706032E-07 Eh
   *** GEOMETRY OPTIMIZATION CONVERGED AFTER 15 ITERATIONS ***

 final structure:
================
60
 xtb: 6.7.1 (edcfbbe)
O            6.57913765466256       -0.04631262976804       -1.38658327563854
C            5.74221082823453       -0.91492608541811       -1.39993064415867
O            6.06574757397807       -2.21235571391072       -1.26756244580393
C            4.29150047199811       -0.68312124258079       -1.55645668415008
C            3.37541919681378       -1.73186396904588       -1.55637556059358
C            2.02750007915695       -1.47020872945964       -1.70220527328407
C            1.56584590677320       -0.16483982922575       -1.84386389654602
C            0.09905789799630        0.12641447786407       -1.96871453006149
C           -0.62793680589953        0.16804061171180       -0.59270566664596
C           -0.71040749807597       -1.20325508941362        0.06681327617124
C           -1.08199907787824       -2.31704444067787       -0.68473515243556
C           -1.22210399740473       -3.55761972737337       -0.09922451988727
C           -1.01486612397935       -3.71638321526339        1.26856123091461
C           -1.16493426767702       -5.06272534594303        1.85877583834674
O           -1.43791595171854       -6.05805834911268        1.23464868854710
O           -0.96516377735745       -5.08901385723708        3.18653018120391
C           -0.69511868398706       -2.60260023378528        2.03759984167797
C           -0.55528449081306       -1.36442392571225        1.44133389157474
C            0.13417229740618        1.20229215274978        0.21921395620526
C            1.32407542807850        0.87057307517524        0.86491895532031
C            2.06962547163068        1.83156210216873        1.51824047524341
C            1.64426317588637        3.15669090326062        1.52689156217679
C            2.41295264309306        4.22099345657877        2.20654196342755
O            2.10278622591339        5.38654603492351        2.22223030257644
O            3.51669513821372        3.77056130877048        2.82328053960226
C            0.46882202971122        3.50032318685149        0.86438299491083
C           -0.27130244480456        2.53381700492308        0.21404669287525
C           -2.09558253412244        0.56183827337451       -0.73374770744202
C           -2.82291439347045        0.79636111604021        0.43393018762515
C           -4.16202040996245        1.11979543923104        0.39126895846939
C           -4.81434988332647        1.20998117596933       -0.83631037030101
C           -6.24840924914371        1.55315066909988       -0.93934399747307
O           -6.85797609215354        1.64553617631374       -1.97594154266683
O           -6.83422428084920        1.76056609962732        0.25076663456484
C           -4.09921137068230        0.97094223542948       -2.00497216440224
C           -2.75607250236906        0.64903031077474       -1.95349297174508
C            2.48969298009859        0.87709619898176       -1.85587901335102
C            3.83813603486520        0.62490944280915       -1.71368619019211
H            7.02686117564929       -2.29888803851263       -1.17173725597189
H            3.72610486180609       -2.74554888408440       -1.44319221712083
H            1.32516730964777       -2.29031139308219       -1.70042273289146
H           -0.02959386245582        1.10586471208243       -2.43406885064927
H           -0.35732590468725       -0.62642419977656       -2.60977812587720
H           -1.28267591469662       -2.22166424177332       -1.74076057042391
H           -1.49919960871414       -4.42062369459376       -0.68539679773996
H           -1.07739035608123       -5.99474985674755        3.51442044973076
H           -0.56108775380175       -2.71051473869827        3.10234276773838
H           -0.32278502212806       -0.51443380417571        2.06436551701352
H            1.67778786389939       -0.14922238367539        0.85434792512352
H            2.98834187955925        1.56205683253589        2.01425842339759
H            3.98215991756274        4.51127207689520        3.24180799789409
H            0.15539745881143        4.53309273730736        0.86522295824964
H           -1.17342202000228        2.81962023140735       -0.30632101504228
H           -2.32512159844807        0.73004862946377        1.38947462252236
H           -4.70991808975357        1.30315723908876        1.30175999512530
H           -7.76938851457412        1.98119838489126        0.11932665805253
H           -4.61422391688059        1.04315036887958       -2.95086418302631
H           -2.23593603858831        0.47542173716417       -2.88141305547345
H            2.14495711941224        1.89408587014599       -1.97479462167220
H            4.56010274862702        1.42695429565682       -1.71920837411501

          :  Hamiltonian                  GFN2-xTB          :
         :: gradient norm              0.000043555424 Eh/a0 ::
         :: HOMO-LUMO gap              3.370531061273 eV    ::
         :: SCC energy              -109.578114718329 Eh    ::
         :: -> dispersion             -0.081453388931 Eh    ::
         :: repulsion energy           1.547967997336 Eh    ::

    * Orbital Energies and Occupations

         #    Occupation            Energy/Eh            Energy/eV
      -------------------------------------------------------------
         1        2.0000           -0.7486782             -20.3726
       ...           ...                  ...                  ...
        83        2.0000           -0.4393695             -11.9559
        84        2.0000           -0.4319976             -11.7553
        85        2.0000           -0.4306975             -11.7199
        86        2.0000           -0.4299134             -11.6985
        87        2.0000           -0.4280851             -11.6488
        88        2.0000           -0.4252430             -11.5715
        89        2.0000           -0.4251468             -11.5688
        90        2.0000           -0.4239702             -11.5368
        91        2.0000           -0.4217292             -11.4758
        92        2.0000           -0.4202910             -11.4367
        93        2.0000           -0.4186811             -11.3929
        94        2.0000           -0.4155222             -11.3069
        95        2.0000           -0.4134891             -11.2516 (HOMO)
        96                         -0.2896244              -7.8811 (LUMO)
        97                         -0.2833515              -7.7104
        98                         -0.2804020              -7.6301
        99                         -0.2793347              -7.6011
       100                         -0.2479934              -6.7482
       101                         -0.2475146              -6.7352
       102                         -0.2443794              -6.6499
       103                         -0.2390140              -6.5039
       104                         -0.2064078              -5.6166
       105                         -0.2005495              -5.4572
       106                         -0.1964206              -5.3449
       ...                                ...                  ...
       174                          0.6837388              18.6055
      -------------------------------------------------------------
                  HL-Gap            0.1238647 Eh            3.3705 eV

     #   Z          covCN         q      C6AA      α(0)
     1   8 O        0.857    -0.417    22.029     6.293
     2   6 C        2.697     0.354    20.983     7.497
     3   8 O        1.660    -0.382    20.495     6.111
     4   6 C        2.973    -0.020    28.495     8.756
     5   6 C        2.919    -0.023    28.573     8.766
     6   6 C        2.923    -0.037    28.925     8.820
     7   6 C        2.968     0.023    27.499     8.602
     8   6 C        3.817    -0.065    21.741     6.636
     9   6 C        3.913     0.011    20.332     6.409
    10   6 C        2.986     0.023    27.481     8.599
    11   6 C        2.924    -0.033    28.829     8.805
    12   6 C        2.923    -0.022    28.547     8.762
    13   6 C        2.972    -0.019    28.481     8.754
    14   6 C        2.697     0.355    20.977     7.496
    15   8 O        0.857    -0.416    22.003     6.289
    16   8 O        1.660    -0.381    20.478     6.109
    17   6 C        2.920    -0.022    28.554     8.763
    18   6 C        2.923    -0.035    28.869     8.811
    19   6 C        2.979     0.020    27.566     8.612
    20   6 C        2.923    -0.033    28.814     8.803
    21   6 C        2.919    -0.023    28.571     8.765
    22   6 C        2.973    -0.018    28.465     8.752
    23   6 C        2.697     0.355    20.975     7.496
    24   8 O        0.857    -0.416    22.012     6.290
    25   8 O        1.660    -0.379    20.455     6.105
    26   6 C        2.923    -0.021    28.540     8.761
    27   6 C        2.922    -0.034    28.845     8.807
    28   6 C        2.989     0.021    27.539     8.608
    29   6 C        2.925    -0.033    28.829     8.805
    30   6 C        2.919    -0.022    28.545     8.761
    31   6 C        2.973    -0.019    28.470     8.752
    32   6 C        2.697     0.355    20.975     7.496
    33   8 O        0.857    -0.416    21.996     6.288
    34   8 O        1.660    -0.380    20.466     6.107
    35   6 C        2.924    -0.021    28.522     8.758
    36   6 C        2.921    -0.037    28.911     8.817
    37   6 C        2.923    -0.033    28.833     8.806
    38   6 C        2.923    -0.020    28.517     8.757
    39   1 H        0.804     0.328     0.641     1.258
    40   1 H        0.926     0.059     2.205     2.322
    41   1 H        0.926     0.043     2.414     2.430
    42   1 H        0.924     0.050     2.318     2.381
    43   1 H        0.925     0.055     2.257     2.349
    44   1 H        0.926     0.043     2.408     2.427
    45   1 H        0.926     0.064     2.151     2.293
    46   1 H        0.804     0.329     0.640     1.256
    47   1 H        0.926     0.060     2.193     2.316
    48   1 H        0.926     0.044     2.395     2.420
    49   1 H        0.926     0.042     2.426     2.436
    50   1 H        0.926     0.060     2.201     2.320
    51   1 H        0.804     0.329     0.639     1.255
    52   1 H        0.926     0.064     2.150     2.293
    53   1 H        0.926     0.042     2.429     2.437
    54   1 H        0.926     0.042     2.423     2.434
    55   1 H        0.926     0.061     2.186     2.312
    56   1 H        0.804     0.329     0.639     1.256
    57   1 H        0.926     0.066     2.134     2.285
    58   1 H        0.926     0.046     2.365     2.405
    59   1 H        0.926     0.039     2.456     2.451
    60   1 H        0.926     0.064     2.156     2.296

molecular dipole:
                 x           y           z       tot (Debye)
 q only:       -0.033      -0.612       0.580
   full:        0.052      -0.725       0.876       2.894

 projected vibrational frequencies (cm⁻¹)
eigval :       -0.00    -0.00    -0.00     0.00     0.00     0.00
eigval :       13.85    19.56    21.53    29.40    31.93    33.03
eigval :       37.02    37.58    38.27    55.77    61.14    75.94
eigval :       83.34    97.11   108.68   119.41   123.35   136.58
eigval :      141.72   151.45   162.08   169.31   207.56   221.81
eigval :      251.85   266.65   270.90   284.19   303.49   311.39
eigval :      364.18   365.87   370.41   371.03   376.76   387.04
eigval :      393.76   418.42   424.86   459.82   467.31   480.00
eigval :      483.45   489.04   491.90   498.30   507.40   572.43
eigval :      586.88   594.47   598.65   601.88   602.70   603.98
eigval :      606.15   608.86   610.00   614.29   621.60   650.73
eigval :      669.25   673.36   683.09   691.44   722.88   726.48
eigval :      731.08   736.91   739.87   756.19   772.48   800.48
eigval :      820.80   826.89   831.77   839.88   857.87   864.06
eigval :      870.40   874.93   876.24   883.68   921.04   922.90
eigval :      925.81   928.27   930.66   931.56   931.69   934.05
eigval :      962.76   983.02   999.01  1012.18  1017.04  1026.50
eigval :     1055.86  1109.01  1110.48  1112.12  1114.14  1131.79
eigval :     1140.59  1142.12  1143.49  1146.96  1148.30  1149.07
eigval :     1149.90  1163.50  1191.79  1197.29  1198.00  1201.90
eigval :     1206.21  1212.16  1233.27  1255.57  1266.80  1271.44
eigval :     1274.19  1277.07  1280.64  1283.19  1286.13  1288.35
eigval :     1301.61  1324.80  1330.58  1332.14  1337.64  1396.19
eigval :     1404.01  1406.42  1413.89  1471.78  1476.46  1481.02
eigval :     1483.41  1486.35  1568.07  1572.25  1573.93  1576.21
eigval :     1591.10  1593.00  1596.04  1598.35  1754.69  1755.04
eigval :     1755.11  1757.27  2981.76  3002.93  3080.09  3087.18
eigval :     3090.04  3090.88  3091.45  3093.41  3094.79  3097.73
eigval :     3102.15  3102.62  3103.24  3109.71  3109.93  3112.13
eigval :     3112.74  3112.75  3457.44  3457.53  3457.70  3458.16

   temp. (K)  partition function   enthalpy   heat capacity  entropy
                                   cal/mol     cal/K/mol   cal/K/mol   J/K/mol
 298.15  VIB  0.137E+17            19397.880    114.532    123.049
         ROT  0.454E+08              888.752      2.981     38.017
         INT  0.623E+24            20286.632    117.513    161.066
         TR   0.112E+29             1481.254      4.968     44.557
         TOT                       21767.8862   122.4814   205.6231   860.3270

       T/K    H(0)-H(T)+PV         H(T)/Eh          T*S/Eh         G(T)/Eh
   ------------------------------------------------------------------------
    298.15    0.346893E-01    0.477223E+00    0.976982E-01    0.379524E+00
   ------------------------------------------------------------------------

         :::::::::::::::::::::::::::::::::::::::::::::::::::::
         ::                  THERMODYNAMIC                  ::
         :::::::::::::::::::::::::::::::::::::::::::::::::::::
         :: total free energy        -107.650622293512 Eh   ::
         ::.................................................::
         :: total energy             -108.030146720991 Eh   ::
         :: zero point energy           0.442533253876 Eh   ::
         :: G(RRHO) w/o ZPVE           -0.063008826397 Eh   ::
         :: G(RRHO) contrib.            0.379524427478 Eh   ::
         :::::::::::::::::::::::::::::::::::::::::::::::::::::

           -------------------------------------------------
          | TOTAL ENERGY             -108.030146720991 Eh   |
          | TOTAL ENTHALPY           -107.552924132441 Eh   |
          | TOTAL FREE ENERGY        -107.650622293512 Eh   |
          | GRADIENT NORM               0.000043546198 Eh/α |
          | HOMO-LUMO GAP               3.370529339510 eV   |
           -------------------------------------------------

 * finished run on 2025/09/10 at 01:39:07.588
