   * xtb version 6.7.1 (edcfbbe) compiled by 'albert@albert-system' on 2024-07-22

   ID    Z sym.   atoms
    1    8 O      1, 3, 15, 16, 24, 25, 33, 34
    2    6 C      2, 4-14, 17-23, 26-32, 35-38
    3    1 H      39-60

          program call               : xtb data2507/gas/H4TCPE/H4TCPE.xyz --gfn 2 --ohess vtight --parallel 40 --molden --ceasefiles --namespace data2507/gas/H4TCPE/H4TCPE_gas_S0_preOpt
          :  Hamiltonian                  GFN2-xTB          :
 * total energy  :  -108.0069469 Eh     change       -0.2146379E-08 Eh
 * total energy  :  -108.0209020 Eh     change       -0.1395507E-01 Eh
 * total energy  :  -108.0263568 Eh     change       -0.5454824E-02 Eh
 * total energy  :  -108.0279947 Eh     change       -0.1637849E-02 Eh
 * total energy  :  -108.0286121 Eh     change       -0.6173975E-03 Eh
 * total energy  :  -108.0288518 Eh     change       -0.2397099E-03 Eh
 * total energy  :  -108.0290122 Eh     change       -0.1603994E-03 Eh
 * total energy  :  -108.0291436 Eh     change       -0.1313943E-03 Eh
 * total energy  :  -108.0292411 Eh     change       -0.9748868E-04 Eh
 * total energy  :  -108.0293241 Eh     change       -0.8304201E-04 Eh
 * total energy  :  -108.0298664 Eh     change       -0.1167190E-05 Eh
 * total energy  :  -108.0298673 Eh     change       -0.8682294E-06 Eh
 * total energy  :  -108.0298682 Eh     change       -0.8658617E-06 Eh
 * total energy  :  -108.0298691 Eh     change       -0.9315020E-06 Eh
 * total energy  :  -108.0298699 Eh     change       -0.7581909E-06 Eh
 * total energy  :  -108.0298704 Eh     change       -0.4994806E-06 Eh
 * total energy  :  -108.0298705 Eh     change       -0.1646184E-06 Eh
 * total energy  :  -108.0298705 Eh     change        0.3142954E-07 Eh
 * total energy  :  -108.0298706 Eh     change       -0.9654090E-07 Eh
   *** GEOMETRY OPTIMIZATION CONVERGED AFTER 42 ITERATIONS ***

 final structure:
================
60
 xtb: 6.7.1 (edcfbbe)
O            6.60005457002015       -0.22741201074279       -1.27390579856631
C            5.80034984937954        0.67544731217777       -1.25807673249162
O            6.17894652676776        1.95450070637353       -1.09612145750961
C            4.34008891447437        0.50855042698074       -1.40911211583122
C            3.83097924923967       -0.77497949893539       -1.59481328321888
C            2.47233151191379       -0.96667159409941       -1.73455281201301
C            1.59352305712469        0.11269663076302       -1.69207767404456
C            0.11536643989607       -0.11281404061714       -1.81844263541455
C           -0.61074163956573       -0.15578696161769       -0.44200816655503
C            0.10280580688046       -1.24508822248841        0.34177152347913
C            1.31021095210376       -0.98723646496670        0.98865256849472
C            2.00969312901507       -1.99852020630650        1.61655142728658
C            1.51953520351067       -3.30092403314622        1.59701773306474
C            2.23759603408724       -4.41719492426366        2.24840168552914
O            1.87690892984911       -5.56802988872521        2.22848370832211
O            3.35677375607993       -4.03342999905148        2.88186283851048
C            0.32584299892824       -3.57089982340704        0.93316421593360
C           -0.36840660773474       -2.55433393123599        0.30902743419846
C           -0.62722305223164        1.20079448844630        0.25215915699090
C           -0.45414616756419        1.32168492709314        1.62880659634057
C           -0.53447860569000        2.55207178016121        2.24921050007923
C           -0.81164722513649        3.69805341103035        1.50987104980961
C           -0.87985860463435        4.99824976457419        2.20871961156132
O           -0.70498813400450        5.15096938699859        3.39204506125256
O           -1.15872488042007        6.02859362495314        1.39301155622449
C           -1.03802052773008        3.58207719848975        0.14177192423014
C           -0.95544601426020        2.34742098554752       -0.46920053923226
C           -2.09545637618617       -0.47659718116282       -0.58882166178925
C           -2.75892099368237       -0.51399553519761       -1.80924027251809
C           -4.11709066349654       -0.76901737932799       -1.87134703871016
C           -4.84254583950939       -0.98942965025747       -0.70651695088435
C           -6.29441186411974       -1.26539431591959       -0.72870938870230
O           -6.96993599466027       -1.46345136247909        0.25021497919441
O           -6.81659336347304       -1.27807810062471       -1.96647868752855
C           -4.18580576455566       -0.94992423166223        0.52254999497725
C           -2.83370354244192       -0.69366938369547        0.57574699375362
C            2.11068329723349        1.39343220685703       -1.52069714168004
C            3.46910746610205        1.59449233348793       -1.37661809845705
H            7.14326422099154        1.99799079580194       -1.00323539576951
H            4.51842044820988       -1.60629103417095       -1.62434814741177
H            2.08429531569399       -1.96504073276048       -1.87565521601878
H           -0.30977306592685        0.67375371211801       -2.44045699245941
H           -0.05552576138295       -1.07473054181361       -2.30628203659856
H            1.71375444966004        0.01384665951110        1.00018623372880
H            2.94209650573784       -1.78581770439369        2.11459482250239
H            3.78614401241661       -4.80491322358627        3.28301333138284
H           -0.03872295180437       -4.58652857075659        0.91286002281890
H           -1.28645726389076       -2.78329391691159       -0.21157608129524
H           -0.25560376965790        0.44863769691827        2.23101742509950
H           -0.38870982946443        2.64493824646090        3.31457328788991
H           -1.19224522489118        6.85007417659359        1.90730263381444
H           -1.28422443773521        4.46014766354260       -0.43436594257510
H           -1.16842180041287        2.28413171095359       -1.52548357573166
H           -2.22900068132446       -0.35246850459106       -2.73402167449904
H           -4.61968092293880       -0.79888375781247       -2.82530612368023
H           -7.76698633554466       -1.46427814355805       -1.91593587766026
H           -4.75649413410378       -1.12211361271082        1.42203411281229
H           -2.33513781487942       -0.66638681577815        1.53259091109743
H            1.44333789438060        2.24184351989501       -1.49386217197576
H            3.86301931536387        2.58922593305667       -1.23994564953838

          :  Hamiltonian                  GFN2-xTB          :
         :: gradient norm              0.000042620381 Eh/a0 ::
         :: HOMO-LUMO gap              3.374275255377 eV    ::
         :: SCC energy              -109.577902351684 Eh    ::
         :: -> dispersion             -0.081426548859 Eh    ::
         :: repulsion energy           1.548031757684 Eh    ::

    * Orbital Energies and Occupations

         #    Occupation            Energy/Eh            Energy/eV
      -------------------------------------------------------------
         1        2.0000           -0.7482401             -20.3607
       ...           ...                  ...                  ...
        83        2.0000           -0.4396107             -11.9624
        84        2.0000           -0.4322533             -11.7622
        85        2.0000           -0.4302478             -11.7076
        86        2.0000           -0.4295128             -11.6876
        87        2.0000           -0.4278427             -11.6422
        88        2.0000           -0.4251240             -11.5682
        89        2.0000           -0.4243864             -11.5481
        90        2.0000           -0.4238426             -11.5333
        91        2.0000           -0.4214305             -11.4677
        92        2.0000           -0.4196739             -11.4199
        93        2.0000           -0.4182174             -11.3803
        94        2.0000           -0.4154387             -11.3047
        95        2.0000           -0.4133301             -11.2473 (HOMO)
        96                         -0.2893277              -7.8730 (LUMO)
        97                         -0.2828954              -7.6980
        98                         -0.2800394              -7.6203
        99                         -0.2791631              -7.5964
       100                         -0.2477086              -6.7405
       101                         -0.2470434              -6.7224
       102                         -0.2443366              -6.6487
       103                         -0.2386817              -6.4949
       104                         -0.2060745              -5.6076
       105                         -0.2000843              -5.4446
       106                         -0.1961115              -5.3365
       ...                                ...                  ...
       174                          0.6849276              18.6378
      -------------------------------------------------------------
                  HL-Gap            0.1240024 Eh            3.3743 eV

     #   Z          covCN         q      C6AA      α(0)
     1   8 O        0.857    -0.417    22.021     6.292
     2   6 C        2.697     0.354    20.983     7.497
     3   8 O        1.660    -0.382    20.495     6.112
     4   6 C        2.973    -0.020    28.491     8.756
     5   6 C        2.923    -0.020    28.515     8.757
     6   6 C        2.923    -0.033    28.832     8.805
     7   6 C        2.968     0.022    27.501     8.602
     8   6 C        3.817    -0.065    21.734     6.635
     9   6 C        3.913     0.011    20.332     6.409
    10   6 C        2.979     0.019    27.572     8.613
    11   6 C        2.923    -0.033    28.812     8.802
    12   6 C        2.919    -0.022    28.566     8.765
    13   6 C        2.973    -0.018    28.459     8.751
    14   6 C        2.697     0.355    20.973     7.495
    15   8 O        0.857    -0.416    22.009     6.290
    16   8 O        1.660    -0.379    20.449     6.105
    17   6 C        2.923    -0.021    28.537     8.760
    18   6 C        2.922    -0.034    28.844     8.807
    19   6 C        2.986     0.023    27.483     8.599
    20   6 C        2.923    -0.034    28.839     8.807
    21   6 C        2.923    -0.020    28.513     8.757
    22   6 C        2.972    -0.019    28.476     8.753
    23   6 C        2.697     0.355    20.978     7.496
    24   8 O        0.857    -0.415    21.987     6.287
    25   8 O        1.660    -0.381    20.486     6.110
    26   6 C        2.919    -0.023    28.583     8.767
    27   6 C        2.925    -0.034    28.855     8.809
    28   6 C        2.989     0.021    27.539     8.608
    29   6 C        2.921    -0.038    28.944     8.822
    30   6 C        2.920    -0.022    28.563     8.764
    31   6 C        2.972    -0.019    28.472     8.752
    32   6 C        2.697     0.355    20.978     7.496
    33   8 O        0.857    -0.415    21.973     6.285
    34   8 O        1.660    -0.381    20.486     6.110
    35   6 C        2.922    -0.020    28.509     8.756
    36   6 C        2.925    -0.032    28.800     8.801
    37   6 C        2.923    -0.037    28.926     8.820
    38   6 C        2.919    -0.023    28.573     8.766
    39   1 H        0.804     0.329     0.641     1.258
    40   1 H        0.926     0.064     2.154     2.295
    41   1 H        0.926     0.040     2.454     2.450
    42   1 H        0.925     0.054     2.270     2.356
    43   1 H        0.924     0.050     2.324     2.384
    44   1 H        0.926     0.042     2.423     2.434
    45   1 H        0.926     0.060     2.196     2.317
    46   1 H        0.804     0.330     0.639     1.255
    47   1 H        0.926     0.064     2.148     2.292
    48   1 H        0.926     0.041     2.433     2.439
    49   1 H        0.926     0.046     2.368     2.407
    50   1 H        0.926     0.065     2.139     2.287
    51   1 H        0.804     0.329     0.640     1.256
    52   1 H        0.926     0.059     2.205     2.322
    53   1 H        0.926     0.041     2.439     2.442
    54   1 H        0.926     0.044     2.391     2.418
    55   1 H        0.926     0.061     2.189     2.314
    56   1 H        0.804     0.329     0.639     1.256
    57   1 H        0.926     0.066     2.132     2.283
    58   1 H        0.926     0.044     2.395     2.420
    59   1 H        0.926     0.042     2.426     2.436
    60   1 H        0.926     0.059     2.209     2.324

molecular dipole:
                 x           y           z       tot (Debye)
 q only:       -0.189       1.187      -1.602
   full:       -0.129       1.365      -1.575       5.306

 projected vibrational frequencies (cm⁻¹)
eigval :       -0.00    -0.00     0.00     0.00     0.00     0.00
eigval :       14.11    19.58    21.40    28.23    32.22    33.26
eigval :       37.48    38.00    38.82    55.73    60.42    75.29
eigval :       82.50    96.81   108.89   119.81   123.01   136.83
eigval :      142.04   152.63   161.23   168.40   207.72   222.53
eigval :      251.58   266.29   270.14   284.11   303.21   313.22
eigval :      364.76   366.06   370.24   370.97   376.34   385.62
eigval :      394.11   417.16   425.11   460.02   465.07   479.35
eigval :      482.59   486.95   496.41   502.15   506.87   570.93
eigval :      586.67   593.55   598.33   601.54   602.85   604.39
eigval :      606.71   609.01   611.03   613.79   620.87   651.41
eigval :      669.26   673.37   682.80   691.47   722.89   726.35
eigval :      730.99   736.97   739.92   756.15   772.41   800.41
eigval :      820.57   826.61   831.26   839.36   857.96   863.67
eigval :      871.51   874.77   877.06   884.86   918.79   922.14
eigval :      923.18   929.22   931.24   931.42   931.79   934.81
eigval :      963.77   982.98   999.38  1012.23  1017.05  1027.10
eigval :     1055.15  1108.91  1109.18  1112.08  1112.90  1132.76
eigval :     1139.78  1142.38  1143.78  1147.63  1148.45  1148.92
eigval :     1150.46  1161.88  1192.11  1197.45  1197.87  1202.15
eigval :     1206.18  1212.84  1234.19  1255.29  1265.60  1271.27
eigval :     1274.55  1277.78  1279.65  1284.08  1284.64  1287.83
eigval :     1301.80  1324.58  1330.89  1333.02  1337.78  1396.21
eigval :     1403.81  1406.37  1414.01  1471.45  1476.57  1480.77
eigval :     1483.48  1486.68  1568.16  1572.29  1574.09  1576.37
eigval :     1591.22  1593.09  1596.18  1598.46  1755.18  1755.33
eigval :     1755.95  1758.34  2981.21  3001.02  3080.24  3087.23
eigval :     3088.38  3090.48  3092.10  3094.07  3095.54  3102.71
eigval :     3102.76  3103.37  3104.06  3106.09  3108.37  3109.63
eigval :     3113.06  3113.15  3457.48  3457.84  3458.06  3458.25

   temp. (K)  partition function   enthalpy   heat capacity  entropy
                                   cal/mol     cal/K/mol   cal/K/mol   J/K/mol
 298.15  VIB  0.137E+17            19399.997    114.540    123.083
         ROT  0.455E+08              888.752      2.981     38.022
         INT  0.625E+24            20288.749    117.521    161.105
         TR   0.112E+29             1481.254      4.968     44.557
         TOT                       21770.0028   122.4890   205.6619   860.4893

       T/K    H(0)-H(T)+PV         H(T)/Eh          T*S/Eh         G(T)/Eh
   ------------------------------------------------------------------------
    298.15    0.346927E-01    0.477220E+00    0.977166E-01    0.379503E+00
   ------------------------------------------------------------------------

         :::::::::::::::::::::::::::::::::::::::::::::::::::::
         ::                  THERMODYNAMIC                  ::
         :::::::::::::::::::::::::::::::::::::::::::::::::::::
         :: total free energy        -107.650367325438 Eh   ::
         ::.................................................::
         :: total energy             -108.029870593995 Eh   ::
         :: zero point energy           0.442527159319 Eh   ::
         :: G(RRHO) w/o ZPVE           -0.063023890761 Eh   ::
         :: G(RRHO) contrib.            0.379503268558 Eh   ::
         :::::::::::::::::::::::::::::::::::::::::::::::::::::

           -------------------------------------------------
          | TOTAL ENERGY             -108.029870593995 Eh   |
          | TOTAL ENTHALPY           -107.552650726916 Eh   |
          | TOTAL FREE ENERGY        -107.650367325438 Eh   |
          | GRADIENT NORM               0.000042636775 Eh/α |
          | HOMO-LUMO GAP               3.374277147887 eV   |
           -------------------------------------------------

 * finished run on 2025/09/10 at 01:34:32.292
