   * xtb version 6.7.1 (edcfbbe) compiled by 'albert@albert-system' on 2024-07-22

   ID    Z sym.   atoms
    1    8 O      1, 3, 15, 16, 24, 25, 33, 34
    2    6 C      2, 4-14, 17-23, 26-32, 35-38
    3    1 H      39-60

          program call               : xtb data2507/gas/H4TCPE/H4TCPE_gas_S0_finalOpt.xtbopt.xyz --gfn 2 --spinpol --tblite --uhf 2 --ohess vtight --parallel 40 --molden --ceasefiles --namespace data2507/gas/H4TCPE/H4TCPE_gas_T1_preOpt
 * total energy  :  -107.9068197 Eh     change       -0.6670234E-08 Eh
 * total energy  :  -107.9131774 Eh     change       -0.6357650E-02 Eh
 * total energy  :  -107.9164430 Eh     change       -0.3265597E-02 Eh
 * total energy  :  -107.9173468 Eh     change       -0.9037923E-03 Eh
 * total energy  :  -107.9190206 Eh     change       -0.1673827E-02 Eh
 * total energy  :  -107.9202432 Eh     change       -0.1222590E-02 Eh
 * total energy  :  -107.9229828 Eh     change       -0.2739659E-02 Eh
 * total energy  :  -107.9274530 Eh     change       -0.4470161E-02 Eh
 * total energy  :  -107.9145944 Eh     change        0.1285863E-01 Eh
 * total energy  :  -107.9295790 Eh     change       -0.1498461E-01 Eh
 * total energy  :  -107.9334395 Eh     change       -0.6591199E-06 Eh
 * total energy  :  -107.9334401 Eh     change       -0.5784442E-06 Eh
 * total energy  :  -107.9334406 Eh     change       -0.4858161E-06 Eh
 * total energy  :  -107.9334410 Eh     change       -0.4372242E-06 Eh
 * total energy  :  -107.9334414 Eh     change       -0.3945234E-06 Eh
 * total energy  :  -107.9334419 Eh     change       -0.5121731E-06 Eh
 * total energy  :  -107.9334425 Eh     change       -0.5737896E-06 Eh
 * total energy  :  -107.9334431 Eh     change       -0.6363432E-06 Eh
 * total energy  :  -107.9334431 Eh     change       -0.1619412E-07 Eh
   *** GEOMETRY OPTIMIZATION CONVERGED AFTER 94 ITERATIONS ***

 final structure:
================
60
 xtb: 6.7.1 (edcfbbe)
O            6.50310282240126        0.04591315242535       -1.41378502671830
C            5.67133244759578       -0.82624238092701       -1.36972002527787
O            5.99744613460140       -2.10798376030099       -1.13917167649054
C            4.22001661442602       -0.61330072280025       -1.55676760686148
C            3.30765210170015       -1.66221938781015       -1.47599916476085
C            1.96071073484961       -1.41681172989937       -1.65402776986809
C            1.50173379783078       -0.13002762864403       -1.91663259888188
C            0.02553655196212        0.13086423015663       -2.05523578882357
C           -0.61974864723388        0.18227395457311       -0.67341631679380
C           -1.21245159369538       -1.07970503008177       -0.03193591306078
C           -1.24296001286291       -2.33453132284298       -0.78532811693899
C           -1.05416980365666       -3.53650021400557       -0.19004706123855
C           -0.84026178015839       -3.65083180492471        1.20150517170499
C           -0.64688969806258       -4.97275741358629        1.78246033711817
O           -0.62659726438833       -6.00926147532940        1.15345352305655
O           -0.48135496809981       -4.95775052065082        3.12371216194485
C           -0.84599606501324       -2.47165900034171        1.97792674988412
C           -1.03386605170353       -1.25518708508859        1.41115413593887
C            0.12685599950816        1.15403679472778        0.17985507970629
C            1.19133104334359        0.73751909665639        0.97467896167093
C            1.93959384705875        1.65730564885197        1.68170560052748
C            1.63294639944933        3.01286817468173        1.60039359131361
C            2.41321432110851        4.03540203146449        2.33280457215514
O            2.19588270539753        5.22053457881040        2.28856464931019
O            3.40796592217061        3.51910219408790        3.06929075051045
C            0.56899643886960        3.43354472022108        0.80516732602919
C           -0.17364121631365        2.51151642256962        0.09755692754267
C           -2.14799747306414        0.11476670761307       -0.53021854423153
C           -2.77602791236848        0.95280369244950        0.49285942743919
C           -4.01458180389832        1.48112150573361        0.33981853157347
C           -4.77493535006344        1.24277053644773       -0.82543469219678
C           -6.11715554594979        1.77965880151889       -1.00955815373973
O           -6.80115832918457        1.61121153887752       -1.99632921865517
O           -6.55908011602902        2.50760809389752        0.03968865956040
C           -4.20394111748760        0.45302512112934       -1.84789596882095
C           -2.97007945683957       -0.09130268139575       -1.72239415871641
C            2.41778957985075        0.91299682083211       -1.99932002795360
C            3.76538780612942        0.67651952206144       -1.82196897007604
H            6.95788588295548       -2.18549113664009       -1.02899817301801
H            3.65951256388437       -2.66121029714304       -1.27275457383938
H            1.25481831443018       -2.23169430813690       -1.58225971047273
H           -0.13529474823998        1.09778459709594       -2.53938074928847
H           -0.41953814623997       -0.64137794056334       -2.67850754900530
H           -1.42667004635721       -2.30654041612636       -1.84608463467323
H           -1.07317301926261       -4.44769671351841       -0.76933583679174
H           -0.36352261596032       -5.86702210378344        3.43682250281664
H           -0.70444471621893       -2.55572591055270        3.04407309069900
H           -1.02692674241376       -0.37876647460303        2.03734021798050
H            1.43431309570384       -0.31312962905403        1.03134443659156
H            2.76613627537760        1.33316072867900        2.29342998340873
H            3.88810757238652        4.23265958234316        3.51765687195304
H            0.34594849619752        4.48823679212415        0.75312533671128
H           -0.99654369533701        2.83718704742200       -0.52226705749082
H           -2.21886540174515        1.17240875754382        1.38848237968735
H           -4.44020190316319        2.09625128376888        1.11709361371424
H           -7.45352109187048        2.82676160388279       -0.15228604414452
H           -4.78994230475418        0.28996854566446       -2.73986868217360
H           -2.58001234001757       -0.68087876764583       -2.53426866926428
H            2.07024294254930        1.91591673683874       -2.20013551480459
H            4.48573218990232        1.47771533240882       -1.88301238497550

 projected vibrational frequencies (cm⁻¹)
eigval :       -0.00    -0.00    -0.00     0.00     0.00     0.00
eigval :       12.74    14.84    16.96    22.26    28.38    34.67
eigval :       37.14    49.41    53.24    56.04    60.55    80.11
eigval :       92.74   105.46   118.29   127.72   129.40   145.23
eigval :      147.87   149.06   160.99   172.22   197.71   214.65
eigval :      228.55   256.17   261.48   273.01   296.99   345.57
eigval :      355.23   365.07   368.12   373.06   376.84   388.25
eigval :      391.63   397.55   417.77   456.13   460.09   467.92
eigval :      479.65   483.94   489.60   491.95   505.89   559.10
eigval :      568.62   571.42   579.44   580.37   588.79   591.72
eigval :      600.34   602.34   605.48   606.67   612.47   649.31
eigval :      655.83   659.47   672.44   682.80   706.58   709.87
eigval :      720.18   726.37   733.31   743.41   758.51   775.84
eigval :      779.04   795.00   795.68   798.75   807.07   828.13
eigval :      837.33   854.23   874.56   876.45   881.34   908.90
eigval :      917.71   919.05   922.23   923.25   925.05   930.93
eigval :      931.84   956.04   960.80   966.86  1004.47  1007.23
eigval :     1012.27  1066.04  1084.70  1089.91  1109.85  1111.17
eigval :     1124.77  1127.06  1134.37  1138.27  1140.18  1143.15
eigval :     1145.52  1147.08  1155.99  1192.43  1194.47  1195.87
eigval :     1213.27  1226.48  1229.64  1246.68  1261.49  1263.80
eigval :     1272.26  1273.33  1281.41  1284.08  1285.59  1292.12
eigval :     1305.39  1315.08  1320.94  1326.43  1335.88  1394.79
eigval :     1396.37  1399.62  1402.10  1411.96  1415.36  1456.93
eigval :     1474.45  1480.97  1489.12  1496.43  1566.50  1577.63
eigval :     1581.44  1584.79  1590.92  1596.42  1709.26  1714.37
eigval :     1756.03  1757.14  2966.90  3022.18  3080.90  3081.62
eigval :     3082.11  3089.18  3091.63  3094.73  3099.21  3102.30
eigval :     3102.89  3103.42  3109.40  3110.73  3110.91  3113.82
eigval :     3119.10  3121.75  3455.50  3456.70  3473.50  3473.62

   temp. (K)  partition function   enthalpy   heat capacity  entropy
                                   cal/mol     cal/K/mol   cal/K/mol   J/K/mol
 298.15  VIB  0.176E+17            19601.752    117.030    124.299
         ROT  0.435E+08              888.752      2.981     37.934
         INT  0.765E+24            20490.504    120.011    162.233
         TR   0.112E+29             1481.254      4.968     44.557
         TOT                       21971.7584   124.9793   206.7903   865.2106

       T/K    H(0)-H(T)+PV         H(T)/Eh          T*S/Eh         G(T)/Eh
   ------------------------------------------------------------------------
    298.15    0.350142E-01    0.473749E+00    0.982527E-01    0.375497E+00
   ------------------------------------------------------------------------

         :::::::::::::::::::::::::::::::::::::::::::::::::::::
         ::                  THERMODYNAMIC                  ::
         :::::::::::::::::::::::::::::::::::::::::::::::::::::
         :: total free energy        -107.557946608681 Eh   ::
         ::.................................................::
         :: total energy             -107.933443126155 Eh   ::
         :: zero point energy           0.438735030929 Eh   ::
         :: G(RRHO) w/o ZPVE           -0.063238513455 Eh   ::
         :: G(RRHO) contrib.            0.375496517474 Eh   ::
         :::::::::::::::::::::::::::::::::::::::::::::::::::::

           -------------------------------------------------
          | TOTAL ENERGY             -107.933443126155 Eh   |
          | TOTAL ENTHALPY           -107.459693869469 Eh   |
          | TOTAL FREE ENERGY        -107.557946608681 Eh   |
          | GRADIENT NORM               0.000042261107 Eh/α |
           -------------------------------------------------

 * finished run on 2025/09/10 at 01:39:16.278
