   * xtb version 6.7.1 (edcfbbe) compiled by 'albert@albert-system' on 2024-07-22

   ID    Z sym.   atoms
    1    8 O      1, 3, 15, 16, 24, 25, 33, 34
    2    6 C      2, 4-14, 17-23, 26-32, 35-38
    3    1 H      39-60

          program call               : xtb data2507/gas/H4TCPE/H4TCPE_gas_T1_crest.xyz --gfn 2 --spinpol --tblite --uhf 2 --ohess vtight --parallel 40 --molden --ceasefiles --namespace data2507/gas/H4TCPE/H4TCPE_gas_T1_finalOpt
 * total energy  :  -107.9334186 Eh     change        0.1283095E-07 Eh
 * total energy  :  -107.9334315 Eh     change       -0.1288238E-04 Eh
 * total energy  :  -107.9334392 Eh     change       -0.7683770E-05 Eh
 * total energy  :  -107.9334408 Eh     change       -0.1628165E-05 Eh
 * total energy  :  -107.9334418 Eh     change       -0.9810820E-06 Eh
 * total energy  :  -107.9334427 Eh     change       -0.9030744E-06 Eh
 * total energy  :  -107.9334440 Eh     change       -0.1287813E-05 Eh
 * total energy  :  -107.9334457 Eh     change       -0.1650813E-05 Eh
 * total energy  :  -107.9334471 Eh     change       -0.1451892E-05 Eh
 * total energy  :  -107.9334481 Eh     change       -0.9863671E-06 Eh
 * total energy  :  -107.9334501 Eh     change       -0.3656877E-06 Eh
 * total energy  :  -107.9334505 Eh     change       -0.4046980E-06 Eh
 * total energy  :  -107.9334507 Eh     change       -0.2231530E-06 Eh
 * total energy  :  -107.9334508 Eh     change       -0.1497041E-06 Eh
 * total energy  :  -107.9334508 Eh     change       -0.1070813E-07 Eh
 * total energy  :  -107.9334510 Eh     change       -0.1529959E-06 Eh
 * total energy  :  -107.9334513 Eh     change       -0.2731119E-06 Eh
 * total energy  :  -107.9334514 Eh     change       -0.1538858E-06 Eh
 * total energy  :  -107.9334515 Eh     change       -0.4202737E-07 Eh
   *** GEOMETRY OPTIMIZATION CONVERGED AFTER 22 ITERATIONS ***

 final structure:
================
60
 xtb: 6.7.1 (edcfbbe)
O            6.41907757123519        0.49784491764954        1.56505226315208
C            5.65796846091088       -0.43346374893756        1.47661968048943
O            6.08627323614853       -1.67852144502563        1.21435650350639
C            4.19117286468969       -0.33790227584884        1.63771153188712
C            3.63319483564350        0.90548295497478        1.92634261267656
C            2.26800282602161        1.03325262533819        2.07876535655691
C            1.43697185456377       -0.07397881131210        1.94757141675779
C           -0.05763911345552        0.06999247038878        2.05565257090633
C           -0.67209923237516        0.10568629195825        0.65951206510922
C           -2.18879521173472       -0.06522214294247        0.47779601289077
C           -3.02006840059482       -0.35084909494889        1.64700117787938
C           -4.28593064164455        0.11728993340746        1.76104768529199
C           -4.88333048208078        0.89821110348905        0.74699785364146
C           -6.25620594695098        1.35565266649884        0.91954955912988
O           -6.94649842311104        1.12484211983451        1.88913588038152
O           -6.71954084939195        2.08537543030495       -0.11916627565512
C           -4.11880589041456        1.20537843582567       -0.39917252194450
C           -2.84896410833335        0.75359887774017       -0.54062717023765
C            0.02396953871416        1.14388650612956       -0.15729773109447
C           -0.37028424655017        2.47577084904542       -0.05538123811665
C            0.32092506490058        3.46039298049276       -0.73003272864338
C            1.42604096297224        3.12936001395034       -1.51132544634800
C            2.14731300346778        4.21693427861695       -2.20971739091868
O            1.84969355129472        5.38359781577702       -2.14638639054413
O            3.18657563992656        3.78389307347794       -2.93839161359350
C            1.82681469771905        1.79987070341955       -1.61134963186981
C            1.12999068344829        0.81717029584759       -0.93726704490444
C           -1.16212177434752       -1.18019782341182       -0.02128126057899
C           -0.93691819948329       -1.31143197302335       -1.46263214849518
C           -0.63854314347939       -2.49713425603957       -2.04701220562453
C           -0.55750645322940       -3.68791409229978       -1.29296781082646
C           -0.24027259755933       -4.97717057830185       -1.89269623377600
O           -0.15445721066212       -6.02194595325261       -1.28328043018974
O           -0.03716342509368       -4.91996365925883       -3.22762178934351
C           -0.81852673944653       -3.62051777041177        0.09356559584289
C           -1.11754891593156       -2.44996097964105        0.70609266249495
C            1.99903693117043       -1.31438109038675        1.66309510481181
C            3.36429262728235       -1.45103965459916        1.50955416343446
H            7.05177435939096       -1.67877533799534        1.12274043106687
H            4.28825386463037        1.75740886654573        2.02458808190229
H            1.84004664438295        2.00075061819775        2.29728837287779
H           -0.45662577148881       -0.74893757078948        2.64987643479681
H           -0.30344448628411        1.00975615196344        2.55729465943773
H           -2.61137663453986       -0.93770412068977        2.45164839257901
H           -4.87769221040778       -0.10226136096934        2.63696122227683
H           -7.63316531305274        2.35062054913649        0.06432975730863
H           -4.56665866989599        1.81099817919865       -1.17140959026763
H           -2.29101862006079        1.02452548708016       -1.42156458697003
H           -1.22550955443245        2.73195395509057        0.55317448337468
H            0.02498075908298        4.49612430308744       -0.66290606497089
H            3.62461620517734        4.53715286920410       -3.36435727771343
H            2.68527975920021        1.54523156238480       -2.21188229174629
H            1.44577363079096       -0.21301587116614       -1.00839034599877
H           -0.98526880039734       -0.42473127452014       -2.07225160057087
H           -0.46486514705279       -2.54750782212724       -3.11053043752619
H            0.16369418807597       -5.80972188739961       -3.55423579250356
H           -0.78189817268612       -4.54262649454004        0.65446145959439
H           -1.33219141733631       -2.45933967713466        1.76135460601704
H            1.35950857933482       -2.17851588301551        1.55448355683107
H            3.79630894493161       -2.41422428076687        1.28880401926685

 projected vibrational frequencies (cm⁻¹)
eigval :       -0.00    -0.00    -0.00    -0.00    -0.00     0.00
eigval :       12.71    14.85    16.85    22.19    28.38    34.73
eigval :       37.16    49.14    53.17    55.99    60.67    79.97
eigval :       92.52   105.37   118.47   127.93   129.67   144.92
eigval :      147.79   149.17   160.76   172.55   197.50   214.64
eigval :      228.55   256.50   261.14   272.80   296.94   345.59
eigval :      355.28   365.14   368.12   373.00   377.07   388.12
eigval :      391.37   397.24   417.79   456.35   460.33   467.99
eigval :      479.67   483.90   489.71   491.99   505.98   558.96
eigval :      568.81   571.38   579.27   580.37   588.73   591.74
eigval :      600.41   602.30   605.46   606.61   612.49   649.40
eigval :      655.83   659.77   672.46   682.68   706.65   709.48
eigval :      720.39   726.43   733.25   743.45   758.75   775.53
eigval :      778.89   794.73   795.49   798.48   806.70   828.12
eigval :      837.20   854.40   874.57   876.34   881.71   908.87
eigval :      917.66   919.02   922.22   923.27   924.84   930.95
eigval :      931.70   956.01   960.77   967.02  1003.81  1006.24
eigval :     1012.25  1066.48  1084.77  1090.06  1109.95  1111.11
eigval :     1124.73  1127.15  1134.39  1138.23  1140.23  1143.15
eigval :     1145.54  1147.17  1155.87  1192.47  1194.40  1195.75
eigval :     1213.36  1226.53  1229.79  1246.56  1261.37  1263.87
eigval :     1272.31  1273.24  1281.42  1284.07  1285.46  1292.01
eigval :     1305.31  1315.17  1320.65  1326.43  1335.85  1395.20
eigval :     1396.78  1399.70  1402.08  1412.10  1415.60  1457.04
eigval :     1474.39  1481.07  1488.98  1496.23  1566.51  1577.66
eigval :     1581.49  1584.68  1590.87  1596.45  1709.57  1714.64
eigval :     1756.02  1757.24  2966.62  3022.68  3080.83  3081.77
eigval :     3081.97  3089.45  3091.58  3094.70  3099.31  3102.31
eigval :     3102.96  3103.47  3109.40  3110.92  3111.03  3113.86
eigval :     3119.34  3121.77  3455.56  3456.73  3473.50  3473.65

   temp. (K)  partition function   enthalpy   heat capacity  entropy
                                   cal/mol     cal/K/mol   cal/K/mol   J/K/mol
 298.15  VIB  0.179E+17            19602.947    117.027    124.315
         ROT  0.434E+08              888.752      2.981     37.930
         INT  0.776E+24            20491.699    120.008    162.245
         TR   0.112E+29             1481.254      4.968     44.557
         TOT                       21972.9531   124.9759   206.8020   865.2595

       T/K    H(0)-H(T)+PV         H(T)/Eh          T*S/Eh         G(T)/Eh
   ------------------------------------------------------------------------
    298.15    0.350161E-01    0.473750E+00    0.982583E-01    0.375492E+00
   ------------------------------------------------------------------------

         :::::::::::::::::::::::::::::::::::::::::::::::::::::
         ::                  THERMODYNAMIC                  ::
         :::::::::::::::::::::::::::::::::::::::::::::::::::::
         :: total free energy        -107.557959388973 Eh   ::
         ::.................................................::
         :: total energy             -107.933451466285 Eh   ::
         :: zero point energy           0.438734237882 Eh   ::
         :: G(RRHO) w/o ZPVE           -0.063242160571 Eh   ::
         :: G(RRHO) contrib.            0.375492077311 Eh   ::
         :::::::::::::::::::::::::::::::::::::::::::::::::::::

           -------------------------------------------------
          | TOTAL ENERGY             -107.933451466285 Eh   |
          | TOTAL ENTHALPY           -107.459701098709 Eh   |
          | TOTAL FREE ENERGY        -107.557959388973 Eh   |
          | GRADIENT NORM               0.000143441233 Eh/α |
           -------------------------------------------------

 * finished run on 2025/09/10 at 01:55:02.089
