   * xtb version 6.7.1 (edcfbbe) compiled by 'albert@albert-system' on 2024-07-22

   ID    Z sym.   atoms
    1    6 C      1-18, 20-43
    2    7 N      19
    3    1 H      44-70

          program call               : xtb data2507/toluene/pCzAnN/pCzAnN_toluene_T1_crest.xyz --gfn 2 --uhf 2 --gbsa toluene --ohess vtight --parallel 40 --molden --ceasefiles --namespace data2507/toluene/pCzAnN/pCzAnN_toluene_T1_finalOpt
      * Solvation model:               GBSA
        Solvent                        toluene
        Solvent mass                       9.2140E+01 g/mol
          :  Hamiltonian                  GFN2-xTB          :
 * total energy  :  -106.6424777 Eh     change       -0.8673169E-09 Eh
 * total energy  :  -106.6425041 Eh     change       -0.2638555E-04 Eh
 * total energy  :  -106.6425180 Eh     change       -0.1385163E-04 Eh
 * total energy  :  -106.6425238 Eh     change       -0.5823208E-05 Eh
 * total energy  :  -106.6425290 Eh     change       -0.5199826E-05 Eh
 * total energy  :  -106.6425320 Eh     change       -0.2968332E-05 Eh
 * total energy  :  -106.6425365 Eh     change       -0.4546087E-05 Eh
 * total energy  :  -106.6425394 Eh     change       -0.2859310E-05 Eh
 * total energy  :  -106.6425403 Eh     change       -0.9391106E-06 Eh
 * total energy  :  -106.6425414 Eh     change       -0.1104392E-05 Eh
 * total energy  :  -106.6425468 Eh     change       -0.1031540E-05 Eh
 * total energy  :  -106.6425473 Eh     change       -0.4988120E-06 Eh
 * total energy  :  -106.6425477 Eh     change       -0.3515204E-06 Eh
 * total energy  :  -106.6425480 Eh     change       -0.3011219E-06 Eh
 * total energy  :  -106.6425483 Eh     change       -0.3792474E-06 Eh
 * total energy  :  -106.6425487 Eh     change       -0.3945932E-06 Eh
 * total energy  :  -106.6425490 Eh     change       -0.3023573E-06 Eh
 * total energy  :  -106.6425493 Eh     change       -0.2125890E-06 Eh
 * total energy  :  -106.6425493 Eh     change       -0.2544340E-08 Eh
   *** GEOMETRY OPTIMIZATION CONVERGED AFTER 22 ITERATIONS ***

 final structure:
================
70
 xtb: 6.7.1 (edcfbbe)
C            9.87128697661935        0.32564157895827       -0.40646132444436
C            9.25786165042552        1.08140817332846       -1.41732983597429
C            7.89467247988492        1.14110195858737       -1.50630935724566
C            7.08011103398950        0.44409429667641       -0.58608484349662
C            5.67664822094331        0.48990822132178       -0.65057060898863
C            4.88567405054998       -0.20696925275361        0.24478942224843
C            3.43031513345224       -0.16035706415117        0.17743939959874
C            2.74862053291882        1.09511300289561        0.20511466647465
C            3.43503767260105        2.30455682084720        0.35618749807446
C            2.77645326068005        3.52969064651222        0.29728016874532
C            1.41531028684661        3.56562205792295        0.07860171178505
C            0.69855787231149        2.37542115080612       -0.01465554014530
C            1.32470114432948        1.13073513984850        0.10572504935883
C            0.58041898228812       -0.09029314164717        0.09731558512657
C           -0.87416842620319       -0.05400832593556        0.06090914688225
C           -1.59093091404544       -0.75321244732675       -0.92001101151712
C           -2.96662164338729       -0.70956772377191       -0.96636860154278
C           -3.68104156719335        0.01807225718480       -0.01416742322829
N           -5.07975532680635        0.05384747127784       -0.05109198042267
C           -5.91353619897895       -1.04305295755494       -0.15053621691214
C           -5.59666573197145       -2.39392843162479       -0.19128865830905
C           -6.63786320491405       -3.29997365162674       -0.26399773990815
C           -7.96653671952453       -2.88085958809766       -0.28609151580918
C           -8.28922918511759       -1.53927197653090       -0.21970612126125
C           -7.26001030307796       -0.60991491027694       -0.14599108808167
C           -7.22708210610666        0.82311107488773       -0.04239001693474
C           -8.21208146888451        1.80130956760274       -0.00738442743311
C           -7.82750911165515        3.12562644304195        0.07407809329779
C           -6.48020480171506        3.47962646665381        0.10529844861699
C           -5.48210407743608        2.52410569994108        0.07249354026948
C           -5.86231588418424        1.19014189523297        0.01690697155037
C           -2.98220137931360        0.70868349280991        0.97633131857844
C           -1.60551562375890        0.68165595790337        1.00362326091088
C            1.26179294000572       -1.34657836323187        0.12017807282065
C            0.57232680234547       -2.56070185971780        0.20268181144512
C            1.23662557537350       -3.78271787908026        0.13587624540018
C            2.60640290038634       -3.81059247252640       -0.02191125729305
C            3.32442970120472       -2.61773351978130       -0.03729668848085
C            2.68847535868538       -1.37882501211611        0.09519947263288
C            5.52365641360820       -0.97690455375449        1.25052748280195
C            6.88180209155594       -1.02296380704427        1.34789163516934
C            7.70391949830010       -0.32409007726084        0.43385235868301
C            9.10895688380544       -0.36207417303970        0.50031126386739
H           10.94977241470900        0.29034842268308       -0.35035977748078
H            9.87378909661757        1.61641600366694       -2.12613130131038
H            7.41811945721002        1.72369730322759       -2.28239728584076
H            5.21176214661863        1.05627652466483       -1.44582898810196
H            4.50056457278624        2.29137544846650        0.52729464843059
H            3.34017788083190        4.44419222978855        0.40936755756063
H            0.89685596071349        4.50923334004879       -0.00819964667935
H           -0.36507760738907        2.41927518181747       -0.19161982138156
H           -1.04807933235955       -1.29566581577169       -1.68026742578791
H           -3.49973531155449       -1.21890820318577       -1.75549473140211
H           -4.57160414155885       -2.73030788884570       -0.15610905766550
H           -6.41647994173927       -4.35679114483356       -0.29983300644706
H           -8.75249330993810       -3.61942082292000       -0.34609641613418
H           -9.31959876443489       -1.21624142923680       -0.21950100320636
H           -9.25607690338074        1.52855234455161       -0.04846853233647
H           -8.57830910484801        3.90162140965778        0.10466331389996
H           -6.20954266088609        4.52451480737114        0.15182980737628
H           -4.44137118509596        2.81055773424052        0.07925574369066
H           -3.53035889379940        1.24593216787174        1.73614364000536
H           -1.07723207342589        1.19710690554291        1.79230794884420
H           -0.49952375899716       -2.55521651802090        0.32777438629783
H            0.67102825316653       -4.70124199899130        0.19238409307105
H            3.13047706677676       -4.75020966315135       -0.11756846133833
H            4.39651195726115       -2.65362583523616       -0.15666713866883
H            4.90669285870554       -1.49878209970486        1.96832438318949
H            7.35300872321281       -1.59469073201412        2.13548794621503
H            9.57732105916180       -0.94662289557526        1.28008129698891

          :  Hamiltonian                  GFN2-xTB          :
         :: gradient norm              0.000037814048 Eh/a0 ::
         :: HOMO-LUMO gap              0.828413619987 eV    ::
         :: SCC energy              -108.700144048157 Eh    ::
         :: -> dispersion             -0.099396476177 Eh    ::
         :: -> Gsolv                  -0.042623125017 Eh    ::
         :: repulsion energy           2.057594788072 Eh    ::

    * Orbital Energies and Occupations

         #    Occupation            Energy/Eh            Energy/eV
      -------------------------------------------------------------
         1        2.0000           -0.6780483             -18.4506
       ...           ...                  ...                  ...
        89        2.0000           -0.4134262             -11.2499
        90        2.0000           -0.4128724             -11.2348
        91        2.0000           -0.4070979             -11.0777
        92        2.0000           -0.4056567             -11.0385
        93        2.0000           -0.4029880             -10.9659
        94        2.0000           -0.3997090             -10.8766
        95        2.0000           -0.3977737             -10.8240
        96        2.0000           -0.3948190             -10.7436
        97        2.0000           -0.3803252             -10.3492
        98        2.0000           -0.3771660             -10.2632
        99        1.9999           -0.3647157              -9.9244
       100        1.0001           -0.3477621              -9.4631
       101        1.0000           -0.2880257              -7.8376 (HOMO)
       102        0.0000           -0.2575821              -7.0092 (LUMO)
       103                         -0.2474862              -6.7344
       104                         -0.2349179              -6.3924
       105                         -0.2303552              -6.2683
       106                         -0.2283651              -6.2141
       107                         -0.2261165              -6.1529
       108                         -0.2237803              -6.0894
       109                         -0.2212918              -6.0217
       110                         -0.1939889              -5.2787
       111                         -0.1893412              -5.1522
       112                         -0.1877920              -5.1101
       ...                                ...                  ...
       199                          0.7426134              20.2075
      -------------------------------------------------------------
                  HL-Gap            0.0304436 Eh            0.8284 eV

     #   Z          covCN         q      C6AA      α(0)
     1   6 C        2.916    -0.033    28.810     8.802
     2   6 C        2.915    -0.031    28.782     8.797
     3   6 C        2.918    -0.037    28.931     8.820
     4   6 C        2.984     0.011    27.773     8.645
     5   6 C        2.923    -0.042    29.032     8.836
     6   6 C        2.970     0.013    27.713     8.635
     7   6 C        2.973    -0.012    28.300     8.726
     8   6 C        2.976     0.008    27.847     8.656
     9   6 C        2.921    -0.039    28.974     8.827
    10   6 C        2.914    -0.033    28.811     8.802
    11   6 C        2.914    -0.033    28.819     8.803
    12   6 C        2.921    -0.040    28.992     8.830
    13   6 C        2.977     0.008    27.845     8.656
    14   6 C        2.972    -0.013    28.335     8.731
    15   6 C        2.972     0.014    27.695     8.632
    16   6 C        2.923    -0.032    28.787     8.799
    17   6 C        2.918    -0.043    29.075     8.842
    18   6 C        2.912     0.060    26.661     8.467
    19   7 N        2.801    -0.039    21.996     6.966
    20   6 C        3.074     0.047    26.866     8.498
    21   6 C        2.910    -0.050    29.245     8.868
    22   6 C        2.923    -0.035    28.860     8.810
    23   6 C        2.920    -0.041    29.024     8.835
    24   6 C        2.912    -0.034    28.849     8.807
    25   6 C        3.066    -0.017    28.376     8.735
    26   6 C        3.067    -0.017    28.376     8.735
    27   6 C        2.912    -0.034    28.849     8.807
    28   6 C        2.920    -0.041    29.024     8.835
    29   6 C        2.923    -0.035    28.860     8.810
    30   6 C        2.910    -0.050    29.244     8.867
    31   6 C        3.074     0.047    26.867     8.498
    32   6 C        2.918    -0.043    29.075     8.842
    33   6 C        2.923    -0.032    28.788     8.799
    34   6 C        2.977     0.008    27.846     8.656
    35   6 C        2.921    -0.040    29.002     8.831
    36   6 C        2.914    -0.033    28.818     8.803
    37   6 C        2.913    -0.033    28.823     8.804
    38   6 C        2.921    -0.039    28.964     8.826
    39   6 C        2.977     0.008    27.843     8.655
    40   6 C        2.919    -0.033    28.814     8.803
    41   6 C        2.914    -0.038    28.949     8.823
    42   6 C        2.986     0.009    27.798     8.649
    43   6 C        2.917    -0.037    28.914     8.818
    44   1 H        0.926     0.029     2.595     2.519
    45   1 H        0.926     0.030     2.593     2.518
    46   1 H        0.926     0.030     2.579     2.512
    47   1 H        0.925     0.032     2.557     2.500
    48   1 H        0.926     0.033     2.548     2.496
    49   1 H        0.926     0.029     2.607     2.525
    50   1 H        0.926     0.029     2.602     2.523
    51   1 H        0.926     0.033     2.551     2.497
    52   1 H        0.926     0.041     2.429     2.437
    53   1 H        0.926     0.042     2.419     2.432
    54   1 H        0.926     0.032     2.559     2.502
    55   1 H        0.926     0.032     2.565     2.504
    56   1 H        0.926     0.029     2.594     2.519
    57   1 H        0.926     0.032     2.562     2.503
    58   1 H        0.926     0.032     2.562     2.503
    59   1 H        0.926     0.029     2.594     2.519
    60   1 H        0.926     0.032     2.565     2.504
    61   1 H        0.926     0.032     2.560     2.502
    62   1 H        0.926     0.042     2.420     2.433
    63   1 H        0.926     0.041     2.430     2.438
    64   1 H        0.926     0.032     2.555     2.500
    65   1 H        0.926     0.029     2.607     2.525
    66   1 H        0.926     0.028     2.612     2.527
    67   1 H        0.926     0.032     2.558     2.501
    68   1 H        0.926     0.032     2.554     2.499
    69   1 H        0.925     0.032     2.559     2.501
    70   1 H        0.925     0.030     2.579     2.511

molecular dipole:
                 x           y           z       tot (Debye)
 q only:       -0.031      -0.006       0.024
   full:        0.031      -0.008       0.028       0.108

 projected vibrational frequencies (cm⁻¹)
eigval :       -0.00    -0.00    -0.00    -0.00     0.00     0.00
eigval :       11.73    15.59    19.53    34.46    37.71    43.69
eigval :       57.72    71.24    81.00    85.24   105.36   107.53
eigval :      131.45   141.93   147.41   165.97   173.80   186.29
eigval :      195.51   210.87   213.04   235.49   262.81   274.07
eigval :      295.07   310.12   337.31   351.81   368.25   370.32
eigval :      382.90   388.04   390.49   399.22   409.74   414.09
eigval :      423.82   426.82   431.84   443.02   451.28   471.60
eigval :      480.83   495.20   500.61   518.06   538.38   542.02
eigval :      542.72   563.83   569.82   575.89   581.98   586.11
eigval :      595.21   606.06   611.22   623.42   640.56   648.15
eigval :      674.63   675.08   689.90   690.79   710.54   718.25
eigval :      720.07   730.51   746.61   752.82   756.29   759.56
eigval :      769.46   780.50   791.61   813.04   821.08   832.92
eigval :      845.37   850.10   865.87   868.30   874.06   876.43
eigval :      882.96   884.63   890.74   894.55   896.76   897.87
eigval :      899.45   902.12   903.91   904.55   905.10   910.11
eigval :      920.90   921.78   923.30   928.64   931.36   938.66
eigval :      945.10   948.23   991.93  1010.95  1017.99  1069.18
eigval :     1072.31  1078.70  1102.53  1105.79  1114.48  1115.20
eigval :     1123.88  1134.06  1141.50  1149.95  1172.15  1173.23
eigval :     1177.32  1178.06  1178.65  1180.33  1181.43  1182.21
eigval :     1192.68  1206.09  1221.85  1228.01  1233.55  1234.31
eigval :     1242.43  1254.38  1261.94  1264.67  1280.57  1292.70
eigval :     1296.17  1297.61  1302.09  1310.47  1324.87  1332.09
eigval :     1355.39  1357.28  1357.68  1359.79  1368.58  1371.08
eigval :     1376.10  1390.59  1408.27  1408.92  1419.98  1422.94
eigval :     1424.31  1424.52  1442.03  1470.61  1472.98  1480.68
eigval :     1485.27  1488.28  1491.29  1523.41  1525.07  1528.22
eigval :     1538.97  1551.68  1571.15  1571.69  1581.96  1585.99
eigval :     1593.36  1600.02  1609.15  3061.63  3062.88  3064.59
eigval :     3069.28  3071.15  3071.44  3071.51  3072.00  3073.07
eigval :     3077.14  3077.63  3077.71  3078.25  3079.55  3080.32
eigval :     3080.50  3084.30  3085.69  3086.72  3089.32  3091.43
eigval :     3091.96  3092.25  3092.39  3093.98  3095.03  3096.51

   temp. (K)  partition function   enthalpy   heat capacity  entropy
                                   cal/mol     cal/K/mol   cal/K/mol   J/K/mol
 298.15  VIB  0.470E+14            18736.747    124.412    113.913
         ROT  0.642E+08              888.752      2.981     38.708
         INT  0.302E+22            19625.500    127.393    152.621
         TR   0.123E+29             1481.254      4.968     44.756
         TOT                       21106.7536   132.3608   197.3762   825.8219

       T/K    H(0)-H(T)+PV         H(T)/Eh          T*S/Eh         G(T)/Eh
   ------------------------------------------------------------------------
    298.15    0.336358E-01    0.571952E+00    0.937798E-01    0.478172E+00
   ------------------------------------------------------------------------

         :::::::::::::::::::::::::::::::::::::::::::::::::::::
         ::                  THERMODYNAMIC                  ::
         :::::::::::::::::::::::::::::::::::::::::::::::::::::
         :: total free energy        -106.164377052367 Eh   ::
         ::.................................................::
         :: total energy             -106.642549259442 Eh   ::
         :: zero point energy           0.538316246214 Eh   ::
         :: G(RRHO) w/o ZPVE           -0.060144039140 Eh   ::
         :: G(RRHO) contrib.            0.478172207074 Eh   ::
         :::::::::::::::::::::::::::::::::::::::::::::::::::::

           -------------------------------------------------
          | TOTAL ENERGY             -106.642549259442 Eh   |
          | TOTAL ENTHALPY           -106.070597260382 Eh   |
          | TOTAL FREE ENERGY        -106.164377052367 Eh   |
          | GRADIENT NORM               0.000037811094 Eh/α |
          | HOMO-LUMO GAP               0.828412850467 eV   |
           -------------------------------------------------

 * finished run on 2025/07/20 at 18:43:41.590
