   * xtb version 6.7.1 (edcfbbe) compiled by 'albert@albert-system' on 2024-07-22

   ID    Z sym.   atoms
    1    6 C      1-18, 20-43
    2    7 N      19
    3    1 H      44-70

          program call               : xtb data2507/toluene/pCzAnN/pCzAnN_toluene_S0_crest.xyz --gfn 2 --gbsa toluene --ohess vtight --parallel 40 --molden --ceasefiles --namespace data2507/toluene/pCzAnN/pCzAnN_toluene_S0_finalOpt
      * Solvation model:               GBSA
        Solvent                        toluene
        Solvent mass                       9.2140E+01 g/mol
          :  Hamiltonian                  GFN2-xTB          :
 * total energy  :  -106.7103785 Eh     change       -0.8029133E-09 Eh
 * total energy  :  -106.7104024 Eh     change       -0.2390708E-04 Eh
 * total energy  :  -106.7104169 Eh     change       -0.1451739E-04 Eh
 * total energy  :  -106.7104243 Eh     change       -0.7442278E-05 Eh
 * total energy  :  -106.7104321 Eh     change       -0.7832059E-05 Eh
 * total energy  :  -106.7104356 Eh     change       -0.3416766E-05 Eh
 * total energy  :  -106.7104395 Eh     change       -0.3965756E-05 Eh
 * total energy  :  -106.7104439 Eh     change       -0.4376428E-05 Eh
 * total energy  :  -106.7104461 Eh     change       -0.2203346E-05 Eh
 * total energy  :  -106.7104476 Eh     change       -0.1496996E-05 Eh
 * total energy  :  -106.7104603 Eh     change       -0.3782023E-05 Eh
 * total energy  :  -106.7104646 Eh     change       -0.4295615E-05 Eh
 * total energy  :  -106.7104691 Eh     change       -0.4481400E-05 Eh
 * total energy  :  -106.7104727 Eh     change       -0.3617171E-05 Eh
 * total energy  :  -106.7104748 Eh     change       -0.2164571E-05 Eh
 * total energy  :  -106.7104761 Eh     change       -0.1233951E-05 Eh
 * total energy  :  -106.7104769 Eh     change       -0.8537206E-06 Eh
 * total energy  :  -106.7104776 Eh     change       -0.6324298E-06 Eh
 * total energy  :  -106.7104776 Eh     change       -0.8104806E-08 Eh
   *** GEOMETRY OPTIMIZATION CONVERGED AFTER 22 ITERATIONS ***

 final structure:
================
70
 xtb: 6.7.1 (edcfbbe)
C            9.85720151367691        0.10134599878074       -0.55714010690651
C            9.22994141144462        0.38618039768406       -1.78098533749046
C            7.86621799212834        0.41133692676593       -1.86915226190251
C            7.06592383668143        0.15359420827566       -0.73558840646869
C            5.65787775044985        0.17440760402933       -0.79433808892753
C            4.89468694954796       -0.07630762202641        0.31915563322893
C            3.41747680582366       -0.05325587628127        0.25152811745256
C            2.74352395061209        1.16037999961064        0.05046492511128
C            3.43855885257094        2.39364144098372       -0.06584862296699
C            2.77490223564243        3.56156273040203       -0.28459890678079
C            1.37029984753564        3.56998039799014       -0.40365729821606
C            0.66456409503763        2.41357796744415       -0.27506454616834
C            1.31536662284433        1.17615999921878       -0.02484028430440
C            0.59481996894310       -0.01599919746161        0.13354935826457
C           -0.88307304932441        0.00239142200149        0.07442986947021
C           -1.55470649339682       -0.54374927130236       -1.01570335255157
C           -2.93489166731150       -0.52997127151712       -1.07326423690227
C           -3.67131028843027        0.01944804370292       -0.02761699908291
N           -5.07440211562184        0.01916757207923       -0.07503777377509
C           -5.87221812511016       -1.08244195572091       -0.30984378010977
C           -5.51196755531700       -2.40750070256194       -0.51286638269813
C           -6.52308979261411       -3.32972333979724       -0.70345632844320
C           -7.86463445243644       -2.95229627443275       -0.68662392271893
C           -8.23015804369077       -1.63976609267612       -0.46247041027102
C           -7.23158841517770       -0.69372636626099       -0.26764827298114
C           -7.24361507249690        0.71672249323669        0.00373532110406
C           -8.25775841749835        1.65542217070219        0.14649060488929
C           -7.91387537104636        2.97001403281646        0.39183941265431
C           -6.57772403933559        3.35678083701193        0.47974588034587
C           -5.55133826816743        2.44199330937720        0.34169644391632
C           -5.89101668932511        1.11479303214173        0.11814730160914
C           -3.00655199492200        0.56537108673392        1.06671964357244
C           -1.62575642863237        0.56189470229556        1.11036021093212
C            1.26746867262431       -1.22701645239168        0.35022492545194
C            0.56707894768301       -2.44705100392096        0.54563534888717
C            1.23015140998735       -3.62059181944076        0.73309774806621
C            2.63940972105410       -3.64861483080273        0.72944061167242
C            3.34821691972423       -2.49829571500383        0.56594509083081
C            2.69653023861630       -1.24803638017292        0.39382539415638
C            5.53373810311838       -0.35922827636609        1.54604875642302
C            6.89587688983033       -0.38486919522250        1.63389661633667
C            7.70049538101895       -0.13200967880355        0.50213991207665
C            9.10962042282406       -0.15197465324045        0.55914310156717
H           10.93647298860275        0.08477848287773       -0.50671949481012
H            9.83657664630626        0.58513537948884       -2.65287983199302
H            7.37872352362841        0.62998738019026       -2.80904116654633
H            5.17764656432979        0.38694998564809       -1.73979880853176
H            4.51473598402920        2.38942536441201        0.02392866388046
H            3.31943466827848        4.49078970172862       -0.37068254931836
H            0.86052625918109        4.50340206077354       -0.59437880126196
H           -0.41173594614600        2.41992344157991       -0.36410579618143
H           -0.98584293561589       -0.97097978237301       -1.82884515563659
H           -3.44906458798080       -0.93550772145113       -1.93200600693870
H           -4.47616527970881       -2.71228333665077       -0.51294516536241
H           -6.26828006049648       -4.36701599439798       -0.86627297689770
H           -8.62616502705573       -3.70251143596487       -0.84238496841049
H           -9.27042521997653       -1.35105791045682       -0.43475077571261
H           -9.29300378826077        1.35933412224310        0.06363751220561
H           -8.68791834780779        3.71446760545357        0.50874127208225
H           -6.33931699216806        4.39548594338539        0.65770968562953
H           -4.51909365560078        2.75386048932922        0.39691803348875
H           -3.57722136862860        0.97871368949400        1.88508558863218
H           -1.11266899427186        0.98335125323547        1.96274876742462
H           -0.51271354453150       -2.42648289600885        0.54552532335506
H            0.68245686060897       -4.54005148116680        0.88173637649484
H            3.15089229873554       -4.59130453791681        0.86039461964639
H            4.42794401799259       -2.52166455693085        0.56300775736079
H            4.92283786855279       -0.54956646356331        2.41719886007182
H            7.37876989832560       -0.59964159751207        2.57707852006674
H            9.58783187311236       -0.37110893071524        1.50373685050743

          :  Hamiltonian                  GFN2-xTB          :
         :: gradient norm              0.000070382512 Eh/a0 ::
         :: HOMO-LUMO gap              2.097634939760 eV    ::
         :: SCC energy              -108.786878220528 Eh    ::
         :: -> dispersion             -0.099141850259 Eh    ::
         :: -> Gsolv                  -0.042997530386 Eh    ::
         :: repulsion energy           2.076400656109 Eh    ::

    * Orbital Energies and Occupations

         #    Occupation            Energy/Eh            Energy/eV
      -------------------------------------------------------------
         1        2.0000           -0.6753044             -18.3760
       ...           ...                  ...                  ...
        88        2.0000           -0.4177212             -11.3668
        89        2.0000           -0.4146876             -11.2842
        90        2.0000           -0.4131682             -11.2429
        91        2.0000           -0.4065168             -11.0619
        92        2.0000           -0.4046976             -11.0124
        93        2.0000           -0.4034508             -10.9785
        94        2.0000           -0.4016910             -10.9306
        95        2.0000           -0.3991469             -10.8613
        96        2.0000           -0.3966237             -10.7927
        97        2.0000           -0.3783881             -10.2965
        98        2.0000           -0.3779306             -10.2840
        99        2.0000           -0.3624404              -9.8625
       100        2.0000           -0.3575339              -9.7290 (HOMO)
       101                         -0.2804472              -7.6314 (LUMO)
       102                         -0.2591129              -7.0508
       103                         -0.2453829              -6.6772
       104                         -0.2332840              -6.3480
       105                         -0.2322612              -6.3201
       106                         -0.2304020              -6.2696
       107                         -0.2286747              -6.2226
       108                         -0.2213384              -6.0229
       109                         -0.2203144              -5.9951
       110                         -0.1907052              -5.1894
       111                         -0.1895163              -5.1570
       ...                                ...                  ...
       199                          0.7451604              20.2768
      -------------------------------------------------------------
                  HL-Gap            0.0770867 Eh            2.0976 eV

     #   Z          covCN         q      C6AA      α(0)
     1   6 C        2.916    -0.032    28.787     8.798
     2   6 C        2.916    -0.031    28.774     8.796
     3   6 C        2.918    -0.036    28.904     8.816
     4   6 C        2.985     0.011    27.766     8.644
     5   6 C        2.923    -0.040    28.997     8.831
     6   6 C        2.973     0.014    27.694     8.632
     7   6 C        2.977    -0.006    28.161     8.705
     8   6 C        2.983     0.006    27.888     8.663
     9   6 C        2.917    -0.035    28.867     8.810
    10   6 C        2.914    -0.031    28.774     8.796
    11   6 C        2.914    -0.031    28.768     8.795
    12   6 C        2.917    -0.035    28.881     8.813
    13   6 C        2.983     0.006    27.887     8.662
    14   6 C        2.977    -0.007    28.180     8.708
    15   6 C        2.976     0.014    27.689     8.631
    16   6 C        2.924    -0.031    28.775     8.797
    17   6 C        2.920    -0.043    29.064     8.841
    18   6 C        2.913     0.062    26.615     8.460
    19   7 N        2.802    -0.047    22.150     6.990
    20   6 C        3.076     0.048    26.854     8.496
    21   6 C        2.909    -0.052    29.290     8.874
    22   6 C        2.924    -0.035    28.878     8.813
    23   6 C        2.919    -0.043    29.069     8.841
    24   6 C        2.912    -0.035    28.873     8.811
    25   6 C        3.067    -0.019    28.414     8.741
    26   6 C        3.067    -0.019    28.415     8.741
    27   6 C        2.912    -0.035    28.873     8.811
    28   6 C        2.919    -0.043    29.069     8.841
    29   6 C        2.924    -0.035    28.878     8.813
    30   6 C        2.909    -0.052    29.290     8.874
    31   6 C        3.076     0.048    26.854     8.496
    32   6 C        2.920    -0.043    29.064     8.841
    33   6 C        2.924    -0.031    28.775     8.797
    34   6 C        2.983     0.006    27.890     8.663
    35   6 C        2.917    -0.035    28.880     8.812
    36   6 C        2.914    -0.031    28.767     8.795
    37   6 C        2.914    -0.031    28.775     8.796
    38   6 C        2.917    -0.034    28.859     8.809
    39   6 C        2.983     0.006    27.886     8.662
    40   6 C        2.919    -0.033    28.820     8.804
    41   6 C        2.916    -0.037    28.919     8.818
    42   6 C        2.987     0.010    27.794     8.648
    43   6 C        2.918    -0.036    28.897     8.815
    44   1 H        0.926     0.030     2.581     2.512
    45   1 H        0.926     0.030     2.580     2.512
    46   1 H        0.926     0.032     2.563     2.504
    47   1 H        0.925     0.031     2.572     2.508
    48   1 H        0.926     0.032     2.558     2.501
    49   1 H        0.926     0.030     2.587     2.515
    50   1 H        0.926     0.030     2.585     2.514
    51   1 H        0.926     0.031     2.573     2.508
    52   1 H        0.926     0.039     2.463     2.454
    53   1 H        0.926     0.042     2.425     2.435
    54   1 H        0.926     0.029     2.599     2.521
    55   1 H        0.926     0.029     2.594     2.519
    56   1 H        0.926     0.027     2.628     2.535
    57   1 H        0.926     0.029     2.596     2.519
    58   1 H        0.926     0.029     2.596     2.520
    59   1 H        0.926     0.027     2.628     2.535
    60   1 H        0.926     0.029     2.595     2.519
    61   1 H        0.926     0.029     2.599     2.521
    62   1 H        0.926     0.042     2.426     2.436
    63   1 H        0.926     0.039     2.463     2.454
    64   1 H        0.926     0.031     2.575     2.509
    65   1 H        0.926     0.030     2.585     2.514
    66   1 H        0.926     0.030     2.586     2.515
    67   1 H        0.926     0.032     2.557     2.501
    68   1 H        0.926     0.031     2.572     2.508
    69   1 H        0.926     0.033     2.545     2.495
    70   1 H        0.926     0.032     2.563     2.503

molecular dipole:
                 x           y           z       tot (Debye)
 q only:        0.771      -0.007       0.039
   full:        0.813      -0.008       0.039       2.069

 projected vibrational frequencies (cm⁻¹)
eigval :       -0.00    -0.00    -0.00     0.00     0.00     0.00
eigval :        9.70    11.50    13.91    29.88    38.76    42.00
eigval :       61.91    65.46    73.39    77.21   103.99   105.14
eigval :      110.94   132.39   145.23   163.62   169.06   178.33
eigval :      186.95   205.97   209.42   216.86   256.61   270.85
eigval :      293.88   309.32   348.93   350.47   366.33   379.32
eigval :      381.08   390.40   394.23   401.74   413.06   415.85
eigval :      427.87   440.93   444.57   448.72   450.36   458.03
eigval :      481.58   496.45   506.21   518.80   534.68   541.75
eigval :      544.26   568.53   578.90   581.41   587.07   589.08
eigval :      600.65   611.52   614.80   636.15   645.35   654.15
eigval :      674.31   687.53   691.53   698.71   709.20   724.92
eigval :      733.21   738.04   756.73   757.27   768.05   772.51
eigval :      774.46   779.27   794.66   817.32   819.14   835.67
eigval :      867.00   871.94   873.04   873.51   875.28   881.26
eigval :      885.45   886.36   896.99   898.48   900.91   901.81
eigval :      902.47   914.74   916.87   917.39   919.14   920.37
eigval :      924.58   925.21   926.85   927.93   929.23   931.82
eigval :      933.63   951.20   992.92  1011.07  1023.13  1068.44
eigval :     1072.14  1077.96  1079.77  1081.08  1115.43  1130.52
eigval :     1134.10  1134.80  1144.37  1150.16  1172.73  1174.03
eigval :     1176.66  1179.27  1179.72  1180.17  1183.12  1188.20
eigval :     1195.60  1215.85  1226.40  1226.82  1232.29  1235.21
eigval :     1244.21  1257.13  1257.57  1261.00  1265.09  1298.78
eigval :     1301.22  1307.35  1317.33  1329.36  1348.49  1349.51
eigval :     1356.10  1360.62  1366.36  1380.82  1382.85  1396.53
eigval :     1400.84  1416.53  1424.68  1427.23  1427.58  1429.42
eigval :     1440.91  1459.19  1474.32  1481.22  1486.83  1498.41
eigval :     1500.02  1525.31  1528.36  1540.88  1558.82  1559.81
eigval :     1572.94  1587.25  1594.51  1597.07  1604.49  1607.00
eigval :     1609.48  1613.16  1621.23  3062.69  3063.58  3065.39
eigval :     3067.60  3069.01  3069.14  3069.88  3070.19  3073.81
eigval :     3075.50  3075.84  3075.96  3076.20  3076.77  3078.40
eigval :     3078.96  3083.51  3084.37  3085.29  3085.71  3086.65
eigval :     3089.59  3090.22  3090.42  3091.52  3092.40  3093.03

   temp. (K)  partition function   enthalpy   heat capacity  entropy
                                   cal/mol     cal/K/mol   cal/K/mol   J/K/mol
 298.15  VIB  0.193E+15            18772.583    123.452    115.579
         ROT  0.639E+08              888.752      2.981     38.698
         INT  0.123E+23            19661.335    126.432    154.277
         TR   0.123E+29             1481.254      4.968     44.756
         TOT                       21142.5894   131.4006   199.0330   832.7542

       T/K    H(0)-H(T)+PV         H(T)/Eh          T*S/Eh         G(T)/Eh
   ------------------------------------------------------------------------
    298.15    0.336929E-01    0.574172E+00    0.945670E-01    0.479605E+00
   ------------------------------------------------------------------------

         :::::::::::::::::::::::::::::::::::::::::::::::::::::
         ::                  THERMODYNAMIC                  ::
         :::::::::::::::::::::::::::::::::::::::::::::::::::::
         :: total free energy        -106.230872821216 Eh   ::
         ::.................................................::
         :: total energy             -106.710477563641 Eh   ::
         :: zero point energy           0.540478896109 Eh   ::
         :: G(RRHO) w/o ZPVE           -0.060874153684 Eh   ::
         :: G(RRHO) contrib.            0.479604742425 Eh   ::
         :::::::::::::::::::::::::::::::::::::::::::::::::::::

           -------------------------------------------------
          | TOTAL ENERGY             -106.710477563641 Eh   |
          | TOTAL ENTHALPY           -106.136305806750 Eh   |
          | TOTAL FREE ENERGY        -106.230872821216 Eh   |
          | GRADIENT NORM               0.000070374052 Eh/α |
          | HOMO-LUMO GAP               2.097634921983 eV   |
           -------------------------------------------------

 * finished run on 2025/07/20 at 18:40:37.606
