   * xtb version 6.7.1 (edcfbbe) compiled by 'albert@albert-system' on 2024-07-22

   ID    Z sym.   atoms
    1    6 C      1-18, 20-43
    2    7 N      19
    3    1 H      44-70

          program call               : xtb data2507/toluene/pCzAnN/pCzAnN_toluene_S0_finalOpt.xtbopt.xyz --gfn 2 --uhf 2 --gbsa toluene --ohess vtight --parallel 40 --molden --ceasefiles --namespace data2507/toluene/pCzAnN/pCzAnN_toluene_T1_preOpt
      * Solvation model:               GBSA
        Solvent                        toluene
        Solvent mass                       9.2140E+01 g/mol
          :  Hamiltonian                  GFN2-xTB          :
 * total energy  :  -106.6329053 Eh     change       -0.1420878E-07 Eh
 * total energy  :  -106.6386877 Eh     change       -0.5782306E-02 Eh
 * total energy  :  -106.6401132 Eh     change       -0.1425516E-02 Eh
 * total energy  :  -106.6402706 Eh     change       -0.1574242E-03 Eh
 * total energy  :  -106.6404639 Eh     change       -0.1932735E-03 Eh
 * total energy  :  -106.6405804 Eh     change       -0.1165337E-03 Eh
 * total energy  :  -106.6407243 Eh     change       -0.1438975E-03 Eh
 * total energy  :  -106.6408776 Eh     change       -0.1533312E-03 Eh
 * total energy  :  -106.6409796 Eh     change       -0.1019714E-03 Eh
 * total energy  :  -106.6410505 Eh     change       -0.7085663E-04 Eh
 * total energy  :  -106.6425301 Eh     change       -0.8979907E-06 Eh
 * total energy  :  -106.6425311 Eh     change       -0.9865778E-06 Eh
 * total energy  :  -106.6425322 Eh     change       -0.1103343E-05 Eh
 * total energy  :  -106.6425333 Eh     change       -0.1035220E-05 Eh
 * total energy  :  -106.6425342 Eh     change       -0.8885827E-06 Eh
 * total energy  :  -106.6425350 Eh     change       -0.7896891E-06 Eh
 * total energy  :  -106.6425357 Eh     change       -0.7561277E-06 Eh
 * total energy  :  -106.6425365 Eh     change       -0.8007654E-06 Eh
 * total energy  :  -106.6425365 Eh     change       -0.5244075E-08 Eh
   *** GEOMETRY OPTIMIZATION CONVERGED AFTER 68 ITERATIONS ***

 final structure:
================
70
 xtb: 6.7.1 (edcfbbe)
C            9.87369581954165        0.31219748005109       -0.39816240141514
C            9.26556596415866        0.97918764521399       -1.47268780931582
C            7.90290590156879        1.02672379861793       -1.57566942515326
C            7.08389889652696        0.40553181547818       -0.60645680918965
C            5.68080943023388        0.44086372067870       -0.68453073587944
C            4.88540325809243       -0.18317751239159        0.25923184717899
C            3.43026962384949       -0.14746901166936        0.17867260237213
C            2.74432875137368        1.10341605698971        0.10190089574823
C            3.42576641565693        2.32390478018876        0.15583547681896
C            2.76323824629017        3.53705622825723       -0.00930845697542
C            1.40335731530995        3.54899360391528       -0.23843653283262
C            0.69110469599684        2.35247307234097       -0.23448515922990
C            1.32067146848389        1.12511489149131       -0.00485008510748
C            0.58029963788752       -0.09504514397664        0.08863241576885
C           -0.87405755948255       -0.06480311676975        0.05663173234782
C           -1.59652687655901       -0.84769193161168       -0.85449670958735
C           -2.97253242298116       -0.80932905299042       -0.89503711151064
C           -3.68210551723999       -0.00161321773472       -0.00556785983745
N           -5.08084383428576        0.03187431436117       -0.03866500867167
C           -5.91662916069372       -1.06814606518888       -0.05706777175103
C           -5.60360000408258       -2.41908348506444        0.00751837325915
C           -6.64695962901733       -3.32555082528806       -0.00105131108860
C           -7.97444462963535       -2.90650584367823       -0.06118079810149
C           -8.29367886238973       -1.56303288093183       -0.09872504584926
C           -7.26214663721540       -0.63347183423708       -0.09240815869854
C           -7.22674969587589        0.80307557475267       -0.10193563205280
C           -8.21045122916867        1.78189317987694       -0.15189163884354
C           -7.82436143777046        3.10804966531945       -0.17285950236082
C           -6.47666335098780        3.46160307665285       -0.16184163196483
C           -5.47988551843447        2.50530980498788       -0.11284111882261
C           -5.86165335109532        1.17147765483245       -0.06469789973977
C           -2.97717720516913        0.77365904025315        0.91591676236119
C           -1.60044136592360        0.74983557556335        0.93639540865857
C            1.26641155514078       -1.34308594050100        0.21177722463211
C            0.58251221667726       -2.54968154898633        0.39243500077732
C            1.25213786893917       -3.77024118759326        0.42136594867318
C            2.62184076647224       -3.80493457926920        0.26407729336196
C            3.33483636995376       -2.61390365675561        0.15506447840525
C            2.69327040608952       -1.37138630689447        0.18995422558441
C            5.51797048473235       -0.86547125614781        1.32960020425785
C            6.87553524292325       -0.89757981870679        1.44062072164416
C            7.70231707295429       -0.27306876955757        0.47823923166618
C            9.10698659942416       -0.30021290236087        0.55756685003043
H           10.95185254680159        0.28536687764232       -0.33201893417907
H            9.88514711389888        1.45543468471905       -2.21921309230233
H            7.43008079635811        1.54148310716954       -2.40048167727853
H            5.22035458331964        0.93875618951401       -1.52680309998301
H            4.49033239121388        2.32921256375513        0.33310822752778
H            3.32304064748039        4.46002400316087        0.02879268766836
H            0.88244292690752        4.47978752635028       -0.40869175107939
H           -0.37177138980058        2.37739931526896       -0.41971842244994
H           -1.05806634532218       -1.45351929548635       -1.56852738478661
H           -3.50974507082317       -1.38604742877340       -1.63331937923546
H           -4.57996604967241       -2.75508468244471        0.07328295103181
H           -6.42816015359306       -4.38256260738302        0.04377072220151
H           -8.76210755310160       -3.64564382690589       -0.06860767060951
H           -9.32303510920972       -1.23810751070486       -0.12777264281495
H           -9.25452325236764        1.50762505451483       -0.17805142908718
H           -8.57402735598217        3.88491537806522       -0.20847001913968
H           -6.20442682677165        4.50655464732274       -0.19591097956055
H           -4.43901831791542        2.79088365848683       -0.12388101258178
H           -3.52047984394551        1.37489561431210        1.62984971152340
H           -1.06694166300751        1.33252676236683        1.67307320467432
H           -0.48909811347305       -2.53928635658530        0.51912380432412
H            0.69066403444756       -4.68372476659631        0.55201232979113
H            3.14978258657113       -4.74699835613353        0.24218097980563
H            4.40717596384428       -2.65403244033293        0.03904783725723
H            4.89730064368432       -1.33012657994886        2.08274223487236
H            7.34277825720870       -1.40102228984984        2.27576789498501
H            9.57169268194950       -0.81632326069670        1.38626638921853

          :  Hamiltonian                  GFN2-xTB          :
         :: gradient norm              0.000055404073 Eh/a0 ::
         :: HOMO-LUMO gap              0.828335314436 eV    ::
         :: SCC energy              -108.700119163598 Eh    ::
         :: -> dispersion             -0.099402465741 Eh    ::
         :: -> Gsolv                  -0.042604874072 Eh    ::
         :: repulsion energy           2.057582648685 Eh    ::

    * Orbital Energies and Occupations

         #    Occupation            Energy/Eh            Energy/eV
      -------------------------------------------------------------
         1        2.0000           -0.6781030             -18.4521
       ...           ...                  ...                  ...
        89        2.0000           -0.4133720             -11.2484
        90        2.0000           -0.4128482             -11.2342
        91        2.0000           -0.4071595             -11.0794
        92        2.0000           -0.4056529             -11.0384
        93        2.0000           -0.4029872             -10.9658
        94        2.0000           -0.3996340             -10.8746
        95        2.0000           -0.3977050             -10.8221
        96        2.0000           -0.3947633             -10.7421
        97        2.0000           -0.3803916             -10.3510
        98        2.0000           -0.3771304             -10.2622
        99        1.9999           -0.3647906              -9.9265
       100        1.0001           -0.3476705              -9.4606
       101        1.0000           -0.2879964              -7.8368 (HOMO)
       102        0.0000           -0.2575556              -7.0084 (LUMO)
       103                         -0.2475584              -6.7364
       104                         -0.2348950              -6.3918
       105                         -0.2302659              -6.2659
       106                         -0.2283377              -6.2134
       107                         -0.2261013              -6.1525
       108                         -0.2238561              -6.0914
       109                         -0.2212312              -6.0200
       110                         -0.1940315              -5.2799
       111                         -0.1892958              -5.1510
       112                         -0.1878486              -5.1116
       ...                                ...                  ...
       199                          0.7425709              20.2064
      -------------------------------------------------------------
                  HL-Gap            0.0304407 Eh            0.8283 eV

     #   Z          covCN         q      C6AA      α(0)
     1   6 C        2.916    -0.033    28.811     8.802
     2   6 C        2.915    -0.031    28.783     8.798
     3   6 C        2.918    -0.037    28.931     8.820
     4   6 C        2.984     0.011    27.773     8.645
     5   6 C        2.923    -0.042    29.033     8.836
     6   6 C        2.970     0.013    27.714     8.635
     7   6 C        2.973    -0.012    28.300     8.726
     8   6 C        2.976     0.008    27.847     8.656
     9   6 C        2.921    -0.039    28.975     8.827
    10   6 C        2.914    -0.033    28.812     8.802
    11   6 C        2.914    -0.033    28.820     8.803
    12   6 C        2.921    -0.040    28.991     8.830
    13   6 C        2.977     0.008    27.846     8.656
    14   6 C        2.972    -0.013    28.337     8.732
    15   6 C        2.972     0.014    27.697     8.633
    16   6 C        2.923    -0.032    28.790     8.799
    17   6 C        2.918    -0.043    29.078     8.843
    18   6 C        2.912     0.060    26.662     8.467
    19   7 N        2.801    -0.039    21.990     6.965
    20   6 C        3.074     0.047    26.868     8.499
    21   6 C        2.910    -0.050    29.244     8.867
    22   6 C        2.923    -0.035    28.860     8.810
    23   6 C        2.920    -0.041    29.022     8.834
    24   6 C        2.912    -0.034    28.848     8.807
    25   6 C        3.067    -0.017    28.374     8.735
    26   6 C        3.067    -0.017    28.374     8.735
    27   6 C        2.912    -0.034    28.848     8.807
    28   6 C        2.920    -0.041    29.022     8.834
    29   6 C        2.923    -0.035    28.860     8.810
    30   6 C        2.910    -0.050    29.244     8.867
    31   6 C        3.074     0.047    26.868     8.499
    32   6 C        2.918    -0.043    29.078     8.843
    33   6 C        2.923    -0.032    28.787     8.799
    34   6 C        2.977     0.008    27.846     8.656
    35   6 C        2.921    -0.040    29.005     8.832
    36   6 C        2.914    -0.033    28.819     8.803
    37   6 C        2.913    -0.033    28.824     8.804
    38   6 C        2.921    -0.039    28.963     8.825
    39   6 C        2.978     0.008    27.844     8.656
    40   6 C        2.919    -0.033    28.813     8.802
    41   6 C        2.914    -0.038    28.949     8.823
    42   6 C        2.986     0.009    27.799     8.649
    43   6 C        2.917    -0.037    28.914     8.818
    44   1 H        0.926     0.029     2.596     2.520
    45   1 H        0.926     0.030     2.593     2.518
    46   1 H        0.926     0.030     2.580     2.512
    47   1 H        0.925     0.032     2.557     2.501
    48   1 H        0.926     0.033     2.549     2.496
    49   1 H        0.926     0.029     2.608     2.525
    50   1 H        0.926     0.029     2.603     2.523
    51   1 H        0.926     0.032     2.552     2.498
    52   1 H        0.926     0.042     2.429     2.437
    53   1 H        0.926     0.042     2.419     2.432
    54   1 H        0.926     0.032     2.556     2.500
    55   1 H        0.926     0.032     2.564     2.504
    56   1 H        0.926     0.029     2.593     2.518
    57   1 H        0.926     0.032     2.561     2.502
    58   1 H        0.926     0.032     2.561     2.502
    59   1 H        0.926     0.029     2.593     2.518
    60   1 H        0.926     0.032     2.564     2.504
    61   1 H        0.926     0.032     2.556     2.500
    62   1 H        0.926     0.042     2.418     2.432
    63   1 H        0.926     0.041     2.431     2.438
    64   1 H        0.926     0.032     2.553     2.499
    65   1 H        0.926     0.029     2.607     2.525
    66   1 H        0.926     0.028     2.613     2.528
    67   1 H        0.926     0.032     2.561     2.502
    68   1 H        0.926     0.032     2.556     2.500
    69   1 H        0.925     0.032     2.559     2.502
    70   1 H        0.925     0.030     2.580     2.512

molecular dipole:
                 x           y           z       tot (Debye)
 q only:       -0.056      -0.005       0.025
   full:        0.007      -0.007       0.028       0.075

 projected vibrational frequencies (cm⁻¹)
eigval :       -0.00    -0.00    -0.00     0.00     0.00     0.00
eigval :       10.17    14.30    17.78    33.33    36.18    49.08
eigval :       56.17    71.27    83.67    85.14   105.31   106.10
eigval :      131.44   141.58   147.80   165.56   173.59   184.86
eigval :      194.52   209.76   213.14   235.39   261.60   269.97
eigval :      294.73   310.20   336.82   351.00   367.77   369.16
eigval :      382.71   388.50   389.89   398.27   409.61   413.55
eigval :      423.65   425.41   430.32   442.58   449.17   470.98
eigval :      482.08   495.15   501.41   518.02   536.51   540.61
eigval :      542.53   563.38   570.58   575.93   582.18   586.24
eigval :      595.10   606.03   611.28   623.77   640.84   648.13
eigval :      673.50   674.81   689.81   691.40   707.40   719.12
eigval :      720.58   730.38   746.94   754.83   756.28   760.28
eigval :      769.30   779.97   791.80   813.05   820.82   833.20
eigval :      844.47   849.39   864.96   871.08   873.49   876.44
eigval :      882.86   884.50   890.10   893.80   896.10   896.92
eigval :      899.28   902.22   903.26   903.99   906.85   912.59
eigval :      921.37   921.79   925.02   929.92   931.02   938.48
eigval :      945.23   948.07   991.99  1010.84  1017.51  1069.19
eigval :     1072.64  1078.74  1102.13  1105.23  1114.53  1115.16
eigval :     1123.61  1133.52  1142.09  1149.87  1173.39  1174.07
eigval :     1176.52  1177.74  1178.77  1180.17  1181.00  1182.12
eigval :     1192.15  1205.89  1221.37  1228.28  1233.09  1233.87
eigval :     1242.42  1253.94  1261.01  1264.07  1280.76  1292.60
eigval :     1295.53  1297.61  1302.38  1310.56  1325.01  1332.12
eigval :     1355.41  1356.84  1357.56  1359.64  1368.36  1371.01
eigval :     1376.28  1390.39  1408.28  1409.06  1419.82  1422.64
eigval :     1424.03  1424.10  1442.39  1470.29  1472.77  1480.46
eigval :     1485.06  1488.24  1491.28  1523.36  1524.64  1528.11
eigval :     1539.10  1551.61  1570.90  1571.82  1581.70  1585.83
eigval :     1593.15  1600.12  1608.99  3061.29  3063.05  3064.32
eigval :     3067.99  3071.15  3071.49  3071.80  3072.21  3073.36
eigval :     3077.19  3077.33  3077.97  3078.34  3079.36  3080.36
eigval :     3080.50  3084.64  3086.26  3087.19  3089.20  3091.34
eigval :     3092.15  3092.62  3092.81  3094.38  3095.16  3096.65

   temp. (K)  partition function   enthalpy   heat capacity  entropy
                                   cal/mol     cal/K/mol   cal/K/mol   J/K/mol
 298.15  VIB  0.645E+14            18755.886    124.492    114.318
         ROT  0.642E+08              888.752      2.981     38.708
         INT  0.414E+22            19644.638    127.473    153.026
         TR   0.123E+29             1481.254      4.968     44.756
         TOT                       21125.8922   132.4408   197.7816   827.5184

       T/K    H(0)-H(T)+PV         H(T)/Eh          T*S/Eh         G(T)/Eh
   ------------------------------------------------------------------------
    298.15    0.336663E-01    0.571918E+00    0.939724E-01    0.477946E+00
   ------------------------------------------------------------------------

         :::::::::::::::::::::::::::::::::::::::::::::::::::::
         ::                  THERMODYNAMIC                  ::
         :::::::::::::::::::::::::::::::::::::::::::::::::::::
         :: total free energy        -106.164590803006 Eh   ::
         ::.................................................::
         :: total energy             -106.642536510995 Eh   ::
         :: zero point energy           0.538251894438 Eh   ::
         :: G(RRHO) w/o ZPVE           -0.060306186449 Eh   ::
         :: G(RRHO) contrib.            0.477945707989 Eh   ::
         :::::::::::::::::::::::::::::::::::::::::::::::::::::

           -------------------------------------------------
          | TOTAL ENERGY             -106.642536510995 Eh   |
          | TOTAL ENTHALPY           -106.070618364312 Eh   |
          | TOTAL FREE ENERGY        -106.164590803006 Eh   |
          | GRADIENT NORM               0.000055400947 Eh/α |
          | HOMO-LUMO GAP               0.828334528285 eV   |
           -------------------------------------------------

 * finished run on 2025/07/20 at 18:40:44.367
