   * xtb version 6.7.1 (edcfbbe) compiled by 'albert@albert-system' on 2024-07-22

   ID    Z sym.   atoms
    1    6 C      1-18, 20-43
    2    7 N      19
    3    1 H      44-70

          program call               : xtb data2507/toluene/pCzAnN/pCzAnN.xyz --gfn 2 --gbsa toluene --ohess vtight --parallel 40 --molden --ceasefiles --namespace data2507/toluene/pCzAnN/pCzAnN_toluene_S0_preOpt
      * Solvation model:               GBSA
        Solvent                        toluene
        Solvent mass                       9.2140E+01 g/mol
          :  Hamiltonian                  GFN2-xTB          :
 * total energy  :  -106.6896388 Eh     change       -0.1785310E-09 Eh
 * total energy  :  -106.7054103 Eh     change       -0.1577149E-01 Eh
 * total energy  :  -106.7091283 Eh     change       -0.3718041E-02 Eh
 * total energy  :  -106.7095099 Eh     change       -0.3815596E-03 Eh
 * total energy  :  -106.7097608 Eh     change       -0.2509097E-03 Eh
 * total energy  :  -106.7098633 Eh     change       -0.1025411E-03 Eh
 * total energy  :  -106.7099533 Eh     change       -0.8996249E-04 Eh
 * total energy  :  -106.7100184 Eh     change       -0.6515125E-04 Eh
 * total energy  :  -106.7100584 Eh     change       -0.3993218E-04 Eh
 * total energy  :  -106.7101026 Eh     change       -0.4424542E-04 Eh
 * total energy  :  -106.7103893 Eh     change       -0.5077577E-06 Eh
 * total energy  :  -106.7103898 Eh     change       -0.5563705E-06 Eh
 * total energy  :  -106.7103902 Eh     change       -0.3590673E-06 Eh
 * total energy  :  -106.7103903 Eh     change       -0.1377534E-06 Eh
 * total energy  :  -106.7103903 Eh     change        0.7519873E-07 Eh
 * total energy  :  -106.7103905 Eh     change       -0.1940346E-06 Eh
 * total energy  :  -106.7103904 Eh     change        0.2351636E-07 Eh
 * total energy  :  -106.7103906 Eh     change       -0.1254148E-06 Eh
 * total energy  :  -106.7103906 Eh     change       -0.6682308E-07 Eh
   *** GEOMETRY OPTIMIZATION CONVERGED AFTER 85 ITERATIONS ***

 final structure:
================
70
 xtb: 6.7.1 (edcfbbe)
C            9.78674019478802       -0.22069068442183       -0.46969734303222
C            9.16842090047941       -0.85059645365181       -1.56207204522659
C            7.80540551285141       -0.91252563009224       -1.64323822932483
C            6.99681017406709       -0.34610169271499       -0.63482230901952
C            5.58875030706264       -0.39060634693564       -0.69186333665141
C            4.82081658729724        0.16870299424701        0.29772572271964
C            3.34051005897240        0.12749324100420        0.23273288250586
C            2.64380421784259        1.16999846241054       -0.39131622429658
C            3.32186499610594        2.27082587290415       -0.97896715842613
C            2.63629319919551        3.28573088780089       -1.57209509755115
C            1.22690365907668        3.26458251747489       -1.60925248351063
C            0.53959810448683        2.22634881161908       -1.05958888233585
C            1.21507877127674        1.14056324969722       -0.44167055400962
C            0.52047883955615        0.06491252911309        0.12920018013433
C           -0.95857897515159        0.03534703187824        0.07994784916675
C           -1.62196854887340       -0.25657553079306       -1.10820293988259
C           -3.00251593339622       -0.28038175343038       -1.15785486112906
C           -3.74659014069779       -0.01599704748908       -0.01158176390136
N           -5.14989441741059       -0.04153667604366       -0.05800458963950
C           -5.92267960982172       -1.07469286603198       -0.54815870870599
C           -5.53291982086121       -2.30994802551135       -1.04720492892636
C           -6.52320782143640       -3.18445484982250       -1.45203941620017
C           -7.87284170317401       -2.84901370355224       -1.35920307147842
C           -8.26757117029496       -1.63051024498545       -0.84342889597960
C           -7.29042587528506       -0.73415782739781       -0.42888674732621
C           -7.33411508826554        0.57516647474753        0.15990788293906
C           -8.36906064762043        1.43493321729644        0.50592763041116
C           -8.05501669325450        2.66370884278416        1.05184793178234
C           -6.72807312626432        3.04531339234119        1.24186765713334
C           -5.68138786988269        2.20841055857239        0.90505677999936
C           -5.99105259355422        0.96284324114196        0.37636400383849
C           -3.08953779288925        0.27359467312998        1.18080769284257
C           -1.70880931038949        0.30083562797323        1.22175785133743
C            1.21848143619342       -0.98119373632950        0.74855033381073
C            0.54834893610573       -2.09767777409776        1.31561363930947
C            1.23896903456654       -3.10590543947439        1.91473000596937
C            2.64672509554367       -3.06329275992856        1.98319123802012
C            3.32830248992407       -2.01743038876796        1.44147277748383
C            2.64699997186233       -0.94659820403367        0.80428195847216
C            5.44873308589215        0.79749100857084        1.39382691017822
C            6.81042858684878        0.85564510704942        1.47643564278953
C            7.62219905005263        0.29016578782425        0.46984494223563
C            9.03108259787939        0.33656297533941        0.52391948235035
H           10.86556848570880       -0.18108861897211       -0.42265021632108
H            9.78127630326172       -1.28597117244976       -2.33837936120851
H            7.32480095138062       -1.39618442168705       -2.48224574153846
H            5.11403131862336       -0.87451091264788       -1.53452090726487
H            4.40150932202088        2.28660303473879       -0.94370625744346
H            3.16527902583489        4.11691991316202       -2.01553532792938
H            0.69787239388230        4.08287647740477       -2.07621867958426
H           -0.54008903392409        2.21427256812066       -1.08413172253181
H           -1.04704302567325       -0.46254553213790       -1.99954585729875
H           -3.51134379335539       -0.49214849944636       -2.08662426860446
H           -4.49069667815567       -2.58494998318097       -1.10922641505455
H           -6.24522619014885       -4.15099760166815       -1.84690777026906
H           -8.61738084308258       -3.55901920473389       -1.68876542687528
H           -9.31391231435827       -1.37717116044746       -0.75831983029395
H           -9.39718765868173        1.14564464911373        0.34617488317923
H           -8.84566966270273        3.34515764040145        1.33027611748782
H           -6.51315908739537        4.01878765958090        1.65850933223894
H           -4.65657832076618        2.51941332939206        1.04177491899890
H           -3.66546687122239        0.46497324592862        2.07409937495491
H           -1.20191315149728        0.52657132122122        2.14885385360558
H           -0.52965033684090       -2.13469227831483        1.25922829659269
H            0.71419077231205       -3.94862431166168        2.34125965627938
H            3.17809157917066       -3.87161393043354        2.46450152487038
H            4.40728468193895       -1.98527189158912        1.48527797555134
H            4.83036583466246        1.23297130799942        2.16602878668194
H            7.28720159921831        1.33899928855014        2.31782660276728
H            9.50234403038716        0.82230721433890        1.36710205013735

          :  Hamiltonian                  GFN2-xTB          :
         :: gradient norm              0.000058126554 Eh/a0 ::
         :: HOMO-LUMO gap              2.153266952458 eV    ::
         :: SCC energy              -108.787353350425 Eh    ::
         :: -> dispersion             -0.098831973115 Eh    ::
         :: -> Gsolv                  -0.043274252098 Eh    ::
         :: repulsion energy           2.076962729124 Eh    ::

    * Orbital Energies and Occupations

         #    Occupation            Energy/Eh            Energy/eV
      -------------------------------------------------------------
         1        2.0000           -0.6752161             -18.3736
       ...           ...                  ...                  ...
        88        2.0000           -0.4172952             -11.3552
        89        2.0000           -0.4146891             -11.2843
        90        2.0000           -0.4129973             -11.2382
        91        2.0000           -0.4061182             -11.0510
        92        2.0000           -0.4045706             -11.0089
        93        2.0000           -0.4034716             -10.9790
        94        2.0000           -0.4025736             -10.9546
        95        2.0000           -0.3992993             -10.8655
        96        2.0000           -0.3966124             -10.7924
        97        2.0000           -0.3780335             -10.2868
        98        2.0000           -0.3778278             -10.2812
        99        2.0000           -0.3621333              -9.8541
       100        2.0000           -0.3586599              -9.7596 (HOMO)
       101                         -0.2795288              -7.6064 (LUMO)
       102                         -0.2596443              -7.0653
       103                         -0.2453076              -6.6752
       104                         -0.2332709              -6.3476
       105                         -0.2322912              -6.3210
       106                         -0.2304863              -6.2719
       107                         -0.2285487              -6.2191
       108                         -0.2212371              -6.0202
       109                         -0.2204813              -5.9996
       110                         -0.1903442              -5.1795
       111                         -0.1891479              -5.1470
       ...                                ...                  ...
       199                          0.7452424              20.2791
      -------------------------------------------------------------
                  HL-Gap            0.0791311 Eh            2.1533 eV

     #   Z          covCN         q      C6AA      α(0)
     1   6 C        2.916    -0.032    28.789     8.799
     2   6 C        2.916    -0.031    28.772     8.796
     3   6 C        2.918    -0.036    28.904     8.816
     4   6 C        2.986     0.011    27.762     8.643
     5   6 C        2.923    -0.040    29.004     8.832
     6   6 C        2.973     0.015    27.679     8.630
     7   6 C        2.978    -0.005    28.152     8.703
     8   6 C        2.984     0.006    27.888     8.663
     9   6 C        2.917    -0.034    28.846     8.807
    10   6 C        2.914    -0.031    28.767     8.795
    11   6 C        2.914    -0.031    28.763     8.794
    12   6 C        2.917    -0.035    28.876     8.812
    13   6 C        2.983     0.006    27.887     8.662
    14   6 C        2.977    -0.007    28.181     8.708
    15   6 C        2.976     0.014    27.685     8.631
    16   6 C        2.924    -0.031    28.777     8.797
    17   6 C        2.921    -0.043    29.061     8.840
    18   6 C        2.912     0.062    26.616     8.460
    19   7 N        2.802    -0.047    22.154     6.991
    20   6 C        3.076     0.048    26.853     8.496
    21   6 C        2.909    -0.052    29.292     8.875
    22   6 C        2.924    -0.035    28.879     8.813
    23   6 C        2.919    -0.043    29.069     8.842
    24   6 C        2.912    -0.035    28.874     8.811
    25   6 C        3.067    -0.019    28.415     8.741
    26   6 C        3.067    -0.019    28.415     8.741
    27   6 C        2.912    -0.035    28.874     8.811
    28   6 C        2.919    -0.043    29.070     8.842
    29   6 C        2.924    -0.035    28.878     8.813
    30   6 C        2.909    -0.052    29.293     8.875
    31   6 C        3.076     0.048    26.854     8.496
    32   6 C        2.920    -0.043    29.061     8.840
    33   6 C        2.924    -0.031    28.776     8.797
    34   6 C        2.983     0.006    27.887     8.662
    35   6 C        2.917    -0.035    28.875     8.812
    36   6 C        2.914    -0.031    28.763     8.794
    37   6 C        2.914    -0.031    28.767     8.795
    38   6 C        2.917    -0.034    28.845     8.807
    39   6 C        2.984     0.006    27.888     8.663
    40   6 C        2.919    -0.033    28.822     8.804
    41   6 C        2.916    -0.037    28.909     8.817
    42   6 C        2.987     0.009    27.798     8.649
    43   6 C        2.918    -0.036    28.896     8.815
    44   1 H        0.926     0.030     2.580     2.512
    45   1 H        0.926     0.031     2.579     2.511
    46   1 H        0.926     0.032     2.564     2.504
    47   1 H        0.925     0.030     2.588     2.516
    48   1 H        0.926     0.030     2.580     2.512
    49   1 H        0.926     0.030     2.583     2.513
    50   1 H        0.926     0.030     2.580     2.512
    51   1 H        0.926     0.031     2.569     2.506
    52   1 H        0.926     0.039     2.464     2.455
    53   1 H        0.926     0.042     2.426     2.436
    54   1 H        0.926     0.029     2.598     2.520
    55   1 H        0.926     0.029     2.596     2.520
    56   1 H        0.926     0.027     2.629     2.536
    57   1 H        0.926     0.029     2.596     2.520
    58   1 H        0.926     0.029     2.596     2.520
    59   1 H        0.926     0.027     2.629     2.536
    60   1 H        0.926     0.029     2.596     2.519
    61   1 H        0.926     0.029     2.597     2.520
    62   1 H        0.926     0.042     2.425     2.435
    63   1 H        0.926     0.039     2.465     2.455
    64   1 H        0.926     0.031     2.570     2.507
    65   1 H        0.926     0.030     2.580     2.512
    66   1 H        0.926     0.030     2.583     2.513
    67   1 H        0.926     0.030     2.579     2.511
    68   1 H        0.926     0.030     2.588     2.516
    69   1 H        0.926     0.033     2.541     2.493
    70   1 H        0.926     0.032     2.562     2.503

molecular dipole:
                 x           y           z       tot (Debye)
 q only:        0.764       0.022       0.040
   full:        0.811       0.023       0.040       2.065

 projected vibrational frequencies (cm⁻¹)
eigval :       -0.00     0.00     0.00     0.00     0.00     0.00
eigval :       10.93    14.32    18.96    21.08    37.13    39.42
eigval :       61.44    67.94    71.86    83.02   105.39   106.54
eigval :      107.46   129.34   143.06   162.75   163.38   178.46
eigval :      182.73   206.57   213.91   216.35   259.38   271.88
eigval :      291.93   308.97   341.67   353.73   363.31   376.96
eigval :      384.72   390.92   394.35   402.67   414.66   415.40
eigval :      426.95   441.17   446.32   449.42   450.29   459.45
eigval :      481.88   496.16   505.38   518.68   533.44   540.45
eigval :      544.42   568.35   579.28   582.23   587.36   588.58
eigval :      603.85   611.74   615.21   636.47   645.49   654.59
eigval :      673.12   687.50   693.27   698.84   707.91   725.65
eigval :      733.33   740.79   756.66   756.76   767.11   773.77
eigval :      776.25   779.23   794.42   818.00   818.32   833.56
eigval :      864.96   870.08   873.37   873.93   875.82   880.35
eigval :      881.94   886.56   896.28   898.76   899.25   901.78
eigval :      902.32   914.88   917.28   918.17   918.64   920.59
eigval :      923.26   924.63   928.83   929.17   929.34   931.98
eigval :      932.93   951.00   992.55  1010.92  1023.70  1068.33
eigval :     1071.61  1077.93  1078.41  1079.53  1115.64  1131.51
eigval :     1133.43  1134.60  1144.53  1150.45  1171.91  1174.03
eigval :     1176.97  1178.35  1179.60  1180.25  1182.69  1187.08
eigval :     1195.72  1215.50  1226.19  1227.17  1231.07  1235.25
eigval :     1243.89  1257.05  1257.24  1261.60  1265.87  1298.69
eigval :     1301.02  1306.96  1318.89  1328.74  1348.01  1349.31
eigval :     1356.04  1360.49  1366.22  1381.04  1383.79  1395.77
eigval :     1400.83  1417.59  1424.91  1427.26  1428.10  1429.53
eigval :     1442.03  1460.16  1474.29  1483.34  1486.92  1498.72
eigval :     1500.28  1525.06  1531.28  1542.20  1559.14  1560.03
eigval :     1572.87  1587.17  1595.55  1596.99  1606.90  1607.11
eigval :     1610.13  1613.22  1621.73  3063.20  3063.73  3065.57
eigval :     3067.94  3069.29  3069.39  3070.18  3070.50  3073.85
eigval :     3075.12  3075.29  3075.39  3076.47  3076.89  3078.54
eigval :     3078.77  3082.65  3084.11  3084.31  3084.63  3085.33
eigval :     3089.41  3089.67  3090.07  3090.93  3092.05  3092.97

   temp. (K)  partition function   enthalpy   heat capacity  entropy
                                   cal/mol     cal/K/mol   cal/K/mol   J/K/mol
 298.15  VIB  0.156E+15            18782.586    123.350    115.235
         ROT  0.639E+08              888.752      2.981     38.699
         INT  0.997E+22            19671.338    126.331    153.935
         TR   0.123E+29             1481.254      4.968     44.756
         TOT                       21152.5924   131.2989   198.6902   831.3197

       T/K    H(0)-H(T)+PV         H(T)/Eh          T*S/Eh         G(T)/Eh
   ------------------------------------------------------------------------
    298.15    0.337088E-01    0.574171E+00    0.944041E-01    0.479767E+00
   ------------------------------------------------------------------------

         :::::::::::::::::::::::::::::::::::::::::::::::::::::
         ::                  THERMODYNAMIC                  ::
         :::::::::::::::::::::::::::::::::::::::::::::::::::::
         :: total free energy        -106.230623842098 Eh   ::
         ::.................................................::
         :: total energy             -106.710390620929 Eh   ::
         :: zero point energy           0.540462092747 Eh   ::
         :: G(RRHO) w/o ZPVE           -0.060695313916 Eh   ::
         :: G(RRHO) contrib.            0.479766778831 Eh   ::
         :::::::::::::::::::::::::::::::::::::::::::::::::::::

           -------------------------------------------------
          | TOTAL ENERGY             -106.710390620929 Eh   |
          | TOTAL ENTHALPY           -106.136219726511 Eh   |
          | TOTAL FREE ENERGY        -106.230623842098 Eh   |
          | GRADIENT NORM               0.000058110109 Eh/α |
          | HOMO-LUMO GAP               2.153266991636 eV   |
           -------------------------------------------------

 * finished run on 2025/07/20 at 18:37:34.367
