   * xtb version 6.7.1 (edcfbbe) compiled by 'albert@albert-system' on 2024-07-22

   ID    Z sym.   atoms
    1    9 F      1, 3, 4
    2    6 C      2, 5-8, 10-19, 21-34, 36-45, 47-62
    3    7 N      9, 20, 35, 46
    4    1 H      63-97

          program call               : xtb data2507/gas/PPI-PIM-1/PPI-PIM-1_gas_T1_crest.xyz --gfn 2 --spinpol --tblite --uhf 2 --ohess vtight --parallel 40 --molden --ceasefiles --namespace data2507/gas/PPI-PIM-1/PPI-PIM-1_gas_T1_finalOpt
 * total energy  :  -161.5202018 Eh     change       -0.1349255E-07 Eh
 * total energy  :  -161.5202100 Eh     change       -0.8194948E-05 Eh
 * total energy  :  -161.5202141 Eh     change       -0.4135948E-05 Eh
 * total energy  :  -161.5202164 Eh     change       -0.2255690E-05 Eh
 * total energy  :  -161.5202201 Eh     change       -0.3711272E-05 Eh
 * total energy  :  -161.5202226 Eh     change       -0.2530179E-05 Eh
 * total energy  :  -161.5202250 Eh     change       -0.2388292E-05 Eh
 * total energy  :  -161.5202266 Eh     change       -0.1531801E-05 Eh
 * total energy  :  -161.5202278 Eh     change       -0.1240996E-05 Eh
 * total energy  :  -161.5202290 Eh     change       -0.1238824E-05 Eh
 * total energy  :  -161.5202336 Eh     change       -0.8183466E-06 Eh
 * total energy  :  -161.5202343 Eh     change       -0.6790014E-06 Eh
 * total energy  :  -161.5202350 Eh     change       -0.7536799E-06 Eh
 * total energy  :  -161.5202359 Eh     change       -0.8726473E-06 Eh
 * total energy  :  -161.5202369 Eh     change       -0.9823743E-06 Eh
 * total energy  :  -161.5202378 Eh     change       -0.9333628E-06 Eh
 * total energy  :  -161.5202386 Eh     change       -0.7753092E-06 Eh
 * total energy  :  -161.5202393 Eh     change       -0.7535257E-06 Eh
 * total energy  :  -161.5202394 Eh     change       -0.3898742E-07 Eh
   *** GEOMETRY OPTIMIZATION CONVERGED AFTER 22 ITERATIONS ***

 final structure:
================
97
 xtb: 6.7.1 (edcfbbe)
F           -4.68185629092678       -6.10446152953937       -0.52310870075027
C           -4.72352868781800       -5.42020147154017        0.63194194873475
F           -5.72588042550855       -5.97309452420419        1.35092923153282
F           -3.59237333947300       -5.71686102459577        1.29090722101058
C           -4.91709829737322       -3.94876239747326        0.43225063149642
C           -4.38694952363306       -3.04786369451432        1.35265541645479
C           -4.59125235565902       -1.69604797812613        1.18286143640761
C           -5.33581933749577       -1.23093894315441        0.09458894305845
N           -5.52596475719673        0.14104585076730       -0.08049023533510
C           -4.50237417727058        1.10004541122981       -0.18060938643753
C           -3.11698135429568        0.86710219121996       -0.26378845119408
C           -2.50068194915049       -0.37284804768935       -0.58606473782505
C           -1.14646967243956       -0.49754367767908       -0.62103330793740
C           -0.27179142877769        0.59152800353747       -0.34833386249499
C            1.14393510228115        0.43713149478653       -0.33925308028848
C            1.76110478928353       -0.83660539916668       -0.20972042178554
C            3.11587889354787       -0.97665549852281       -0.16789864861693
C            3.97484687250468        0.14439060951006       -0.23999214642131
C            5.37969844558147       -0.08546484310786       -0.17915791318287
N            5.92506682740715       -1.26280909822900       -0.44532125205621
C            7.26127322195165       -1.11876382349568       -0.36935783065706
C            8.14659525646575       -2.25091465594015       -0.58506792006070
C            7.71095189465337       -3.29681038771169       -1.39957316922771
C            8.52065859637059       -4.39239059347000       -1.62380966326458
C            9.77248151035996       -4.46482347743574       -1.03333913833997
C           10.20373523148267       -3.44007566962535       -0.20636418397738
C            9.39899241580436       -2.34014068094013        0.02159883171343
C            7.57212914152707        0.20506619198745       -0.03530042629891
C            8.85546406982844        0.86048146539756        0.14440051025893
C            9.85976756329631        0.68498800122493       -0.81034224696603
C           11.08280984561543        1.30720820209235       -0.65874963754840
C           11.32550076346543        2.11114024289252        0.44427802626699
C           10.33772539024276        2.28442925579815        1.39982189756382
C            9.11017728746055        1.66714254618595        1.25437673646491
N            6.36561097730760        0.84663006518372        0.09818024227272
C            6.20527604313684        2.18011289515229        0.51438628281098
C            5.43636824645154        2.46406112636955        1.63970686787949
C            5.29950825205310        3.77257685603994        2.06203898736452
C            5.93229623539827        4.79731466601871        1.37630079111838
C            6.70087822481323        4.51187391852817        0.25994377197822
C            6.84059974479567        3.20702287023077       -0.17560099808253
C            3.37826434663676        1.41017966635194       -0.42227225505068
C            2.02090563523006        1.54673259941326       -0.46607383792986
C           -0.89866541263815        1.84671897809170       -0.09874581736268
C           -2.24913763574598        1.98024481863185       -0.06496626617705
N           -5.01898690790545        2.33183883184928       -0.26552935433409
C           -6.34322205839563        2.19452437435495       -0.26618279755354
C           -7.32133577053078        3.22083071462344       -0.41391245273372
C           -6.93936190466988        4.54956112059476       -0.61617103095911
C           -7.89067858996373        5.52455717245464       -0.80491683652928
C           -9.23629060322217        5.17164516526806       -0.80159624275778
C           -9.62297163807017        3.86470779665406       -0.59523739077975
C           -8.68350061959409        2.84685024593130       -0.38296504019105
C           -9.05736318725940        1.46769824026801       -0.11217205496707
C          -10.39503668627171        1.09354560898257        0.04409792666166
C          -10.76580813505527       -0.19618385399232        0.35651448124371
C           -9.79170157028573       -1.17161220044523        0.55225685870024
C           -8.46727835033091       -0.85182375727475        0.39851000049890
C           -8.06408763932935        0.45032744454542        0.04137968234778
C           -6.71464373077232        0.83424231701839       -0.12766036275487
C           -5.86928786177969       -2.14191505515665       -0.82285971058870
C           -5.66179412012695       -3.49345081027428       -0.65387169757896
H           -3.81776184470589       -3.41148167037792        2.19388813871062
H           -4.18018817631909       -0.98719411462114        1.88475323914298
H           -3.10960296925756       -1.21809671155123       -0.86523759875204
H           -0.72694055319090       -1.44701558110733       -0.91550540888654
H            1.14503778609940       -1.71522671051994       -0.10122289655483
H            3.57138936792944       -1.94785101516862       -0.05430534755660
H            6.73223308544295       -3.22568307932666       -1.84801016130191
H            8.17704972026426       -5.19443118543973       -2.26071617571695
H           10.40728638863994       -5.32064948559242       -1.21010160935512
H           11.17211473582491       -3.50102334938362        0.26886542012732
H            9.73417077851358       -1.55711000497913        0.68524445902823
H            9.66600355134565        0.06233371515987       -1.67143627622054
H           11.85023526575207        1.16773202090007       -1.40567891913133
H           12.28236873476787        2.59760785704975        0.56013186861483
H           10.52467007489768        2.90203051221541        2.26592614080044
H            8.35227676187058        1.79229920001587        2.01398982895884
H            4.95031109505867        1.65776507986460        2.16891160468563
H            4.70155381952963        3.99178312516014        2.93366459875099
H            5.82601657681048        5.81751302487352        1.71219221397019
H            7.19306542411679        5.30822955239166       -0.27754606638308
H            7.43365715961464        2.97820973881771       -1.04846848369647
H            3.99827532202890        2.28098686775620       -0.57286393491548
H            1.60983573129620        2.52709679227680       -0.64965117028262
H           -0.28640888895853        2.70963802358073        0.11159239923931
H           -2.70996997423130        2.93243259489934        0.14427231959671
H           -5.88446130931519        4.77488445830280       -0.62682532348251
H           -7.60020031797875        6.55247925596388       -0.96207278213367
H           -9.98963331746925        5.92932298954715       -0.96203036333172
H          -10.67772409239281        3.64074253317184       -0.60651742623455
H          -11.17387438747812        1.83053661359729       -0.06694469226037
H          -11.81044798454862       -0.44487658703960        0.46803172489248
H          -10.07604895651027       -2.17529574373641        0.83065455935040
H           -7.72035816367686       -1.60668812458736        0.58069377154611
H           -6.43810022089519       -1.77604850621774       -1.66422101630727
H           -6.06269799486739       -4.19959384668436       -1.36441436514621

 projected vibrational frequencies (cm⁻¹)
eigval :       -0.00    -0.00    -0.00     0.00     0.00     0.00
eigval :        5.45     6.60     9.85    15.71    16.26    19.76
eigval :       23.58    30.77    31.27    37.81    40.71    45.36
eigval :       48.05    54.24    59.98    62.20    71.27    77.23
eigval :       82.94    89.00    96.37   105.41   112.97   121.93
eigval :      127.01   130.22   144.29   151.64   173.84   177.47
eigval :      187.49   204.66   222.87   226.48   234.12   238.69
eigval :      243.23   245.75   255.62   264.11   270.99   282.70
eigval :      300.41   326.18   342.76   355.26   365.75   366.93
eigval :      369.57   370.32   375.46   376.48   379.36   379.87
eigval :      384.18   393.78   397.13   398.58   412.48   421.65
eigval :      434.71   439.40   453.87   460.50   463.44   479.23
eigval :      484.61   490.94   495.47   504.94   512.45   519.93
eigval :      521.08   528.73   549.40   557.45   582.97   583.92
eigval :      585.14   587.72   589.48   597.21   599.63   618.98
eigval :      621.41   626.74   635.95   640.28   644.23   648.33
eigval :      656.53   659.02   663.00   667.92   673.36   675.65
eigval :      675.91   681.91   685.98   689.51   702.11   710.66
eigval :      730.79   732.33   752.87   757.38   758.47   760.17
eigval :      763.80   777.27   781.70   793.90   801.25   809.55
eigval :      816.10   820.15   827.68   854.83   864.79   870.13
eigval :      873.26   874.94   876.32   898.07   901.51   901.69
eigval :      903.45   905.41   909.50   910.83   912.16   913.60
eigval :      914.46   917.92   918.65   923.08   924.09   926.96
eigval :      928.73   929.42   930.20   930.48   930.98   932.27
eigval :      939.17   942.62   945.66   971.28   979.56   988.88
eigval :      999.95  1009.42  1016.41  1020.94  1030.18  1059.16
eigval :     1063.81  1068.20  1078.56  1080.78  1082.90  1083.92
eigval :     1097.46  1101.35  1106.33  1116.66  1118.51  1121.63
eigval :     1132.69  1135.84  1139.34  1150.54  1153.94  1160.12
eigval :     1165.28  1178.94  1179.93  1180.13  1180.50  1184.55
eigval :     1185.76  1187.89  1193.74  1200.25  1206.50  1206.99
eigval :     1211.50  1235.37  1246.30  1251.57  1254.46  1260.87
eigval :     1263.68  1267.73  1275.80  1276.57  1277.79  1281.21
eigval :     1285.89  1295.16  1303.15  1306.70  1315.57  1317.55
eigval :     1322.98  1325.78  1327.72  1334.79  1336.65  1340.06
eigval :     1350.69  1366.33  1377.97  1393.65  1402.62  1406.64
eigval :     1408.73  1414.05  1423.93  1426.93  1431.42  1434.64
eigval :     1435.73  1438.36  1444.43  1445.69  1451.03  1464.74
eigval :     1475.59  1476.77  1481.04  1487.07  1489.79  1502.37
eigval :     1520.05  1523.02  1526.92  1545.24  1547.27  1559.39
eigval :     1570.30  1572.33  1577.06  1578.64  1581.20  1585.61
eigval :     1588.64  1589.88  1592.93  1595.10  3071.98  3074.99
eigval :     3075.80  3076.92  3078.33  3081.11  3083.36  3084.59
eigval :     3085.38  3085.52  3087.12  3087.76  3088.25  3089.93
eigval :     3090.93  3091.57  3092.55  3093.37  3094.20  3096.09
eigval :     3096.89  3097.19  3098.30  3099.12  3102.09  3102.87
eigval :     3105.18  3105.38  3106.55  3107.47  3108.37  3109.44
eigval :     3110.97  3111.53  3124.68

   temp. (K)  partition function   enthalpy   heat capacity  entropy
                                   cal/mol     cal/K/mol   cal/K/mol   J/K/mol
 298.15  VIB  0.321E+26            29824.745    182.037    189.796
         ROT  0.281E+09              888.752      2.981     41.642
         INT  0.903E+34            30713.498    185.018    231.438
         TR   0.223E+29             1481.254      4.968     45.928
         TOT                       32194.7516   189.9864   277.3668  1160.5026

       T/K    H(0)-H(T)+PV         H(T)/Eh          T*S/Eh         G(T)/Eh
   ------------------------------------------------------------------------
    298.15    0.513056E-01    0.774313E+00    0.131786E+00    0.642527E+00
   ------------------------------------------------------------------------

         :::::::::::::::::::::::::::::::::::::::::::::::::::::
         ::                  THERMODYNAMIC                  ::
         :::::::::::::::::::::::::::::::::::::::::::::::::::::
         :: total free energy        -160.877712226899 Eh   ::
         ::.................................................::
         :: total energy             -161.520239345290 Eh   ::
         :: zero point energy           0.723007417685 Eh   ::
         :: G(RRHO) w/o ZPVE           -0.080480299294 Eh   ::
         :: G(RRHO) contrib.            0.642527118391 Eh   ::
         :::::::::::::::::::::::::::::::::::::::::::::::::::::

           -------------------------------------------------
          | TOTAL ENERGY             -161.520239345290 Eh   |
          | TOTAL ENTHALPY           -160.745926325111 Eh   |
          | TOTAL FREE ENERGY        -160.877712226899 Eh   |
          | GRADIENT NORM               0.000083660541 Eh/α |
           -------------------------------------------------

 * finished run on 2025/08/26 at 03:30:00.834
