   * xtb version 6.7.1 (edcfbbe) compiled by 'albert@albert-system' on 2024-07-22

   ID    Z sym.   atoms
    1    9 F      1, 3, 4
    2    6 C      2, 5-8, 10-19, 21-34, 36-45, 47-62
    3    7 N      9, 20, 35, 46
    4    1 H      63-97

          program call               : xtb data2507/gas/PPI-PIM-1/PPI-PIM-1_gas_S0_crest.xyz --gfn 2 --ohess vtight --parallel 40 --molden --ceasefiles --namespace data2507/gas/PPI-PIM-1/PPI-PIM-1_gas_S0_finalOpt
          :  Hamiltonian                  GFN2-xTB          :
 * total energy  :  -161.5990400 Eh     change       -0.2562160E-08 Eh
 * total energy  :  -161.5990411 Eh     change       -0.1018324E-05 Eh
 * total energy  :  -161.5990420 Eh     change       -0.9451740E-06 Eh
 * total energy  :  -161.5990442 Eh     change       -0.2205578E-05 Eh
 * total energy  :  -161.5990451 Eh     change       -0.8801102E-06 Eh
 * total energy  :  -161.5990461 Eh     change       -0.1014163E-05 Eh
 * total energy  :  -161.5990483 Eh     change       -0.2156330E-05 Eh
 * total energy  :  -161.5990498 Eh     change       -0.1580217E-05 Eh
 * total energy  :  -161.5990522 Eh     change       -0.2356070E-05 Eh
 * total energy  :  -161.5990538 Eh     change       -0.1626193E-05 Eh
 * total energy  :  -161.5991142 Eh     change       -0.8847414E-06 Eh
 * total energy  :  -161.5991150 Eh     change       -0.8540191E-06 Eh
 * total energy  :  -161.5991157 Eh     change       -0.7080073E-06 Eh
 * total energy  :  -161.5991164 Eh     change       -0.6206471E-06 Eh
 * total energy  :  -161.5991170 Eh     change       -0.6076131E-06 Eh
 * total energy  :  -161.5991176 Eh     change       -0.6550686E-06 Eh
 * total energy  :  -161.5991183 Eh     change       -0.6979554E-06 Eh
 * total energy  :  -161.5991190 Eh     change       -0.7165133E-06 Eh
 * total energy  :  -161.5991190 Eh     change       -0.1736311E-08 Eh
   *** GEOMETRY OPTIMIZATION CONVERGED AFTER 68 ITERATIONS ***

 final structure:
================
97
 xtb: 6.7.1 (edcfbbe)
F           -4.20479233496592       -5.99435072477604       -0.44087808737357
C           -4.35193678491468       -5.32990022707777        0.71592333597515
F           -5.34697212563458       -5.95336742630395        1.37963864252770
F           -3.23614989554054       -5.54665658409926        1.42662247642345
C           -4.64342059064964       -3.87083965450792        0.51258172799176
C           -4.17603809111532       -2.93530054850115        1.42651626909522
C           -4.47349936441447       -1.59826404702790        1.24849648525210
C           -5.24070607133321       -1.19628398009053        0.15846321226820
N           -5.50665880038863        0.16530185406499       -0.04016046190169
C           -4.54677225547007        1.14184035202057       -0.23855000560696
C           -3.11271393819355        0.91062467379047       -0.25542054662861
C           -2.52946422471195       -0.24437291742254       -0.77471049737980
C           -1.15824511097025       -0.39858561652253       -0.76275498629594
C           -0.32736507807836        0.59638551199058       -0.25075435266838
C            1.13016968341090        0.42554809526579       -0.23836913841500
C            1.70431506873294       -0.80158433340588        0.09356975358287
C            3.07348406725146       -0.95442607610126        0.11936674649359
C            3.91448457066709        0.11579955882795       -0.19046252512720
C            5.34813350552774       -0.10795138776484       -0.16586541010433
N            5.90082350959962       -1.26254030941505       -0.44531264959810
C            7.24835043558830       -1.09214902143935       -0.37397513494355
C            8.15004204464320       -2.21201206427979       -0.59817692201207
C            7.71879568510609       -3.27545344208483       -1.39004076914363
C            8.54586665366005       -4.35724559747329       -1.62037047573182
C            9.81264299241395       -4.39652566839849       -1.06057529850763
C           10.24135777415121       -3.35225132564077       -0.25769891246522
C            9.41763560011691       -2.26770460014448       -0.02213010051517
C            7.52723005108999        0.22441553369076       -0.04250381958953
C            8.79114034792510        0.92759422446252        0.13229017628595
C            9.78239023621927        0.82161046694831       -0.84303463697314
C           10.98088214530141        1.49212044396117       -0.69533532613558
C           11.20677842033490        2.27895130446502        0.42291210834851
C           10.22946302162388        2.38542975264757        1.39790308177983
C            9.02846649590970        1.71538655312809        1.25708635332067
N            6.30321806011902        0.84130083048358        0.09874602782036
C            6.10333668020998        2.17641431040349        0.49185156058642
C            5.29918383128272        2.45825376163525        1.59150100820330
C            5.11011164491547        3.77028210427397        1.98288549614101
C            5.72637665876342        4.80046367598707        1.29122340424538
C            6.53068564241452        4.51722766925179        0.20007402219429
C            6.72068604453972        3.20885507807509       -0.20525665159785
C            3.34393563321423        1.33460844775904       -0.55608692163587
C            1.97270879349761        1.48554284144130       -0.56879462876454
C           -0.91372537410619        1.76408233013210        0.23758841649658
C           -2.28268663862794        1.91965489397340        0.23608830870482
N           -5.08147298243363        2.31866670304204       -0.43005426909342
C           -6.42718700522575        2.14110968200369       -0.36670957692192
C           -7.44417253267312        3.11808301660262       -0.55444731403092
C           -7.12560180963782        4.44744628196292       -0.85058249366704
C           -8.12196353493648        5.36634109464512       -1.06562261437704
C           -9.45346580061212        4.96189018108759       -0.99107385897522
C           -9.77759558347513        3.65876901361816       -0.69414082698609
C           -8.78825226726472        2.69201674128556       -0.45689215857145
C           -9.09616777745976        1.31773635444223       -0.10087031194151
C          -10.41695234105659        0.88799685432094        0.09127017114409
C          -10.71807969620893       -0.39585313213268        0.47933109360539
C           -9.69725065055973       -1.31095932432644        0.71539432703637
C           -8.39035854449707       -0.93363061703445        0.52932124118403
C           -8.06287658916831        0.36066918710043        0.09978114819946
C           -6.72744500864415        0.80499225168659       -0.11294645028992
C           -5.70847326905413       -2.14040888252157       -0.75489742227393
C           -5.41426437657749       -3.47681128822508       -0.57537316445425
H           -3.58189991135255       -3.25341364913289        2.26891094715731
H           -4.11295065655196       -0.85979403010971        1.94767874502510
H           -3.14192884613129       -1.01527266350081       -1.21806029912771
H           -0.72118687499136       -1.29187725292467       -1.18382147622799
H            1.06760731015169       -1.63365981970090        0.35645008290821
H            3.52153839729170       -1.90065452859906        0.37925709660608
H            6.72782572935593       -3.23188577444205       -1.81475592351954
H            8.20353806004055       -5.17447501430121       -2.23889067404388
H           10.46125581227593       -5.24104794487810       -1.24269163767090
H           11.22303052885668       -3.38538514796368        0.19292893606197
H            9.75293856107503       -1.46751442900798        0.62092854587559
H            9.60118776683507        0.20938888309438       -1.71442114188689
H           11.74121247853639        1.40418250727983       -1.45742674178766
H           12.14333571183395        2.80465610506295        0.53518052947002
H           10.40322654099689        2.99142285823083        2.27509788728376
H            8.27627719661768        1.79101743472644        2.02937567399816
H            4.82766551581692        1.64781487080475        2.12766976080032
H            4.48457618371520        3.98780304367593        2.83552195188950
H            5.57997459843985        5.82343233694542        1.60310962417098
H            7.01143851582698        5.31775564824612       -0.34164887154001
H            7.34121775261131        2.98175302638784       -1.05922527235951
H            3.96952313379218        2.16311960455368       -0.85311890407377
H            1.54561526204293        2.43105737665210       -0.86945909249008
H           -0.28660297533267        2.54540892319548        0.64099129539322
H           -2.73809553939607        2.82076634246634        0.61606730865800
H           -6.08212065738562        4.71486824186335       -0.91019208955526
H           -7.88177107834643        6.39354811398911       -1.29655501593524
H          -10.24119153334826        5.67981260121554       -1.16830363121847
H          -10.82163812058252        3.39239723250836       -0.65085149364773
H          -11.23138652525185        1.57856546818890       -0.05552826776135
H          -11.74798129050524       -0.68974190291362        0.61726115157357
H           -9.92918264827349       -2.31142283370942        1.04877406793413
H           -7.60333819457551       -1.64089096277715        0.73825398661736
H           -6.30117799304730       -1.81785525465531       -1.59756574523302
H           -5.77010368436622       -4.21299275921158       -1.27944907955246

          :  Hamiltonian                  GFN2-xTB          :
         :: gradient norm              0.000026684670 Eh/a0 ::
         :: HOMO-LUMO gap              2.132065543568 eV    ::
         :: SCC energy              -164.377278264947 Eh    ::
         :: -> dispersion             -0.140444062967 Eh    ::
         :: repulsion energy           2.778159234720 Eh    ::

    * Orbital Energies and Occupations

         #    Occupation            Energy/Eh            Energy/eV
      -------------------------------------------------------------
         1        2.0000           -0.8810605             -23.9749
       ...           ...                  ...                  ...
       136        2.0000           -0.4125989             -11.2274
       137        2.0000           -0.4113601             -11.1937
       138        2.0000           -0.4099563             -11.1555
       139        2.0000           -0.4075892             -11.0911
       140        2.0000           -0.4044347             -11.0052
       141        2.0000           -0.3987576             -10.8507
       142        2.0000           -0.3946711             -10.7395
       143        2.0000           -0.3908517             -10.6356
       144        2.0000           -0.3867466             -10.5239
       145        2.0000           -0.3844280             -10.4608
       146        2.0000           -0.3743743             -10.1872
       147        2.0000           -0.3699373             -10.0665
       148        2.0000           -0.3599508              -9.7948 (HOMO)
       149                         -0.2815989              -7.6627 (LUMO)
       150                         -0.2698157              -7.3421
       151                         -0.2682302              -7.2989
       152                         -0.2557759              -6.9600
       153                         -0.2527266              -6.8770
       154                         -0.2480674              -6.7503
       155                         -0.2423189              -6.5938
       156                         -0.2406008              -6.5471
       157                         -0.2346839              -6.3861
       158                         -0.2323185              -6.3217
       159                         -0.2275699              -6.1925
       ...                                ...                  ...
       283                          0.7222533              19.6535
      -------------------------------------------------------------
                  HL-Gap            0.0783519 Eh            2.1321 eV

     #   Z          covCN         q      C6AA      α(0)
     1   9 F        0.791    -0.206    11.293     3.970
     2   6 C        3.336     0.486    17.279     6.583
     3   9 F        0.791    -0.210    11.338     3.978
     4   9 F        0.791    -0.205    11.283     3.968
     5   6 C        2.977    -0.026    28.657     8.781
     6   6 C        2.920    -0.020    28.513     8.756
     7   6 C        2.923    -0.034    28.836     8.806
     8   6 C        2.912     0.081    26.193     8.392
     9   7 N        2.841    -0.045    22.106     6.983
    10   6 C        3.183     0.127    24.805     8.128
    11   6 C        2.974    -0.001    28.056     8.688
    12   6 C        2.920    -0.036    28.890     8.814
    13   6 C        2.924    -0.034    28.845     8.808
    14   6 C        2.976     0.013    27.715     8.636
    15   6 C        2.977     0.009    27.811     8.650
    16   6 C        2.923    -0.032    28.810     8.802
    17   6 C        2.926    -0.029    28.730     8.790
    18   6 C        2.974     0.002    27.973     8.676
    19   6 C        3.158     0.120    25.084     8.188
    20   7 N        1.914    -0.289    28.346     7.894
    21   6 C        3.165     0.052    26.494     8.412
    22   6 C        2.974     0.010    27.784     8.646
    23   6 C        2.927    -0.030    28.749     8.793
    24   6 C        2.918    -0.030    28.742     8.791
    25   6 C        2.920    -0.032    28.801     8.801
    26   6 C        2.919    -0.030    28.757     8.794
    27   6 C        2.923    -0.037    28.923     8.819
    28   6 C        3.070     0.014    27.630     8.619
    29   6 C        2.972     0.009    27.816     8.651
    30   6 C        2.925    -0.032    28.802     8.801
    31   6 C        2.919    -0.028    28.704     8.786
    32   6 C        2.920    -0.031    28.768     8.796
    33   6 C        2.919    -0.029    28.732     8.790
    34   6 C        2.924    -0.034    28.842     8.807
    35   7 N        2.851    -0.037    21.960     6.960
    36   6 C        2.914     0.068    26.486     8.439
    37   6 C        2.922    -0.038    28.948     8.823
    38   6 C        2.920    -0.026    28.664     8.780
    39   6 C        2.920    -0.030    28.758     8.794
    40   6 C        2.920    -0.027    28.664     8.780
    41   6 C        2.921    -0.038    28.937     8.822
    42   6 C        2.920    -0.035    28.874     8.812
    43   6 C        2.924    -0.034    28.846     8.808
    44   6 C        2.923    -0.032    28.805     8.801
    45   6 C        2.927    -0.028    28.702     8.786
    46   7 N        1.895    -0.283    28.194     7.872
    47   6 C        3.204     0.058    26.126     8.326
    48   6 C        2.986     0.003    27.944     8.671
    49   6 C        2.922    -0.031    28.763     8.795
    50   6 C        2.917    -0.029    28.734     8.790
    51   6 C        2.918    -0.032    28.792     8.799
    52   6 C        2.922    -0.034    28.854     8.809
    53   6 C        2.979    -0.001    28.038     8.686
    54   6 C        2.980     0.003    27.952     8.672
    55   6 C        2.922    -0.033    28.822     8.804
    56   6 C        2.916    -0.032    28.800     8.800
    57   6 C        2.917    -0.031    28.771     8.796
    58   6 C        2.919    -0.041    29.011     8.833
    59   6 C        2.978    -0.002    28.079     8.692
    60   6 C        3.067     0.019    27.517     8.602
    61   6 C        2.922    -0.032    28.804     8.801
    62   6 C        2.920    -0.021    28.535     8.760
    63   1 H        0.926     0.066     2.125     2.279
    64   1 H        0.926     0.059     2.213     2.326
    65   1 H        0.926     0.024     2.677     2.559
    66   1 H        0.926     0.038     2.477     2.461
    67   1 H        0.926     0.037     2.493     2.469
    68   1 H        0.926     0.055     2.259     2.350
    69   1 H        0.926     0.049     2.330     2.387
    70   1 H        0.926     0.029     2.598     2.520
    71   1 H        0.926     0.027     2.627     2.535
    72   1 H        0.926     0.026     2.641     2.542
    73   1 H        0.926     0.025     2.659     2.550
    74   1 H        0.926     0.034     2.534     2.489
    75   1 H        0.926     0.033     2.550     2.497
    76   1 H        0.926     0.031     2.569     2.507
    77   1 H        0.926     0.030     2.590     2.517
    78   1 H        0.926     0.024     2.669     2.555
    79   1 H        0.926     0.039     2.457     2.451
    80   1 H        0.926     0.040     2.452     2.449
    81   1 H        0.926     0.039     2.459     2.452
    82   1 H        0.926     0.040     2.452     2.449
    83   1 H        0.926     0.040     2.444     2.445
    84   1 H        0.926     0.028     2.622     2.532
    85   1 H        0.926     0.034     2.527     2.486
    86   1 H        0.926     0.039     2.460     2.453
    87   1 H        0.926     0.053     2.281     2.362
    88   1 H        0.926     0.052     2.301     2.372
    89   1 H        0.926     0.032     2.557     2.501
    90   1 H        0.926     0.030     2.584     2.514
    91   1 H        0.926     0.032     2.553     2.499
    92   1 H        0.926     0.037     2.493     2.469
    93   1 H        0.926     0.032     2.562     2.503
    94   1 H        0.926     0.030     2.581     2.512
    95   1 H        0.926     0.022     2.703     2.571
    96   1 H        0.926     0.062     2.174     2.306
    97   1 H        0.926     0.066     2.132     2.283

molecular dipole:
                 x           y           z       tot (Debye)
 q only:        0.032       1.940       0.158
   full:        0.044       1.886       0.341       4.874

 projected vibrational frequencies (cm⁻¹)
eigval :       -0.00    -0.00     0.00     0.00     0.00     0.00
eigval :        5.88     7.58     9.12    13.41    17.81    19.28
eigval :       23.94    31.51    31.86    34.93    39.77    45.76
eigval :       50.48    55.21    61.56    65.17    72.34    76.31
eigval :       81.10    86.84    94.57   103.32   113.93   115.24
eigval :      125.95   129.43   138.85   149.91   173.17   186.40
eigval :      189.42   207.04   221.10   227.74   234.51   237.56
eigval :      245.67   256.00   260.13   266.77   272.90   278.95
eigval :      315.21   337.06   346.13   361.10   369.86   370.52
eigval :      371.07   372.68   376.82   377.83   379.17   381.36
eigval :      391.72   394.32   401.40   406.33   423.11   428.79
eigval :      442.51   452.97   464.05   471.85   481.21   488.63
eigval :      491.54   498.83   505.48   518.64   523.03   529.09
eigval :      535.11   545.82   549.36   561.00   585.41   585.47
eigval :      586.64   589.19   597.86   602.85   604.91   621.94
eigval :      631.92   640.02   643.62   651.32   653.07   656.56
eigval :      662.59   666.72   673.38   675.77   678.36   683.12
eigval :      685.70   691.60   695.41   706.13   711.54   717.09
eigval :      735.08   738.77   760.40   762.62   764.56   766.06
eigval :      766.66   782.87   786.02   804.74   810.62   828.61
eigval :      834.55   862.87   869.88   871.97   874.61   875.61
eigval :      876.39   878.06   878.54   899.56   901.98   902.87
eigval :      908.07   914.44   915.36   916.98   923.62   924.40
eigval :      926.41   927.28   927.88   927.94   929.70   930.02
eigval :      931.53   931.71   932.24   932.49   938.69   942.82
eigval :      944.79   956.98   973.84   980.97   996.13  1011.97
eigval :     1018.25  1026.95  1030.29  1034.50  1067.14  1069.16
eigval :     1073.23  1079.70  1081.16  1081.99  1083.88  1085.74
eigval :     1108.69  1110.67  1117.69  1119.15  1121.65  1131.38
eigval :     1137.06  1138.64  1145.06  1151.54  1165.11  1171.40
eigval :     1180.48  1181.82  1181.94  1182.74  1185.77  1188.64
eigval :     1191.28  1195.91  1197.62  1201.55  1205.41  1209.09
eigval :     1217.79  1248.19  1255.73  1260.27  1264.42  1267.20
eigval :     1272.34  1273.99  1277.11  1282.72  1283.64  1284.22
eigval :     1291.47  1311.50  1315.44  1316.90  1318.91  1319.96
eigval :     1320.71  1322.41  1326.84  1335.41  1339.08  1347.16
eigval :     1366.34  1375.38  1392.71  1399.93  1407.47  1407.91
eigval :     1412.08  1419.66  1429.89  1430.28  1435.22  1435.86
eigval :     1437.25  1450.69  1459.98  1477.12  1484.09  1489.54
eigval :     1492.93  1513.61  1516.34  1534.06  1544.23  1555.90
eigval :     1558.01  1562.31  1565.88  1571.16  1573.01  1578.68
eigval :     1582.07  1584.73  1588.55  1591.57  1594.56  1595.66
eigval :     1597.74  1600.09  1602.08  1604.94  3068.76  3072.76
eigval :     3073.55  3074.29  3076.38  3078.28  3079.35  3080.32
eigval :     3082.46  3082.64  3082.99  3084.27  3084.52  3084.86
eigval :     3085.67  3088.37  3089.30  3091.24  3091.66  3092.69
eigval :     3093.98  3095.11  3096.40  3096.84  3098.98  3100.63
eigval :     3102.15  3103.42  3105.66  3105.99  3107.21  3107.38
eigval :     3110.41  3111.22  3112.85

   temp. (K)  partition function   enthalpy   heat capacity  entropy
                                   cal/mol     cal/K/mol   cal/K/mol   J/K/mol
 298.15  VIB  0.233E+26            29529.703    179.986    188.296
         ROT  0.274E+09              888.752      2.981     41.591
         INT  0.638E+34            30418.455    182.967    229.887
         TR   0.223E+29             1481.254      4.968     45.928
         TOT                       31899.7091   187.9354   275.8152  1154.0107

       T/K    H(0)-H(T)+PV         H(T)/Eh          T*S/Eh         G(T)/Eh
   ------------------------------------------------------------------------
    298.15    0.508354E-01    0.778296E+00    0.131049E+00    0.647247E+00
   ------------------------------------------------------------------------

         :::::::::::::::::::::::::::::::::::::::::::::::::::::
         ::                  THERMODYNAMIC                  ::
         :::::::::::::::::::::::::::::::::::::::::::::::::::::
         :: total free energy        -160.951872053223 Eh   ::
         ::.................................................::
         :: total energy             -161.599119030227 Eh   ::
         :: zero point energy           0.727460245093 Eh   ::
         :: G(RRHO) w/o ZPVE           -0.080213268089 Eh   ::
         :: G(RRHO) contrib.            0.647246977004 Eh   ::
         :::::::::::::::::::::::::::::::::::::::::::::::::::::

           -------------------------------------------------
          | TOTAL ENERGY             -161.599119030227 Eh   |
          | TOTAL ENTHALPY           -160.820823362931 Eh   |
          | TOTAL FREE ENERGY        -160.951872053223 Eh   |
          | GRADIENT NORM               0.000026691093 Eh/α |
          | HOMO-LUMO GAP               2.132065033572 eV   |
           -------------------------------------------------

 * finished run on 2025/08/26 at 03:23:02.080
