   * xtb version 6.7.1 (edcfbbe) compiled by 'albert@albert-system' on 2024-07-22

   ID    Z sym.   atoms
    1    9 F      1, 3, 4
    2    6 C      2, 5-8, 10-19, 21-34, 36-45, 47-62
    3    7 N      9, 20, 35, 46
    4    1 H      63-97

          program call               : xtb data2507/gas/PPI-PIM-1/PPI-PIM-1.xyz --gfn 2 --ohess vtight --parallel 40 --molden --ceasefiles --namespace data2507/gas/PPI-PIM-1/PPI-PIM-1_gas_S0_preOpt
          :  Hamiltonian                  GFN2-xTB          :
 * total energy  :  -161.5715016 Eh     change       -0.3276114E-08 Eh
 * total energy  :  -161.5858357 Eh     change       -0.1433410E-01 Eh
 * total energy  :  -161.5899134 Eh     change       -0.4077741E-02 Eh
 * total energy  :  -161.5913270 Eh     change       -0.1413573E-02 Eh
 * total energy  :  -161.5923099 Eh     change       -0.9828985E-03 Eh
 * total energy  :  -161.5928492 Eh     change       -0.5393595E-03 Eh
 * total energy  :  -161.5932509 Eh     change       -0.4016922E-03 Eh
 * total energy  :  -161.5936408 Eh     change       -0.3898578E-03 Eh
 * total energy  :  -161.5939808 Eh     change       -0.3400167E-03 Eh
 * total energy  :  -161.5943249 Eh     change       -0.3441255E-03 Eh
 * total energy  :  -161.5989357 Eh     change       -0.7580143E-06 Eh
 * total energy  :  -161.5989366 Eh     change       -0.9341247E-06 Eh
 * total energy  :  -161.5989374 Eh     change       -0.8486236E-06 Eh
 * total energy  :  -161.5989382 Eh     change       -0.7510053E-06 Eh
 * total energy  :  -161.5989388 Eh     change       -0.5719698E-06 Eh
 * total energy  :  -161.5989393 Eh     change       -0.5691247E-06 Eh
 * total energy  :  -161.5989398 Eh     change       -0.4934220E-06 Eh
 * total energy  :  -161.5989402 Eh     change       -0.3350620E-06 Eh
 * total energy  :  -161.5989402 Eh     change       -0.4148461E-08 Eh
   *** GEOMETRY OPTIMIZATION CONVERGED AFTER 300 ITERATIONS ***

 final structure:
================
97
 xtb: 6.7.1 (edcfbbe)
F           -3.38806795279755       -4.39810254032045       -3.79675590773371
C           -4.45064612616658       -4.67885334756189       -3.01504138647938
F           -5.42316622497864       -5.08745945888919       -3.84696613237558
F           -4.10437387723940       -5.74371110212484       -2.27984735942936
C           -4.86273349202093       -3.49617049881295       -2.18664650725528
C           -4.47932487213026       -3.40208726755688       -0.85551541888666
C           -4.84259468935155       -2.29237274349849       -0.11734219854761
C           -5.58332628164525       -1.27394671125524       -0.71086573401222
N           -5.90853681613255       -0.13007671194527        0.03029164623091
C           -4.98731863644788        0.72651048837839        0.60666810050865
C           -3.54518496544782        0.56227062797723        0.53539985069756
C           -2.88990904275871        0.08457011727451       -0.59848867683531
C           -1.51572526393751       -0.04031131000011       -0.60856249459904
C           -0.75433066402122        0.30652045721135        0.50605509178204
C            0.70576459131800        0.15698192367368        0.49653483452888
C            1.37915276753635       -0.32476804932583        1.61923489710836
C            2.74986147520957       -0.46462480115617        1.61262014119087
C            3.49462945878586       -0.11190067063409        0.48612901978929
C            4.93423690822366       -0.29279999011206        0.52929591215930
N            5.51957065783367       -1.24785143653967        1.20862704496697
C            6.85641688528952       -1.14423219070986        0.97883294040923
C            7.79207588218118       -2.05209902794316        1.62521277282125
C            7.34536216675499       -3.31429918015035        2.01412573760782
C            8.20456579016632       -4.20113995769585        2.63272858049005
C            9.51982590388094       -3.84046547160875        2.87692990776823
C            9.96607895024323       -2.58139312632928        2.51016484399168
C            9.11058391196180       -1.68891366889907        1.89219888853188
C            7.09316310810782       -0.08342579003362        0.11900923514044
C            8.32771265768423        0.43783741088975       -0.45256270284448
C            9.22887871950034       -0.43206133048992       -1.06580342542193
C           10.39775057406541        0.05166132646722       -1.62044810614794
C           10.68291249198746        1.40708654152348       -1.57470356974930
C            9.79540177943214        2.27651928589522       -0.96353401716695
C            8.62470974006011        1.79861490425598       -0.40481268496798
N            5.85632457776862        0.45950880695653       -0.15361670729984
C            5.62001354044865        1.59759870377276       -0.94466862955139
C            4.90212639579701        2.66649913601887       -0.41813227012385
C            4.67777043878701        3.78860400113389       -1.19333980129060
C            5.17408111573242        3.85475201210185       -2.48510913737908
C            5.89247219829707        2.79139400772859       -3.00566923691754
C            6.11598354380955        1.66043906190692       -2.24204157363374
C            2.82402917105044        0.35066935592998       -0.64537521369481
C            1.45052766488726        0.48172007291685       -0.63578266459025
C           -1.41261225926701        0.80800469286090        1.62908565039362
C           -2.78409388348222        0.94134875999605        1.64208622237197
N           -5.56574672797105        1.72795254571596        1.21391508971602
C           -6.90333149751219        1.55505360716480        1.04421432295164
C           -7.95402109879368        2.40679863632189        1.48516748904961
C           -7.68375745655128        3.58924365231506        2.18178524342885
C           -8.70960320492077        4.41594268355508        2.56586600362307
C          -10.02221461626957        4.06908997589306        2.25148180142161
C          -10.29934049731639        2.90574235152549        1.57242527617233
C           -9.27941696902954        2.02882634138895        1.17176623129135
C           -9.54036778694197        0.77319485471367        0.48960556456792
C          -10.84757038736248        0.33097248985925        0.24095688049700
C          -11.10787167866550       -0.87946801115110       -0.35617009969527
C          -10.05926623964767       -1.72025875346890       -0.71503957447611
C           -8.76373489475475       -1.32073120946806       -0.49849115963288
C           -8.47519710977841       -0.07411723870645        0.07568100507265
C           -7.15281336365299        0.39459082791560        0.31570541822876
C           -5.96071255285252       -1.37168631538120       -2.04980361493787
C           -5.60202459600901       -2.48220159504437       -2.78617085456605
H           -3.90658787013029       -4.19479378778244       -0.40029659786559
H           -4.55170684916362       -2.20584191349171        0.91805374010486
H           -3.44837344884542       -0.16908759073684       -1.48729408602710
H           -1.02577115799363       -0.42885416653537       -1.48909641044988
H            0.81570199661433       -0.61169206424366        2.49498484552414
H            3.27292570277916       -0.84995556696199        2.47385283545348
H            6.31715150345553       -3.57834690545263        1.82078239607960
H            7.84957114435505       -5.17864055095667        2.92619594172584
H           10.19335280281304       -4.53482590368818        3.35789070271481
H           10.98714650800713       -2.29046386476096        2.71171285029331
H            9.46200005376340       -0.70272878384325        1.62725877723430
H            9.00151074893101       -1.48750873972367       -1.10170643944058
H           11.08816144862450       -0.63062017368344       -2.09419722899548
H           11.59594611312965        1.78363148804975       -2.01138758313224
H           10.01616564847086        3.33298943888343       -0.91859012127090
H            7.94388067430528        2.48096587356351        0.08388634693636
H            4.52441115061595        2.60818201126783        0.59205989149765
H            4.11869933807745        4.61654196502596       -0.78414557751184
H            5.00093445348794        4.73496784703918       -3.08544246471410
H            6.27941972573557        2.83923721231429       -4.01236954999972
H            6.66946069365683        0.82519169005812       -2.64444824732762
H            3.37213359941803        0.59226234723023       -1.54395113151048
H            0.94790724046724        0.85822720520576       -1.51466478509492
H           -0.83688528736854        1.11368027598024        2.49014449869803
H           -3.29354112800273        1.33970605923216        2.50561780426181
H           -6.65269370364416        3.82492614515780        2.39456301818797
H           -8.50661573690996        5.33086711905546        3.10239495651982
H          -10.83247881395347        4.72095617805715        2.54452891515241
H          -11.33019340588123        2.68132249386372        1.34919272263101
H          -11.68475171783713        0.94454700964590        0.53143189278304
H          -12.12845238361031       -1.18547607784181       -0.53187170839401
H          -10.26141013839170       -2.68449942861219       -1.15693600615068
H           -7.95662931770675       -1.98802688763970       -0.75660016505659
H           -6.53255110290002       -0.57520088197392       -2.50157952757587
H           -5.89088182525175       -2.56663022593023       -3.82246928885094

          :  Hamiltonian                  GFN2-xTB          :
         :: gradient norm              0.000044124890 Eh/a0 ::
         :: HOMO-LUMO gap              2.137269161957 eV    ::
         :: SCC energy              -164.377184959142 Eh    ::
         :: -> dispersion             -0.140250421159 Eh    ::
         :: repulsion energy           2.778244801106 Eh    ::

    * Orbital Energies and Occupations

         #    Occupation            Energy/Eh            Energy/eV
      -------------------------------------------------------------
         1        2.0000           -0.8811309             -23.9768
       ...           ...                  ...                  ...
       136        2.0000           -0.4123239             -11.2199
       137        2.0000           -0.4108731             -11.1804
       138        2.0000           -0.4096304             -11.1466
       139        2.0000           -0.4073589             -11.0848
       140        2.0000           -0.4043304             -11.0024
       141        2.0000           -0.3990717             -10.8593
       142        2.0000           -0.3947212             -10.7409
       143        2.0000           -0.3908214             -10.6348
       144        2.0000           -0.3867208             -10.5232
       145        2.0000           -0.3844764             -10.4621
       146        2.0000           -0.3743645             -10.1870
       147        2.0000           -0.3699720             -10.0675
       148        2.0000           -0.3599300              -9.7942 (HOMO)
       149                         -0.2813868              -7.6569 (LUMO)
       150                         -0.2695785              -7.3356
       151                         -0.2680816              -7.2949
       152                         -0.2554639              -6.9515
       153                         -0.2527223              -6.8769
       154                         -0.2481049              -6.7513
       155                         -0.2418541              -6.5812
       156                         -0.2402590              -6.5378
       157                         -0.2343433              -6.3768
       158                         -0.2323738              -6.3232
       159                         -0.2274944              -6.1904
       ...                                ...                  ...
       283                          0.7222720              19.6540
      -------------------------------------------------------------
                  HL-Gap            0.0785432 Eh            2.1373 eV

     #   Z          covCN         q      C6AA      α(0)
     1   9 F        0.791    -0.210    11.339     3.978
     2   6 C        3.336     0.486    17.279     6.582
     3   9 F        0.791    -0.207    11.303     3.971
     4   9 F        0.791    -0.204    11.276     3.967
     5   6 C        2.977    -0.027    28.660     8.781
     6   6 C        2.920    -0.020    28.517     8.757
     7   6 C        2.923    -0.034    28.838     8.806
     8   6 C        2.912     0.081    26.197     8.393
     9   7 N        2.841    -0.045    22.105     6.983
    10   6 C        3.184     0.128    24.797     8.127
    11   6 C        2.974    -0.001    28.056     8.688
    12   6 C        2.920    -0.036    28.888     8.814
    13   6 C        2.924    -0.034    28.848     8.808
    14   6 C        2.976     0.013    27.713     8.635
    15   6 C        2.977     0.009    27.806     8.650
    16   6 C        2.923    -0.033    28.811     8.802
    17   6 C        2.926    -0.029    28.729     8.790
    18   6 C        2.974     0.002    27.968     8.675
    19   6 C        3.159     0.120    25.078     8.187
    20   7 N        1.914    -0.290    28.351     7.895
    21   6 C        3.165     0.052    26.495     8.412
    22   6 C        2.974     0.010    27.782     8.646
    23   6 C        2.927    -0.030    28.749     8.793
    24   6 C        2.918    -0.030    28.743     8.792
    25   6 C        2.920    -0.032    28.802     8.801
    26   6 C        2.919    -0.030    28.758     8.794
    27   6 C        2.923    -0.037    28.922     8.819
    28   6 C        3.070     0.014    27.631     8.619
    29   6 C        2.972     0.009    27.815     8.651
    30   6 C        2.925    -0.032    28.803     8.801
    31   6 C        2.919    -0.028    28.704     8.786
    32   6 C        2.920    -0.031    28.768     8.796
    33   6 C        2.919    -0.029    28.732     8.790
    34   6 C        2.924    -0.034    28.841     8.807
    35   7 N        2.851    -0.037    21.956     6.959
    36   6 C        2.914     0.067    26.490     8.440
    37   6 C        2.922    -0.038    28.949     8.823
    38   6 C        2.920    -0.026    28.661     8.779
    39   6 C        2.920    -0.030    28.757     8.794
    40   6 C        2.920    -0.027    28.666     8.780
    41   6 C        2.922    -0.038    28.940     8.822
    42   6 C        2.920    -0.035    28.865     8.810
    43   6 C        2.924    -0.034    28.839     8.807
    44   6 C        2.923    -0.032    28.804     8.801
    45   6 C        2.926    -0.028    28.699     8.785
    46   7 N        1.895    -0.283    28.186     7.871
    47   6 C        3.205     0.058    26.122     8.324
    48   6 C        2.986     0.003    27.943     8.671
    49   6 C        2.922    -0.031    28.763     8.795
    50   6 C        2.917    -0.029    28.733     8.790
    51   6 C        2.918    -0.032    28.792     8.799
    52   6 C        2.922    -0.034    28.854     8.809
    53   6 C        2.979    -0.001    28.039     8.686
    54   6 C        2.980     0.003    27.952     8.672
    55   6 C        2.922    -0.033    28.822     8.804
    56   6 C        2.916    -0.032    28.801     8.800
    57   6 C        2.917    -0.031    28.772     8.796
    58   6 C        2.919    -0.041    29.012     8.833
    59   6 C        2.978    -0.002    28.078     8.692
    60   6 C        3.067     0.019    27.520     8.602
    61   6 C        2.922    -0.032    28.809     8.802
    62   6 C        2.921    -0.021    28.533     8.760
    63   1 H        0.926     0.067     2.114     2.274
    64   1 H        0.926     0.059     2.209     2.324
    65   1 H        0.926     0.023     2.681     2.560
    66   1 H        0.926     0.037     2.491     2.468
    67   1 H        0.926     0.037     2.484     2.465
    68   1 H        0.926     0.054     2.266     2.354
    69   1 H        0.926     0.049     2.331     2.387
    70   1 H        0.926     0.029     2.600     2.521
    71   1 H        0.926     0.027     2.629     2.535
    72   1 H        0.926     0.026     2.642     2.542
    73   1 H        0.926     0.025     2.658     2.549
    74   1 H        0.926     0.034     2.533     2.489
    75   1 H        0.926     0.033     2.549     2.497
    76   1 H        0.926     0.031     2.569     2.507
    77   1 H        0.926     0.030     2.590     2.517
    78   1 H        0.926     0.024     2.668     2.554
    79   1 H        0.926     0.039     2.457     2.451
    80   1 H        0.926     0.040     2.447     2.446
    81   1 H        0.926     0.039     2.459     2.452
    82   1 H        0.926     0.040     2.453     2.449
    83   1 H        0.926     0.040     2.444     2.445
    84   1 H        0.926     0.028     2.621     2.532
    85   1 H        0.926     0.033     2.540     2.492
    86   1 H        0.926     0.041     2.437     2.441
    87   1 H        0.926     0.053     2.282     2.362
    88   1 H        0.926     0.052     2.298     2.371
    89   1 H        0.926     0.032     2.556     2.500
    90   1 H        0.926     0.030     2.584     2.514
    91   1 H        0.926     0.032     2.554     2.499
    92   1 H        0.926     0.037     2.493     2.469
    93   1 H        0.926     0.032     2.563     2.503
    94   1 H        0.926     0.030     2.585     2.514
    95   1 H        0.926     0.022     2.703     2.571
    96   1 H        0.926     0.062     2.176     2.307
    97   1 H        0.926     0.065     2.144     2.290

molecular dipole:
                 x           y           z       tot (Debye)
 q only:       -0.111       1.518       0.020
   full:       -0.094       1.461      -0.517       3.947

 projected vibrational frequencies (cm⁻¹)
eigval :       -0.00    -0.00    -0.00    -0.00    -0.00     0.00
eigval :        5.69     6.50    12.55    14.36    17.10    18.49
eigval :       25.46    27.29    31.77    34.67    41.48    46.48
eigval :       51.77    54.75    63.14    66.94    69.65    75.20
eigval :       84.22    90.54    92.80    97.93   114.14   120.38
eigval :      127.47   130.60   133.05   152.73   170.19   180.95
eigval :      186.56   219.84   222.54   226.51   232.60   239.78
eigval :      246.03   246.53   262.57   266.04   274.39   277.19
eigval :      312.40   335.90   350.12   359.15   370.96   371.16
eigval :      372.07   374.75   375.84   376.79   378.36   380.79
eigval :      386.43   394.03   401.81   408.30   425.73   430.36
eigval :      440.41   452.02   462.21   472.99   480.66   483.68
eigval :      495.19   496.45   513.28   518.47   523.20   528.06
eigval :      535.10   540.46   553.58   561.50   585.08   585.65
eigval :      586.66   589.29   597.82   601.37   606.48   622.91
eigval :      631.86   640.55   643.55   651.40   652.50   656.60
eigval :      662.31   666.06   673.30   676.37   677.46   682.23
eigval :      685.76   695.03   696.79   703.73   710.65   717.28
eigval :      735.06   738.56   760.42   762.56   764.23   765.98
eigval :      766.67   782.84   786.23   806.11   808.53   828.68
eigval :      835.05   862.81   869.49   871.99   874.81   875.68
eigval :      876.98   878.13   878.61   899.53   902.01   902.88
eigval :      907.98   914.45   915.39   916.77   923.00   924.21
eigval :      926.50   927.48   927.85   927.91   929.77   930.06
eigval :      931.55   931.62   932.00   932.28   938.67   942.87
eigval :      944.82   957.05   973.82   981.04   996.07  1011.94
eigval :     1018.32  1027.02  1030.16  1034.59  1064.27  1068.98
eigval :     1075.73  1079.61  1080.86  1082.00  1083.88  1085.76
eigval :     1108.66  1110.79  1117.80  1119.12  1121.65  1131.45
eigval :     1136.82  1138.53  1144.90  1151.51  1165.12  1171.36
eigval :     1180.49  1181.81  1181.93  1182.74  1185.72  1188.54
eigval :     1191.18  1195.84  1196.84  1201.53  1206.19  1208.85
eigval :     1218.01  1248.32  1255.76  1260.06  1264.59  1268.61
eigval :     1270.50  1273.73  1277.22  1282.72  1283.64  1284.17
eigval :     1291.08  1311.31  1315.46  1316.99  1318.30  1320.58
eigval :     1321.27  1321.94  1326.59  1334.88  1339.17  1347.00
eigval :     1366.28  1375.39  1392.75  1399.94  1407.50  1407.87
eigval :     1411.76  1419.58  1429.94  1430.33  1435.18  1435.91
eigval :     1437.23  1450.92  1460.19  1477.25  1484.35  1489.69
eigval :     1492.98  1513.76  1516.98  1535.07  1544.20  1556.65
eigval :     1558.33  1563.04  1565.88  1571.11  1573.15  1578.68
eigval :     1582.08  1584.84  1589.21  1591.69  1594.59  1595.72
eigval :     1597.76  1600.10  1602.27  1605.00  3068.69  3072.75
eigval :     3073.41  3074.34  3076.43  3077.66  3079.20  3081.16
eigval :     3081.38  3082.63  3082.91  3084.46  3084.91  3085.74
eigval :     3085.89  3088.33  3089.16  3091.11  3091.56  3091.76
eigval :     3093.29  3095.14  3096.22  3096.62  3098.93  3101.28
eigval :     3102.26  3103.32  3105.14  3106.07  3106.32  3106.56
eigval :     3110.72  3111.30  3112.93

   temp. (K)  partition function   enthalpy   heat capacity  entropy
                                   cal/mol     cal/K/mol   cal/K/mol   J/K/mol
 298.15  VIB  0.208E+26            29529.288    180.039    188.202
         ROT  0.270E+09              888.752      2.981     41.562
         INT  0.561E+34            30418.041    183.019    229.764
         TR   0.223E+29             1481.254      4.968     45.928
         TOT                       31899.2946   187.9876   275.6922  1153.4963

       T/K    H(0)-H(T)+PV         H(T)/Eh          T*S/Eh         G(T)/Eh
   ------------------------------------------------------------------------
    298.15    0.508348E-01    0.778290E+00    0.130990E+00    0.647300E+00
   ------------------------------------------------------------------------

         :::::::::::::::::::::::::::::::::::::::::::::::::::::
         ::                  THERMODYNAMIC                  ::
         :::::::::::::::::::::::::::::::::::::::::::::::::::::
         :: total free energy        -160.951640441718 Eh   ::
         ::.................................................::
         :: total energy             -161.598940158036 Eh   ::
         :: zero point energy           0.727455228646 Eh   ::
         :: G(RRHO) w/o ZPVE           -0.080155512328 Eh   ::
         :: G(RRHO) contrib.            0.647299716318 Eh   ::
         :::::::::::::::::::::::::::::::::::::::::::::::::::::

           -------------------------------------------------
          | TOTAL ENERGY             -161.598940158036 Eh   |
          | TOTAL ENTHALPY           -160.820650167709 Eh   |
          | TOTAL FREE ENERGY        -160.951640441718 Eh   |
          | GRADIENT NORM               0.000044134256 Eh/α |
          | HOMO-LUMO GAP               2.137269166380 eV   |
           -------------------------------------------------

 * finished run on 2025/08/26 at 03:16:45.083
