   * xtb version 6.7.1 (edcfbbe) compiled by 'albert@albert-system' on 2024-07-22

   ID    Z sym.   atoms
    1    9 F      1, 3, 4
    2    6 C      2, 5-8, 10-19, 21-34, 36-45, 47-62
    3    7 N      9, 20, 35, 46
    4    1 H      63-97

          program call               : xtb data2507/gas/PPI-PIM-1/PPI-PIM-1_gas_S0_finalOpt.xtbopt.xyz --gfn 2 --spinpol --tblite --uhf 2 --ohess vtight --parallel 40 --molden --ceasefiles --namespace data2507/gas/PPI-PIM-1/PPI-PIM-1_gas_T1_preOpt
 * total energy  :  -161.5082993 Eh     change        0.1004597E-07 Eh
 * total energy  :  -161.5137403 Eh     change       -0.5440962E-02 Eh
 * total energy  :  -161.5167250 Eh     change       -0.2984794E-02 Eh
 * total energy  :  -161.5175931 Eh     change       -0.8680960E-03 Eh
 * total energy  :  -161.5185642 Eh     change       -0.9710057E-03 Eh
 * total energy  :  -161.5190801 Eh     change       -0.5159955E-03 Eh
 * total energy  :  -161.5193780 Eh     change       -0.2978667E-03 Eh
 * total energy  :  -161.5195737 Eh     change       -0.1956407E-03 Eh
 * total energy  :  -161.5197307 Eh     change       -0.1570591E-03 Eh
 * total energy  :  -161.5198412 Eh     change       -0.1105142E-03 Eh
 * total energy  :  -161.5202495 Eh     change       -0.9141723E-06 Eh
 * total energy  :  -161.5202505 Eh     change       -0.9266467E-06 Eh
 * total energy  :  -161.5202522 Eh     change       -0.1780251E-05 Eh
 * total energy  :  -161.5202531 Eh     change       -0.8761108E-06 Eh
 * total energy  :  -161.5202540 Eh     change       -0.9085742E-06 Eh
 * total energy  :  -161.5202548 Eh     change       -0.7783895E-06 Eh
 * total energy  :  -161.5202556 Eh     change       -0.7711809E-06 Eh
 * total energy  :  -161.5202563 Eh     change       -0.7286064E-06 Eh
 * total energy  :  -161.5202563 Eh     change       -0.2786322E-08 Eh
   *** GEOMETRY OPTIMIZATION CONVERGED AFTER 68 ITERATIONS ***

 final structure:
================
97
 xtb: 6.7.1 (edcfbbe)
F           -4.57470148446232       -6.16105326931397       -0.47404070987888
C           -4.67847062057575       -5.48604656764717        0.68305599905732
F           -5.70184998021676       -6.06139421373512        1.35306147733524
F           -3.57239528308818       -5.76841978376998        1.38849698137593
C           -4.88921849197951       -4.01703811440865        0.48299250427905
C           -4.37621094469461       -3.10698331273715        1.40390261507166
C           -4.59640270379224       -1.75828974363448        1.22855989508016
C           -5.33972618603967       -1.30563466622074        0.13417037387145
N           -5.54321366110607        0.06348038757542       -0.04798297706102
C           -4.52873281161687        1.03240808510256       -0.14816261920784
C           -3.14074757234436        0.81424219743201       -0.22579823955454
C           -2.50932709047342       -0.42138340487514       -0.53549350083989
C           -1.15366769888804       -0.52987873284772       -0.56895671593331
C           -0.29273211184546        0.57286572392717       -0.30892801124366
C            1.12498970185128        0.43640782284379       -0.30283780687313
C            1.75820492533320       -0.82687886280950       -0.15270867648659
C            3.11489286058764       -0.94939177952544       -0.11634741949876
C            3.95927873649841        0.18044435542613       -0.21634353538777
C            5.36737032775503       -0.03121481420948       -0.16209290066592
N            5.92494517512000       -1.20730762299008       -0.40733528460861
C            7.25995116155578       -1.04542168609387       -0.34616266398480
C            8.15721840178077       -2.17121422760249       -0.54491946155067
C            7.72620566687203       -3.24116173929558       -1.33014683612806
C            8.54735965624837       -4.33142040735340       -1.53802577841051
C            9.80634525213332       -4.37440354423816       -0.96002503438599
C           10.23330426398622       -3.32547240058053       -0.16163359748229
C            9.41706851773924       -2.23072243598512        0.04985806397785
C            7.55714632620538        0.28909228122419       -0.04394480781726
C            8.83337829760245        0.96501030069640        0.10858701649397
C            9.83033482892288        0.78210813046973       -0.85242112937624
C           11.04613138012745        1.42407941426869       -0.72721077445928
C           11.28877623818277        2.25539597195454        0.35533735578694
C           10.30840142938138        2.43626045111623        1.31706651109343
C            9.08808131759209        1.79930152528132        1.19791422300494
N            6.34394061009265        0.91856673111621        0.08621195539490
C            6.17068820519948        2.25861519046034        0.47546588135132
C            5.41167454724868        2.55649112028206        1.60388395024507
C            5.26194655608975        3.87189541452908        1.99958931699984
C            5.87204205558969        4.88991670901310        1.28393117868880
C            6.63087053788866        4.59070612589793        0.16451305729255
C            6.78346395562968        3.27867106045765       -0.24436223913348
C            3.34607584241940        1.43518247992623       -0.41815225504170
C            1.98679147274600        1.55433462629007       -0.45496006997087
C           -0.93440951023482        1.82253194653012       -0.07050509604162
C           -2.28638856518172        1.93960531611200       -0.03649870171496
N           -5.05762606175020        2.25846967077588       -0.24279668761557
C           -6.38014480219640        2.10754198446597       -0.25070303569151
C           -7.36755992366089        3.12294301610174       -0.41123626314877
C           -6.99748487309059        4.45399006848564       -0.62013933692189
C           -7.95718090216811        5.41809178442987       -0.82205740889714
C           -9.29918556503722        5.05175592903108       -0.82470142537850
C           -9.67419092955730        3.74243600713814       -0.61178602355474
C           -8.72603706750481        2.73539805145637       -0.38694349496684
C           -9.08767057934104        1.35396767258363       -0.11107112241998
C          -10.42252530718985        0.96691191735317        0.03732276785248
C          -10.78245829563583       -0.32521746026320        0.35260617253597
C           -9.79995785780781       -1.28988406048151        0.55955158953449
C           -8.47774637149403       -0.95723964287140        0.41433968000377
C           -8.08517065554372        0.34747165897030        0.05454093955179
C           -6.73858571148336        0.74417055791425       -0.10682523025677
C           -5.85718604239472       -2.22605859084899       -0.78312636086801
C           -5.63364118768126       -3.57423462113507       -0.60870070185216
H           -3.80749121633216       -3.46065399996690        2.24965662466637
H           -4.19805377441006       -1.04223639092985        1.93048610407526
H           -3.10760164242493       -1.27678967013377       -0.80635552712335
H           -0.72203987148608       -1.47695610859343       -0.85361142429383
H            1.15321632446056       -1.71040177972541       -0.02329689881290
H            3.58315933233450       -1.91245366909179        0.01341583391362
H            6.74184830245281       -3.19269004892395       -1.76915808862125
H            8.20714936317296       -5.15228167130108       -2.15237944218942
H           10.45017596003488       -5.22598562326536       -1.12419403068819
H           11.20747135666328       -3.36325236010802        0.30408327118693
H            9.74935031110633       -1.42842142212291        0.69158357791190
H            9.63648721174449        0.13803195455436       -1.69759524423666
H           11.80782660234155        1.27863385295005       -1.47885164848943
H           12.23991990686369        2.75732521063849        0.45051449111157
H           10.49549820823061        3.07531403324367        2.16743081318034
H            8.33620337694564        1.93090404364545        1.96240458307542
H            4.94321327004057        1.75530246612440        2.15622220027108
H            4.67180008365132        4.10190518472738        2.87374727112431
H            5.75565969884085        5.91566169747130        1.59892692467897
H            7.10522099226341        5.38182061761048       -0.39624747918350
H            7.36902706168365        3.03886529966705       -1.11934060644537
H            3.95418113895966        2.31053966346973       -0.58930306360130
H            1.56188821124825        2.52583507636327       -0.65375523445471
H           -0.33212638834752        2.69449311079522        0.13140486756769
H           -2.75884381829486        2.88783130934164        0.16460516799293
H           -5.94481551873721        4.68971895246716       -0.62545949817265
H           -7.67588075673692        6.44768211361780       -0.98491237588793
H          -10.05899325908128        5.80071708272909       -0.99526413588545
H          -10.72659348651559        3.50797118007919       -0.62810223165843
H          -11.20798024066139        1.69543473849273       -0.08263919816086
H          -11.82532563431968       -0.58405263227169        0.45745977489055
H          -10.07620868130816       -2.29530137836247        0.83982913213640
H           -7.72448107500123       -1.70366936308986        0.60506423858218
H           -6.42543107475054       -1.86986127712800       -1.62900213864181
H           -6.02121149267983       -4.28771774191878       -1.31934370991679

 projected vibrational frequencies (cm⁻¹)
eigval :       -0.00    -0.00    -0.00    -0.00     0.00     0.00
eigval :        5.94     7.27    10.05    14.13    16.44    19.86
eigval :       23.73    31.07    31.82    38.06    40.93    45.89
eigval :       48.37    54.98    60.31    62.52    71.54    77.54
eigval :       83.35    89.12    96.55   105.74   113.12   121.96
eigval :      127.17   130.22   144.36   151.65   173.82   177.69
eigval :      187.56   204.54   222.85   226.45   234.05   238.66
eigval :      243.38   245.78   255.57   264.20   270.96   282.72
eigval :      300.76   326.38   342.63   355.41   365.78   367.18
eigval :      369.77   370.50   375.65   376.68   379.67   379.96
eigval :      384.53   393.83   397.17   398.68   412.52   421.62
eigval :      434.96   439.71   453.87   460.49   463.56   479.21
eigval :      484.88   490.98   495.53   504.98   512.45   520.14
eigval :      521.13   528.91   549.37   557.33   582.90   583.92
eigval :      585.14   587.74   589.51   597.20   599.56   618.90
eigval :      621.49   626.61   635.99   640.39   644.27   648.34
eigval :      656.59   659.08   663.13   668.03   673.37   675.65
eigval :      675.93   682.02   685.94   689.67   702.08   710.73
eigval :      730.83   732.47   753.03   757.71   758.78   760.34
eigval :      764.13   777.73   782.04   794.06   801.71   810.31
eigval :      817.06   820.15   828.88   855.32   865.15   870.69
eigval :      873.71   875.33   876.74   898.51   901.96   902.07
eigval :      903.83   905.79   909.87   911.58   912.69   914.18
eigval :      915.17   918.38   919.21   923.48   924.70   927.35
eigval :      929.11   929.81   930.68   930.92   931.45   932.26
eigval :      939.25   942.70   945.84   971.31   979.64   988.97
eigval :     1000.01  1009.56  1016.47  1021.16  1031.20  1059.03
eigval :     1062.98  1068.90  1078.74  1081.02  1083.19  1084.16
eigval :     1097.50  1101.36  1106.67  1117.12  1119.00  1122.07
eigval :     1132.89  1136.17  1139.70  1150.81  1154.03  1160.36
eigval :     1165.20  1179.66  1180.72  1180.93  1180.98  1184.94
eigval :     1185.99  1188.36  1194.47  1201.01  1206.51  1207.25
eigval :     1211.88  1235.68  1246.22  1251.80  1254.41  1261.09
eigval :     1264.02  1267.56  1276.03  1276.70  1278.13  1281.70
eigval :     1286.01  1295.22  1303.38  1306.93  1315.56  1317.55
eigval :     1323.00  1325.83  1327.88  1334.74  1336.62  1340.17
eigval :     1350.78  1366.34  1377.73  1393.63  1402.68  1406.41
eigval :     1408.84  1414.18  1423.74  1427.21  1431.63  1434.75
eigval :     1435.82  1438.40  1444.77  1445.88  1451.16  1464.62
eigval :     1475.80  1476.93  1481.23  1487.02  1489.73  1502.37
eigval :     1519.77  1523.17  1526.61  1545.16  1547.18  1558.87
eigval :     1570.42  1572.12  1577.10  1578.73  1581.10  1585.62
eigval :     1588.61  1590.03  1593.02  1595.16  3072.23  3074.92
eigval :     3076.06  3077.24  3078.51  3080.80  3083.43  3084.63
eigval :     3085.30  3085.49  3087.22  3087.33  3087.70  3090.07
eigval :     3090.52  3091.43  3092.16  3093.61  3094.25  3096.22
eigval :     3096.75  3096.89  3098.39  3098.45  3101.47  3102.86
eigval :     3104.88  3105.38  3106.65  3106.77  3108.14  3109.42
eigval :     3110.78  3111.32  3124.22

   temp. (K)  partition function   enthalpy   heat capacity  entropy
                                   cal/mol     cal/K/mol   cal/K/mol   J/K/mol
 298.15  VIB  0.259E+26            29811.070    182.057    189.583
         ROT  0.281E+09              888.752      2.981     41.644
         INT  0.728E+34            30699.823    185.038    231.226
         TR   0.223E+29             1481.254      4.968     45.928
         TOT                       32181.0766   190.0057   277.1547  1159.6155

       T/K    H(0)-H(T)+PV         H(T)/Eh          T*S/Eh         G(T)/Eh
   ------------------------------------------------------------------------
    298.15    0.512838E-01    0.774382E+00    0.131685E+00    0.642696E+00
   ------------------------------------------------------------------------

         :::::::::::::::::::::::::::::::::::::::::::::::::::::
         ::                  THERMODYNAMIC                  ::
         :::::::::::::::::::::::::::::::::::::::::::::::::::::
         :: total free energy        -160.877559800968 Eh   ::
         ::.................................................::
         :: total energy             -161.520256291270 Eh   ::
         :: zero point energy           0.723097843208 Eh   ::
         :: G(RRHO) w/o ZPVE           -0.080401352906 Eh   ::
         :: G(RRHO) contrib.            0.642696490302 Eh   ::
         :::::::::::::::::::::::::::::::::::::::::::::::::::::

           -------------------------------------------------
          | TOTAL ENERGY             -161.520256291270 Eh   |
          | TOTAL ENTHALPY           -160.745874638091 Eh   |
          | TOTAL FREE ENERGY        -160.877559800968 Eh   |
          | GRADIENT NORM               0.000043615659 Eh/α |
           -------------------------------------------------

 * finished run on 2025/08/26 at 03:23:22.734
