   * xtb version 6.7.1 (edcfbbe) compiled by 'albert@albert-system' on 2024-07-22

   ID    Z sym.   atoms
    1    7 N      1, 7, 17, 34
    2    6 C      2-6, 8-16, 18-33, 35-50
    3    1 H      51-78

          program call               : xtb data2507/toluene/CPBPMCN/CPBPMCN.xyz --gfn 2 --gbsa toluene --ohess vtight --parallel 40 --molden --ceasefiles --namespace data2507/toluene/CPBPMCN/CPBPMCN_toluene_S0_preOpt
      * Solvation model:               GBSA
        Solvent                        toluene
        Solvent mass                       9.2140E+01 g/mol
          :  Hamiltonian                  GFN2-xTB          :
 * total energy  :  -124.5526262 Eh     change       -0.1671253E-08 Eh
 * total energy  :  -124.5664710 Eh     change       -0.1384481E-01 Eh
 * total energy  :  -124.5697543 Eh     change       -0.3283317E-02 Eh
 * total energy  :  -124.5706577 Eh     change       -0.9034005E-03 Eh
 * total energy  :  -124.5713903 Eh     change       -0.7325297E-03 Eh
 * total energy  :  -124.5718005 Eh     change       -0.4102363E-03 Eh
 * total energy  :  -124.5721405 Eh     change       -0.3399543E-03 Eh
 * total energy  :  -124.5724553 Eh     change       -0.3148715E-03 Eh
 * total energy  :  -124.5727479 Eh     change       -0.2925327E-03 Eh
 * total energy  :  -124.5730330 Eh     change       -0.2851865E-03 Eh
 * total energy  :  -124.5743326 Eh     change       -0.2701669E-06 Eh
 * total energy  :  -124.5743330 Eh     change       -0.3353211E-06 Eh
 * total energy  :  -124.5743333 Eh     change       -0.3194109E-06 Eh
 * total energy  :  -124.5743335 Eh     change       -0.2554222E-06 Eh
 * total energy  :  -124.5743337 Eh     change       -0.2056226E-06 Eh
 * total energy  :  -124.5743339 Eh     change       -0.1880594E-06 Eh
 * total energy  :  -124.5743342 Eh     change       -0.2192326E-06 Eh
 * total energy  :  -124.5743344 Eh     change       -0.2729368E-06 Eh
 * total energy  :  -124.5743344 Eh     change       -0.1062546E-08 Eh
   *** GEOMETRY OPTIMIZATION CONVERGED AFTER 68 ITERATIONS ***

 final structure:
================
78
 xtb: 6.7.1 (edcfbbe)
N           -2.03432836357882        6.66441539990836       -1.15278444699776
C           -2.38611263841532        5.58620357350746       -0.97827449437684
C           -2.81941364185151        4.25861035335287       -0.76209819367486
C           -2.43704027347709        3.24828826796059       -1.64702386142766
C           -2.85987337869139        1.95226585158956       -1.43295068593407
C           -3.66718663983383        1.65581197580087       -0.33689296095182
N           -4.06301427868901        0.32826857694040       -0.10311465531460
C           -3.19843289575612       -0.72479582593324        0.12463829135083
C           -1.74790983364368       -0.61495716865176        0.13650125714858
C           -0.99690488461861       -1.65884509295568       -0.40520731977029
C            0.38070539606096       -1.60308857099284       -0.41011936325515
C            1.05346860100476       -0.50673960524553        0.12990459503142
C            2.52104117713955       -0.44270123163022        0.11735836164455
C            3.18072256384110        0.75507628151932       -0.15496271588972
C            4.55962678423165        0.81681463598261       -0.17543686546799
C            5.31471847897361       -0.32181464877960        0.09303900291442
N            6.71588273645270       -0.26218580893078        0.08083091556845
C            7.55380895295805       -1.10682473645553       -0.61984169087219
C            7.23897506475576       -2.14083561870415       -1.49063188291654
C            8.28232724007770       -2.82086220988131       -2.08942789161418
C            9.61070328220187       -2.48169178968768       -1.83894286492527
C            9.92964338031618       -1.43866033121814       -0.99211840641081
C            8.89800368409860       -0.73855836335677       -0.37918763177426
C            8.85893908935292        0.38343928141417        0.51712531063622
C            9.83952176879525        1.16188025236415        1.11920896882939
C            9.44957030598994        2.17745601932170        1.96966246209929
C            8.10156865268381        2.41304525831831        2.23375513077918
C            7.10790088030993        1.65309755533627        1.64659408561953
C            7.49273633662663        0.64574806743775        0.77267118526157
C            4.66522926921878       -1.52107293490464        0.37420835331538
C            3.28620494263671       -1.57883891552287        0.37786311991679
C            0.29960250928463        0.52260207115494        0.69179342400494
C           -1.07955390047301        0.47006290035676        0.70172156852734
N           -3.83655448426265       -1.84371508874210        0.35148987365101
C           -5.16214215217702       -1.54355692016121        0.28289458945820
C           -6.26582340450734       -2.41292653212288        0.51054251297778
C           -6.07456702598541       -3.75611163068653        0.85311336089595
C           -7.15200786949038       -4.56531861785234        1.11545282448188
C           -8.43919649332957       -4.03533308032392        1.04398422277005
C           -8.63950337138721       -2.71880546674410        0.69919124625253
C           -7.56480505386712       -1.86323247936883        0.40973910892152
C           -7.74472376266483       -0.48138640161475       -0.00249160861990
C           -9.02014702654238        0.06251392421975       -0.21451301576741
C           -9.19997644619988        1.35155717065553       -0.65822993222312
C           -8.09789648522978        2.15562669306422       -0.93261908467679
C           -6.83186373292830        1.66450066784492       -0.72832741083748
C           -6.62669814696270        0.36459010626783       -0.24331851564242
C           -5.33730100781835       -0.19399182819059       -0.01297638826533
C           -4.04744042323800        2.66444475440106        0.54900727701138
C           -3.62896083695084        3.96141475684023        0.33755054229023
H           -1.81443039631878        3.48655221433526       -2.49603428582266
H           -2.56951866096896        1.16322171133060       -2.10983598482487
H           -1.51631487543784       -2.50656187628920       -0.82534632012597
H            0.94457116528971       -2.40853487592724       -0.85639426667214
H            2.60675068971718        1.64118517340838       -0.38250065174695
H            5.06044505632638        1.74341961334666       -0.41397649747433
H            6.21278829590034       -2.40067726553260       -1.70292037843771
H            8.06351804832681       -3.63159288206400       -2.76927558995492
H           10.39857996402711       -3.03960898434246       -2.32371881131116
H           10.95901849963773       -1.16712152923481       -0.81068280876898
H           10.88483362648886        0.97062286726321        0.92695819525732
H           10.19686123733562        2.79504287703903        2.44629582614691
H            7.82768752147060        3.20539633803392        2.91536203861560
H            6.06705138320575        1.83284832440543        1.87001858920361
H            5.24829339305943       -2.40062303983788        0.60358717496195
H            2.79436972000926       -2.51000475713896        0.61667235904019
H            0.80050151909505        1.36193131758891        1.15113085283191
H           -1.63544137979411        1.26483100848514        1.17654640367643
H           -5.06134183497084       -4.12362737308736        0.91137164010187
H           -7.00762622437466       -5.60189481541594        1.38236001532154
H           -9.28978423580650       -4.66531856608171        1.26127442444527
H           -9.65283137281796       -2.35220415149124        0.66035075409115
H           -9.89542555372006       -0.54182339014676       -0.04019099577074
H          -10.19828693673650        1.73469427058314       -0.81030749194493
H           -8.23552933518459        3.15830887686196       -1.30962683107132
H           -5.98098967301878        2.28302591823164       -0.96523557053365
H           -4.67055478485817        2.42061787955967        1.39682756554624
H           -3.91871650031525        4.74701461923640        1.01894094146714

          :  Hamiltonian                  GFN2-xTB          :
         :: gradient norm              0.000027540696 Eh/a0 ::
         :: HOMO-LUMO gap              1.926363629632 eV    ::
         :: SCC energy              -126.953567446460 Eh    ::
         :: -> dispersion             -0.111451071614 Eh    ::
         :: -> Gsolv                  -0.055456309733 Eh    ::
         :: repulsion energy           2.379233017797 Eh    ::

    * Orbital Energies and Occupations

         #    Occupation            Energy/Eh            Energy/eV
      -------------------------------------------------------------
         1        2.0000           -0.6970091             -18.9666
       ...           ...                  ...                  ...
       104        2.0000           -0.4181762             -11.3792
       105        2.0000           -0.4173185             -11.3558
       106        2.0000           -0.4161066             -11.3228
       107        2.0000           -0.4141239             -11.2689
       108        2.0000           -0.4139383             -11.2638
       109        2.0000           -0.4057762             -11.0417
       110        2.0000           -0.4049297             -11.0187
       111        2.0000           -0.3976727             -10.8212
       112        2.0000           -0.3880846             -10.5603
       113        2.0000           -0.3863471             -10.5130
       114        2.0000           -0.3783486             -10.2954
       115        2.0000           -0.3711337             -10.0991
       116        2.0000           -0.3616101              -9.8399 (HOMO)
       117                         -0.2908175              -7.9135 (LUMO)
       118                         -0.2690666              -7.3217
       119                         -0.2595988              -7.0640
       120                         -0.2543357              -6.9208
       121                         -0.2525654              -6.8727
       122                         -0.2446355              -6.6569
       123                         -0.2328916              -6.3373
       124                         -0.2323969              -6.3238
       125                         -0.2304343              -6.2704
       126                         -0.2218926              -6.0380
       127                         -0.2217336              -6.0337
       ...                                ...                  ...
       228                          1.1515868              31.3363
      -------------------------------------------------------------
                  HL-Gap            0.0707926 Eh            1.9264 eV

     #   Z          covCN         q      C6AA      α(0)
     1   7 N        0.911    -0.257    26.678     7.470
     2   6 C        1.912     0.120    28.151     8.569
     3   6 C        2.973     0.019    27.571     8.613
     4   6 C        2.926    -0.014    28.372     8.735
     5   6 C        2.920    -0.034    28.840     8.807
     6   6 C        2.911     0.077    26.280     8.406
     7   7 N        2.840    -0.051    22.223     7.001
     8   6 C        3.185     0.134    24.662     8.104
     9   6 C        2.974    -0.004    28.120     8.698
    10   6 C        2.925    -0.028    28.704     8.786
    11   6 C        2.923    -0.032    28.799     8.801
    12   6 C        2.976     0.014    27.688     8.631
    13   6 C        2.976     0.008    27.835     8.654
    14   6 C        2.924    -0.033    28.815     8.803
    15   6 C        2.920    -0.043    29.056     8.839
    16   6 C        2.913     0.063    26.584     8.455
    17   7 N        2.802    -0.046    22.119     6.985
    18   6 C        3.075     0.047    26.863     8.498
    19   6 C        2.909    -0.052    29.290     8.874
    20   6 C        2.924    -0.035    28.874     8.812
    21   6 C        2.919    -0.043    29.062     8.840
    22   6 C        2.912    -0.035    28.868     8.810
    23   6 C        3.067    -0.019    28.405     8.739
    24   6 C        3.067    -0.019    28.405     8.739
    25   6 C        2.912    -0.035    28.869     8.810
    26   6 C        2.919    -0.043    29.061     8.840
    27   6 C        2.924    -0.035    28.874     8.812
    28   6 C        2.909    -0.052    29.290     8.874
    29   6 C        3.075     0.047    26.863     8.498
    30   6 C        2.920    -0.042    29.050     8.839
    31   6 C        2.924    -0.032    28.809     8.802
    32   6 C        2.924    -0.034    28.847     8.808
    33   6 C        2.920    -0.036    28.886     8.814
    34   7 N        1.894    -0.308    28.827     7.960
    35   6 C        3.203     0.060    26.091     8.321
    36   6 C        2.985    -0.002    28.069     8.691
    37   6 C        2.921    -0.033    28.816     8.803
    38   6 C        2.917    -0.031    28.768     8.795
    39   6 C        2.917    -0.033    28.822     8.804
    40   6 C        2.921    -0.036    28.891     8.814
    41   6 C        2.979    -0.004    28.107     8.696
    42   6 C        2.979     0.000    28.020     8.683
    43   6 C        2.922    -0.034    28.849     8.808
    44   6 C        2.916    -0.033    28.818     8.803
    45   6 C        2.917    -0.032    28.790     8.799
    46   6 C        2.919    -0.041    29.021     8.834
    47   6 C        2.978    -0.005    28.132     8.700
    48   6 C        3.069     0.020    27.496     8.598
    49   6 C        2.920    -0.032    28.805     8.801
    50   6 C        2.925    -0.016    28.403     8.740
    51   1 H        0.926     0.058     2.220     2.330
    52   1 H        0.926     0.054     2.272     2.357
    53   1 H        0.926     0.047     2.361     2.403
    54   1 H        0.926     0.046     2.373     2.409
    55   1 H        0.926     0.042     2.417     2.431
    56   1 H        0.926     0.043     2.406     2.426
    57   1 H        0.926     0.030     2.582     2.513
    58   1 H        0.926     0.030     2.587     2.515
    59   1 H        0.926     0.027     2.623     2.533
    60   1 H        0.926     0.030     2.591     2.517
    61   1 H        0.926     0.030     2.589     2.516
    62   1 H        0.926     0.027     2.623     2.533
    63   1 H        0.926     0.030     2.591     2.517
    64   1 H        0.926     0.030     2.588     2.516
    65   1 H        0.926     0.044     2.399     2.422
    66   1 H        0.926     0.045     2.390     2.417
    67   1 H        0.926     0.041     2.429     2.437
    68   1 H        0.926     0.028     2.622     2.532
    69   1 H        0.926     0.045     2.380     2.413
    70   1 H        0.926     0.034     2.526     2.485
    71   1 H        0.926     0.034     2.534     2.489
    72   1 H        0.926     0.036     2.497     2.471
    73   1 H        0.926     0.039     2.458     2.452
    74   1 H        0.926     0.035     2.522     2.484
    75   1 H        0.926     0.033     2.547     2.496
    76   1 H        0.926     0.027     2.633     2.537
    77   1 H        0.926     0.057     2.234     2.337
    78   1 H        0.926     0.058     2.221     2.331

molecular dipole:
                 x           y           z       tot (Debye)
 q only:       -0.547      -0.488       0.006
   full:       -0.863      -0.520       0.004       2.560

 projected vibrational frequencies (cm⁻¹)
eigval :       -0.00    -0.00    -0.00    -0.00     0.00     0.00
eigval :       11.13    11.64    14.02    19.18    28.85    33.13
eigval :       42.27    53.28    57.74    72.56    79.55    83.85
eigval :       86.57    93.95   103.36   107.51   120.48   121.43
eigval :      130.21   147.57   173.55   180.03   197.52   204.97
eigval :      207.22   238.59   248.08   258.91   265.85   272.40
eigval :      274.29   300.46   315.69   346.32   371.44   372.75
eigval :      378.17   383.92   393.16   395.63   399.36   406.54
eigval :      417.32   424.99   426.78   430.89   435.04   442.48
eigval :      466.13   473.72   496.59   515.12   518.64   523.08
eigval :      532.84   533.31   534.92   540.63   541.68   547.29
eigval :      577.80   582.62   585.53   596.65   600.48   612.46
eigval :      616.38   629.41   641.30   652.96   669.94   673.70
eigval :      674.74   681.14   684.12   687.54   697.27   708.68
eigval :      710.23   722.11   735.15   754.39   763.13   765.71
eigval :      770.53   781.31   782.01   784.35   808.41   811.41
eigval :      826.44   834.84   860.91   867.35   868.10   871.87
eigval :      873.15   873.79   881.48   897.63   903.79   904.03
eigval :      906.75   914.17   915.01   917.65   922.05   923.09
eigval :      923.38   924.73   926.06   926.24   928.14   928.86
eigval :      935.49   938.56   960.64   992.59  1009.09  1011.23
eigval :     1016.11  1029.78  1066.96  1068.74  1073.13  1078.65
eigval :     1084.99  1106.89  1116.71  1126.91  1131.73  1133.96
eigval :     1142.67  1150.75  1150.91  1170.63  1175.80  1178.69
eigval :     1180.44  1180.98  1182.38  1184.33  1196.86  1203.68
eigval :     1205.00  1229.22  1235.46  1243.03  1253.40  1255.80
eigval :     1257.79  1265.06  1270.97  1281.74  1284.68  1299.57
eigval :     1300.89  1306.22  1310.78  1313.52  1317.54  1325.22
eigval :     1337.05  1344.59  1355.64  1360.36  1366.62  1371.42
eigval :     1391.96  1397.92  1406.21  1410.65  1416.60  1427.25
eigval :     1428.01  1428.47  1433.60  1463.68  1474.26  1479.82
eigval :     1486.82  1498.44  1511.76  1514.97  1541.60  1548.84
eigval :     1554.22  1560.59  1564.76  1568.37  1573.32  1580.49
eigval :     1586.07  1587.94  1592.87  1596.97  1599.86  1603.25
eigval :     1612.84  2365.15  3070.16  3070.88  3071.25  3074.81
eigval :     3076.12  3077.08  3078.14  3080.54  3081.59  3082.15
eigval :     3084.29  3085.04  3085.13  3085.56  3089.45  3090.70
eigval :     3090.89  3091.76  3093.05  3093.56  3094.54  3097.89
eigval :     3098.44  3100.52  3100.59  3103.97  3110.28  3112.24

   temp. (K)  partition function   enthalpy   heat capacity  entropy
                                   cal/mol     cal/K/mol   cal/K/mol   J/K/mol
 298.15  VIB  0.277E+18            22406.622    143.120    139.306
         ROT  0.130E+09              888.752      2.981     40.106
         INT  0.359E+26            23295.374    146.101    179.412
         TR   0.155E+29             1481.254      4.968     45.216
         TOT                       24776.6279   151.0692   224.6273   939.8408

       T/K    H(0)-H(T)+PV         H(T)/Eh          T*S/Eh         G(T)/Eh
   ------------------------------------------------------------------------
    298.15    0.394841E-01    0.629155E+00    0.106728E+00    0.522427E+00
   ------------------------------------------------------------------------

         :::::::::::::::::::::::::::::::::::::::::::::::::::::
         ::                  THERMODYNAMIC                  ::
         :::::::::::::::::::::::::::::::::::::::::::::::::::::
         :: total free energy        -124.051907298037 Eh   ::
         ::.................................................::
         :: total energy             -124.574334426380 Eh   ::
         :: zero point energy           0.589670758498 Eh   ::
         :: G(RRHO) w/o ZPVE           -0.067243630155 Eh   ::
         :: G(RRHO) contrib.            0.522427128343 Eh   ::
         :::::::::::::::::::::::::::::::::::::::::::::::::::::

           -------------------------------------------------
          | TOTAL ENERGY             -124.574334426380 Eh   |
          | TOTAL ENTHALPY           -123.945179597994 Eh   |
          | TOTAL FREE ENERGY        -124.051907298037 Eh   |
          | GRADIENT NORM               0.000027541370 Eh/α |
          | HOMO-LUMO GAP               1.926363859127 eV   |
           -------------------------------------------------

 * finished run on 2025/09/09 at 04:56:58.729
