   * xtb version 6.7.1 (edcfbbe) compiled by 'albert@albert-system' on 2024-07-22

   ID    Z sym.   atoms
    1    7 N      1, 7, 17, 34
    2    6 C      2-6, 8-16, 18-33, 35-50
    3    1 H      51-78

          program call               : xtb data2507/toluene/CPBPMCN/CPBPMCN_toluene_S0_crest.xyz --gfn 2 --gbsa toluene --ohess vtight --parallel 40 --molden --ceasefiles --namespace data2507/toluene/CPBPMCN/CPBPMCN_toluene_S0_finalOpt
      * Solvation model:               GBSA
        Solvent                        toluene
        Solvent mass                       9.2140E+01 g/mol
          :  Hamiltonian                  GFN2-xTB          :
 * total energy  :  -124.5742220 Eh     change       -0.1331216E-08 Eh
 * total energy  :  -124.5742586 Eh     change       -0.3659490E-04 Eh
 * total energy  :  -124.5742763 Eh     change       -0.1772434E-04 Eh
 * total energy  :  -124.5742808 Eh     change       -0.4479410E-05 Eh
 * total energy  :  -124.5742899 Eh     change       -0.9148183E-05 Eh
 * total energy  :  -124.5742961 Eh     change       -0.6134601E-05 Eh
 * total energy  :  -124.5742991 Eh     change       -0.2973072E-05 Eh
 * total energy  :  -124.5743025 Eh     change       -0.3486992E-05 Eh
 * total energy  :  -124.5743042 Eh     change       -0.1687596E-05 Eh
 * total energy  :  -124.5743059 Eh     change       -0.1633010E-05 Eh
 * total energy  :  -124.5743394 Eh     change       -0.9073980E-06 Eh
 * total energy  :  -124.5743403 Eh     change       -0.9258838E-06 Eh
 * total energy  :  -124.5743413 Eh     change       -0.9671425E-06 Eh
 * total energy  :  -124.5743423 Eh     change       -0.1003428E-05 Eh
 * total energy  :  -124.5743433 Eh     change       -0.9576447E-06 Eh
 * total energy  :  -124.5743442 Eh     change       -0.9361383E-06 Eh
 * total energy  :  -124.5743450 Eh     change       -0.8403684E-06 Eh
 * total energy  :  -124.5743458 Eh     change       -0.7247172E-06 Eh
 * total energy  :  -124.5743458 Eh     change       -0.1701551E-08 Eh
   *** GEOMETRY OPTIMIZATION CONVERGED AFTER 44 ITERATIONS ***

 final structure:
================
78
 xtb: 6.7.1 (edcfbbe)
N           -1.97518369087522        6.66077956243758       -0.79775580499465
C           -2.31611692020441        5.57215244597264       -0.67361803424525
C           -2.73621625630786        4.23188084830650       -0.51801587648923
C           -2.35383471263678        3.26808714712297       -1.45337497803594
C           -2.76400628149389        1.95974439192944       -1.29746079874130
C           -3.55806373019750        1.60416803651344       -0.20927503801031
N           -3.94063818867040        0.26316392143936       -0.03597839258478
C           -3.06667746470039       -0.79163327639810        0.14310141392371
C           -1.61704211673749       -0.67669783447770        0.16082983528345
C           -0.86667217111671       -1.71204312456055       -0.39907113523981
C            0.51067680483504       -1.65767225170535       -0.40433022731283
C            1.18449545081945       -0.56932623462894        0.15033428048546
C            2.65211865323445       -0.50635445372091        0.13073148615593
C            3.31198878654293        0.68902168260525       -0.15052398208860
C            4.69085645617834        0.74618991185068       -0.18771263897273
C            5.44563343009473       -0.39383936490722        0.07615655657444
N            6.84657429080117       -0.34100861120721        0.04244406016380
C            7.66907523059759       -1.20144047272207       -0.65789554674433
C            7.33599453815225       -2.24747710605251       -1.50737699683879
C            8.36663855565053       -2.94323903201367       -2.11016447038526
C            9.70047093903760       -2.60793182708652       -1.88493163762839
C           10.03745509852420       -1.55244890459915       -1.06089237463659
C            9.01875701275906       -0.83670232698404       -0.44444366394023
C            8.99982473998522        0.30024711263891        0.43335594970672
C            9.99452657621977        1.08334263303459        1.00540556633565
C            9.62433359715735        2.11602128398259        1.84397778765563
C            8.28216029591604        2.36316591021156        2.12641732322678
C            7.27481904281564        1.59834919243501        1.56957736965841
C            7.63931559799258        0.57419765668973        0.70648463728737
C            4.79546256502497       -1.58941647346398        0.37176056530627
C            3.41645098950558       -1.64346734069641        0.38880714590733
C            0.43235862117496        0.45121889409993        0.72975186296927
C           -0.94699685604810        0.39801590749484        0.74366297966997
N           -3.69568221649836       -1.92652639008363        0.31036878482585
C           -5.02326385465344       -1.63638576803167        0.24809751967161
C           -6.11882593378882       -2.52942995316711        0.41532582467008
C           -5.91496041408327       -3.88723819810755        0.68535085244874
C           -6.98532748558925       -4.72300424473293        0.88598604302644
C           -8.27817026582607       -4.20572606577326        0.82405749010061
C           -8.49054376430707       -2.87446011359436        0.55049705453848
C           -7.42306446955092       -1.99058334510879        0.32679629459655
C           -7.61473541102916       -0.58918668306060       -0.00649463810582
C           -8.89469727955657       -0.04805181632236       -0.19703064817411
C           -9.08659652218362        1.26361306638185       -0.56224508327049
C           -7.99193943440225        2.09563115360385       -0.77610391577091
C           -6.72181949255089        1.60705151034930       -0.59199260518522
C           -6.50448547833205        0.28202188657702       -0.18656181061007
C           -5.21037216083448       -0.27512827403611        0.02027809074847
C           -3.93865968982100        2.56641672495294        0.72671719316201
C           -3.53291760254765        3.87558928443054        0.57340048911174
H           -1.74079890185038        3.55130167550455       -2.29547174513705
H           -2.47292032832128        1.20635459521960       -2.01353958610438
H           -1.38782178648258       -2.55193913659782       -0.83237855842598
H            1.07402082284247       -2.45664318961773       -0.86282428386776
H            2.73764795435394        1.57608723903549       -0.37357640161673
H            5.19135550265055        1.67009653570876       -0.43696812250535
H            6.30558205508734       -2.50491620429412       -1.70121393391634
H            8.13313774833563       -3.76351108543863       -2.77345416980028
H           10.47794009675577       -3.17863339187766       -2.37161157333304
H           11.07072070552376       -1.28313054723775       -0.89940316447588
H           11.03536901733727        0.88248474885535        0.79918417120788
H           10.38266605724350        2.73803025017519        2.29680810769119
H            8.02362753529312        3.16856262019063        2.79865153970253
H            6.23910170306919        1.78750011869056        1.80833952864102
H            5.37808866586588       -2.46940185716661        0.60041529090657
H            2.92383130216784       -2.57231653687979        0.63510692409354
H            0.93502832478770        1.28373538161210        1.19959340991206
H           -1.50061252850990        1.18463627608124        1.23421127080005
H           -4.89796874649287       -4.24509173381341        0.73765641347319
H           -6.83132843260239       -5.77100089239949        1.09706633677054
H           -9.12354780846162       -4.85734699382982        0.99230526864124
H           -9.50799735133277       -2.51906464467944        0.51606083234724
H           -9.76397727337140       -0.67195695362014       -0.06749003768332
H          -10.08820749748125        1.64383873724718       -0.69920854190129
H           -8.13839829939434        3.11863708441037       -1.08994611057433
H           -5.87699968553629        2.24941504861677       -0.78214870553658
H           -4.55251460699773        2.27820483194188        1.56727680059702
H           -3.82299904214657        4.62533985694706        1.29392490878645

          :  Hamiltonian                  GFN2-xTB          :
         :: gradient norm              0.000062884907 Eh/a0 ::
         :: HOMO-LUMO gap              1.922876019087 eV    ::
         :: SCC energy              -126.953478898726 Eh    ::
         :: -> dispersion             -0.111437840637 Eh    ::
         :: -> Gsolv                  -0.055429061403 Eh    ::
         :: repulsion energy           2.379133132115 Eh    ::

    * Orbital Energies and Occupations

         #    Occupation            Energy/Eh            Energy/eV
      -------------------------------------------------------------
         1        2.0000           -0.6968761             -18.9630
       ...           ...                  ...                  ...
       104        2.0000           -0.4181674             -11.3789
       105        2.0000           -0.4171730             -11.3519
       106        2.0000           -0.4159416             -11.3183
       107        2.0000           -0.4139989             -11.2655
       108        2.0000           -0.4138285             -11.2608
       109        2.0000           -0.4057893             -11.0421
       110        2.0000           -0.4049460             -11.0191
       111        2.0000           -0.3977734             -10.8240
       112        2.0000           -0.3879744             -10.5573
       113        2.0000           -0.3863183             -10.5123
       114        2.0000           -0.3783664             -10.2959
       115        2.0000           -0.3710171             -10.0959
       116        2.0000           -0.3615681              -9.8388 (HOMO)
       117                         -0.2909037              -7.9159 (LUMO)
       118                         -0.2692053              -7.3254
       119                         -0.2596943              -7.0666
       120                         -0.2543128              -6.9202
       121                         -0.2524052              -6.8683
       122                         -0.2446687              -6.6578
       123                         -0.2327301              -6.3329
       124                         -0.2323004              -6.3212
       125                         -0.2304714              -6.2714
       126                         -0.2219761              -6.0403
       127                         -0.2217670              -6.0346
       ...                                ...                  ...
       228                          1.1514751              31.3332
      -------------------------------------------------------------
                  HL-Gap            0.0706644 Eh            1.9229 eV

     #   Z          covCN         q      C6AA      α(0)
     1   7 N        0.911    -0.257    26.675     7.470
     2   6 C        1.912     0.120    28.151     8.569
     3   6 C        2.973     0.019    27.569     8.613
     4   6 C        2.926    -0.014    28.371     8.735
     5   6 C        2.920    -0.034    28.836     8.806
     6   6 C        2.911     0.077    26.278     8.406
     7   7 N        2.840    -0.051    22.226     7.002
     8   6 C        3.184     0.134    24.671     8.106
     9   6 C        2.974    -0.004    28.122     8.699
    10   6 C        2.926    -0.028    28.705     8.786
    11   6 C        2.923    -0.032    28.800     8.801
    12   6 C        2.976     0.014    27.688     8.631
    13   6 C        2.976     0.008    27.837     8.655
    14   6 C        2.924    -0.033    28.814     8.803
    15   6 C        2.920    -0.043    29.060     8.840
    16   6 C        2.912     0.063    26.585     8.455
    17   7 N        2.802    -0.045    22.115     6.985
    18   6 C        3.075     0.047    26.864     8.498
    19   6 C        2.910    -0.052    29.290     8.874
    20   6 C        2.924    -0.035    28.874     8.812
    21   6 C        2.919    -0.043    29.060     8.840
    22   6 C        2.912    -0.035    28.869     8.810
    23   6 C        3.067    -0.019    28.404     8.739
    24   6 C        3.067    -0.019    28.404     8.739
    25   6 C        2.912    -0.035    28.869     8.810
    26   6 C        2.919    -0.043    29.061     8.840
    27   6 C        2.924    -0.035    28.874     8.812
    28   6 C        2.910    -0.052    29.290     8.874
    29   6 C        3.075     0.047    26.864     8.498
    30   6 C        2.920    -0.042    29.054     8.839
    31   6 C        2.924    -0.032    28.809     8.802
    32   6 C        2.923    -0.034    28.847     8.808
    33   6 C        2.920    -0.036    28.892     8.815
    34   7 N        1.894    -0.308    28.828     7.960
    35   6 C        3.203     0.060    26.092     8.322
    36   6 C        2.985    -0.002    28.070     8.691
    37   6 C        2.921    -0.033    28.815     8.803
    38   6 C        2.917    -0.031    28.768     8.795
    39   6 C        2.917    -0.033    28.822     8.804
    40   6 C        2.921    -0.036    28.891     8.814
    41   6 C        2.979    -0.004    28.107     8.696
    42   6 C        2.979     0.000    28.020     8.683
    43   6 C        2.922    -0.034    28.849     8.808
    44   6 C        2.916    -0.033    28.818     8.803
    45   6 C        2.917    -0.032    28.791     8.799
    46   6 C        2.919    -0.041    29.024     8.835
    47   6 C        2.978    -0.005    28.132     8.700
    48   6 C        3.068     0.020    27.495     8.598
    49   6 C        2.920    -0.032    28.805     8.801
    50   6 C        2.925    -0.016    28.404     8.740
    51   1 H        0.926     0.058     2.219     2.329
    52   1 H        0.926     0.054     2.271     2.357
    53   1 H        0.926     0.047     2.352     2.398
    54   1 H        0.926     0.046     2.376     2.411
    55   1 H        0.926     0.042     2.419     2.432
    56   1 H        0.926     0.043     2.406     2.425
    57   1 H        0.926     0.031     2.579     2.511
    58   1 H        0.926     0.030     2.586     2.515
    59   1 H        0.926     0.027     2.622     2.532
    60   1 H        0.926     0.030     2.590     2.517
    61   1 H        0.926     0.030     2.589     2.516
    62   1 H        0.926     0.027     2.623     2.533
    63   1 H        0.926     0.030     2.590     2.517
    64   1 H        0.926     0.030     2.586     2.515
    65   1 H        0.926     0.044     2.399     2.422
    66   1 H        0.926     0.044     2.393     2.419
    67   1 H        0.926     0.041     2.433     2.439
    68   1 H        0.926     0.028     2.621     2.532
    69   1 H        0.926     0.045     2.380     2.413
    70   1 H        0.926     0.034     2.526     2.486
    71   1 H        0.926     0.034     2.534     2.490
    72   1 H        0.926     0.036     2.497     2.471
    73   1 H        0.926     0.039     2.458     2.452
    74   1 H        0.926     0.035     2.523     2.484
    75   1 H        0.926     0.033     2.547     2.496
    76   1 H        0.926     0.027     2.631     2.537
    77   1 H        0.926     0.057     2.232     2.336
    78   1 H        0.926     0.058     2.221     2.331

molecular dipole:
                 x           y           z       tot (Debye)
 q only:       -0.536      -0.488      -0.008
   full:       -0.852      -0.519      -0.010       2.536

 projected vibrational frequencies (cm⁻¹)
eigval :       -0.00    -0.00    -0.00     0.00     0.00     0.00
eigval :        9.66    12.30    15.85    18.35    28.57    31.40
eigval :       42.21    53.26    57.19    69.72    78.33    84.13
eigval :       86.71    93.97   103.83   108.21   120.57   122.31
eigval :      129.87   147.66   174.41   180.12   197.42   204.55
eigval :      206.06   239.11   247.84   258.85   265.41   273.42
eigval :      274.42   300.26   315.81   346.84   370.98   372.70
eigval :      377.75   384.02   392.77   395.53   398.84   406.97
eigval :      417.25   425.39   427.20   430.70   434.76   442.16
eigval :      465.43   474.54   497.27   515.19   518.67   522.92
eigval :      532.94   533.45   535.13   540.83   541.87   546.76
eigval :      577.80   582.53   585.27   596.51   600.77   612.68
eigval :      616.33   629.33   641.63   652.35   669.94   673.66
eigval :      674.91   680.27   683.80   687.46   697.18   709.14
eigval :      710.44   721.94   734.24   754.35   763.82   766.48
eigval :      770.50   782.16   782.71   784.40   808.08   811.38
eigval :      825.44   834.65   859.27   866.32   867.09   871.60
eigval :      873.42   874.00   882.26   897.52   902.95   904.35
eigval :      906.34   912.86   914.05   916.99   922.12   923.31
eigval :      924.41   926.13   927.08   928.41   929.62   929.79
eigval :      936.21   938.49   960.53   992.38  1009.10  1011.14
eigval :     1015.98  1029.76  1067.00  1068.09  1072.62  1079.14
eigval :     1084.87  1106.99  1116.52  1126.42  1132.45  1134.15
eigval :     1142.12  1150.36  1150.60  1170.34  1175.30  1179.53
eigval :     1179.78  1180.29  1182.06  1184.65  1196.85  1203.60
eigval :     1204.37  1228.56  1234.47  1242.81  1252.87  1255.66
eigval :     1257.38  1265.03  1270.36  1281.06  1284.87  1299.58
eigval :     1300.47  1305.93  1310.67  1313.49  1318.41  1325.49
eigval :     1336.69  1344.74  1355.62  1360.23  1366.37  1371.23
eigval :     1392.12  1397.73  1405.97  1410.48  1416.55  1426.86
eigval :     1427.66  1428.19  1433.13  1463.34  1474.13  1479.75
eigval :     1486.80  1498.17  1511.17  1514.45  1540.37  1548.43
eigval :     1554.27  1560.28  1564.60  1568.30  1573.37  1580.36
eigval :     1586.05  1587.89  1592.84  1596.85  1599.64  1603.24
eigval :     1612.83  2365.20  3070.13  3070.93  3071.26  3075.02
eigval :     3076.19  3077.06  3078.79  3080.79  3081.72  3082.04
eigval :     3084.28  3084.76  3085.06  3085.49  3089.72  3090.85
eigval :     3091.54  3092.16  3092.99  3093.13  3094.64  3097.05
eigval :     3099.18  3099.35  3100.75  3103.26  3110.81  3113.52

   temp. (K)  partition function   enthalpy   heat capacity  entropy
                                   cal/mol     cal/K/mol   cal/K/mol   J/K/mol
 298.15  VIB  0.308E+18            22412.750    143.059    139.372
         ROT  0.130E+09              888.752      2.981     40.113
         INT  0.401E+26            23301.502    146.040    179.485
         TR   0.155E+29             1481.254      4.968     45.216
         TOT                       24782.7563   151.0081   224.7008   940.1481

       T/K    H(0)-H(T)+PV         H(T)/Eh          T*S/Eh         G(T)/Eh
   ------------------------------------------------------------------------
    298.15    0.394938E-01    0.629129E+00    0.106763E+00    0.522366E+00
   ------------------------------------------------------------------------

         :::::::::::::::::::::::::::::::::::::::::::::::::::::
         ::                  THERMODYNAMIC                  ::
         :::::::::::::::::::::::::::::::::::::::::::::::::::::
         :: total free energy        -124.051979609398 Eh   ::
         ::.................................................::
         :: total energy             -124.574345762397 Eh   ::
         :: zero point energy           0.589634917674 Eh   ::
         :: G(RRHO) w/o ZPVE           -0.067268764676 Eh   ::
         :: G(RRHO) contrib.            0.522366152999 Eh   ::
         :::::::::::::::::::::::::::::::::::::::::::::::::::::

           -------------------------------------------------
          | TOTAL ENERGY             -124.574345762397 Eh   |
          | TOTAL ENTHALPY           -123.945217008739 Eh   |
          | TOTAL FREE ENERGY        -124.051979609398 Eh   |
          | GRADIENT NORM               0.000062930761 Eh/α |
          | HOMO-LUMO GAP               1.922875730967 eV   |
           -------------------------------------------------

 * finished run on 2025/09/09 at 05:00:30.220
