   * xtb version 6.7.1 (edcfbbe) compiled by 'albert@albert-system' on 2024-07-22

   ID    Z sym.   atoms
    1    7 N      1, 7, 17, 34
    2    6 C      2-6, 8-16, 18-33, 35-50
    3    1 H      51-78

          program call               : xtb data2507/toluene/CPBPMCN/CPBPMCN_toluene_T1_crest.xyz --gfn 2 --uhf 2 --gbsa toluene --ohess vtight --parallel 40 --molden --ceasefiles --namespace data2507/toluene/CPBPMCN/CPBPMCN_toluene_T1_finalOpt
      * Solvation model:               GBSA
        Solvent                        toluene
        Solvent mass                       9.2140E+01 g/mol
          :  Hamiltonian                  GFN2-xTB          :
 * total energy  :  -124.4929916 Eh     change       -0.1737874E-08 Eh
 * total energy  :  -124.4930342 Eh     change       -0.4261003E-04 Eh
 * total energy  :  -124.4929926 Eh     change        0.4157941E-04 Eh
 * total energy  :  -124.4930543 Eh     change       -0.6166552E-04 Eh
 * total energy  :  -124.4930571 Eh     change       -0.2875385E-05 Eh
 * total energy  :  -124.4930599 Eh     change       -0.2733489E-05 Eh
 * total energy  :  -124.4930614 Eh     change       -0.1522240E-05 Eh
 * total energy  :  -124.4930630 Eh     change       -0.1597420E-05 Eh
 * total energy  :  -124.4930638 Eh     change       -0.8009728E-06 Eh
 * total energy  :  -124.4930645 Eh     change       -0.7565047E-06 Eh
 * total energy  :  -124.4930669 Eh     change       -0.6398972E-06 Eh
 * total energy  :  -124.4930676 Eh     change       -0.6470952E-06 Eh
 * total energy  :  -124.4930682 Eh     change       -0.6160080E-06 Eh
 * total energy  :  -124.4930688 Eh     change       -0.5828285E-06 Eh
 * total energy  :  -124.4930694 Eh     change       -0.5926340E-06 Eh
 * total energy  :  -124.4930699 Eh     change       -0.5292129E-06 Eh
 * total energy  :  -124.4930704 Eh     change       -0.4721876E-06 Eh
 * total energy  :  -124.4930708 Eh     change       -0.3981507E-06 Eh
 * total energy  :  -124.4930708 Eh     change       -0.6284338E-08 Eh
   *** GEOMETRY OPTIMIZATION CONVERGED AFTER 22 ITERATIONS ***

 final structure:
================
78
 xtb: 6.7.1 (edcfbbe)
N           -2.52980443779403        6.88143000113670       -0.80522442538361
C           -2.77868187444964        5.76264404681833       -0.67937263028019
C           -3.08012082168734        4.40294835268896       -0.52521573479699
C           -2.59515739719144        3.46003549407152       -1.44791157338908
C           -2.88706135610872        2.12771301972720       -1.29233490732505
C           -3.68217876968394        1.69751612184986       -0.21887959290546
N           -3.96534445706888        0.34069798738032       -0.06200497834870
C           -3.00774474055616       -0.69286054850015       -0.01688616607008
C           -1.60830373981518       -0.56888300814164        0.04530057126318
C           -0.83100430967028       -1.74027167393265       -0.19063610097866
C            0.52895938469207       -1.71170190960568       -0.16121627884715
C            1.24209579640825       -0.51734408769322        0.11427825816610
C            2.67960535579127       -0.47362020942113        0.10823127840776
C            3.37629036827448        0.72794626533739       -0.13942706817515
C            4.74764307453374        0.77421032429923       -0.15418124284580
C            5.50037211227506       -0.38292956472200        0.07920480739590
N            6.89255089958933       -0.33870264045683        0.06192495107283
C            7.72202020097282       -1.22109550209569       -0.60547015770085
C            7.39616447448397       -2.28306585031050       -1.43877515694545
C            8.43345206308090       -2.99272537691166       -2.01608012458852
C            9.76396409373159       -2.65302822724603       -1.78409951355268
C           10.09410071625459       -1.57633940437697       -0.98039804670576
C            9.07023965582091       -0.85029378130719       -0.39035471451584
C            9.04377671023246        0.31305633453510        0.45691523957891
C           10.03367697295611        1.10458775224591        1.02004152931390
C            9.65582102381497        2.15931287968812        1.83181316523194
C            8.31263723794970        2.41307575678373        2.09830428824150
C            7.30870339899992        1.63634853965709        1.54913007632356
C            7.68051496750452        0.59626268694030        0.70750621714041
C            4.82816996002610       -1.58527838678024        0.32950120409134
C            3.45666469524654       -1.62728198986075        0.34321009807833
C            0.46750764987059        0.62988932350167        0.41215804587412
C           -0.89578551365074        0.61262421963246        0.38770927436184
N           -3.60982788151184       -1.89302945765218        0.06086760780098
C           -4.91492050858842       -1.66211637885142        0.12875146667261
C           -5.95606818507286       -2.61932396984912        0.30947915540924
C           -5.66073476269223       -3.97399631572114        0.48628037422674
C           -6.66986141601692       -4.88347138650931        0.71088140865211
C           -7.98507541512704       -4.43689094583685        0.76957599077711
C           -8.28736834843189       -3.10204290692639        0.58796909158789
C           -7.28941038378605       -2.15108959086540        0.34048598691103
C           -7.57715856660205       -0.74592937049311        0.09024104519376
C           -8.88958870850319       -0.28038039599425       -0.01348574814004
C           -9.18394141758076        1.03474805807773       -0.31016566224756
C           -8.15299332665192        1.94136363206160       -0.54593480067679
C           -6.84881401103326        1.53141121246125       -0.44233003109953
C           -6.51976249166403        0.20282655240330       -0.09605072546743
C           -5.19616474272739       -0.26883210731393        0.02465946765054
C           -4.16818376823244        2.63828248056665        0.70217117227270
C           -3.86943069647576        3.97032443757908        0.55526844088743
H           -1.99638141145098        3.79500296189459       -2.28193331421385
H           -2.51565148975168        1.39999207333757       -1.99830489702867
H           -1.36398280452211       -2.64888779856477       -0.42219548685446
H            1.07557370426321       -2.61164035710502       -0.39730227005159
H            2.82275745015921        1.62471206135892       -0.37046327194163
H            5.25655888019936        1.69757738134891       -0.38786786324773
H            6.36866930837477       -2.54078491728203       -1.64402145089839
H            8.20566107139354       -3.82494737792951       -2.66550169112852
H           10.54658997785255       -3.23281614844278       -2.25050175914872
H           11.12526855951702       -1.30086975931877       -0.81935837368949
H           11.07594038080849        0.89599456492995        0.83218310671108
H           10.41122856516668        2.78953383360779        2.27716225075548
H            8.04827500400511        3.23058995158590        2.75261153171080
H            6.27255991765522        1.82776686649702        1.78157745634084
H            5.40028493117467       -2.47368424385711        0.55198037432584
H            2.96707456382894       -2.55720058205774        0.58585506364607
H            0.96602900183394        1.53793755701648        0.71668985941705
H           -1.43579384841599        1.49600978091392        0.68802757431860
H           -4.62478653128430       -4.27392119029813        0.44944428240862
H           -6.44370913873079       -5.93019384412671        0.84793685013252
H           -8.78307777198555       -5.14019061654617        0.95857688430996
H           -9.32191265596629       -2.80467326550831        0.64692917922960
H           -9.71239263621130       -0.96247813424669        0.12581975708237
H          -10.21274350197417        1.35460238493893       -0.37901913740382
H           -8.37757192795238        2.96270296065408       -0.81586536135242
H           -6.05816299664393        2.23170293049835       -0.65397847811210
H           -4.76857103754429        2.30118785600483        1.53463282002698
H           -4.23075564363620        4.69426587032436        1.27076597676034

          :  Hamiltonian                  GFN2-xTB          :
         :: gradient norm              0.000070659694 Eh/a0 ::
         :: HOMO-LUMO gap              0.422441150168 eV    ::
         :: SCC energy              -126.851587963290 Eh    ::
         :: -> dispersion             -0.111414280981 Eh    ::
         :: -> Gsolv                  -0.057302361789 Eh    ::
         :: repulsion energy           2.358517178218 Eh    ::

    * Orbital Energies and Occupations

         #    Occupation            Energy/Eh            Energy/eV
      -------------------------------------------------------------
         1        2.0000           -0.6921660             -18.8348
       ...           ...                  ...                  ...
       105        2.0000           -0.4174138             -11.3584
       106        2.0000           -0.4158569             -11.3160
       107        2.0000           -0.4137701             -11.2593
       108        2.0000           -0.4132593             -11.2454
       109        2.0000           -0.4111957             -11.1892
       110        2.0000           -0.4013867             -10.9223
       111        2.0000           -0.3962213             -10.7817
       112        2.0000           -0.3895149             -10.5992
       113        2.0000           -0.3877039             -10.5500
       114        2.0000           -0.3851978             -10.4818
       115        1.9972           -0.3729660             -10.1489
       116        1.0028           -0.3617928              -9.8449
       117        0.9997           -0.2864167              -7.7938 (HOMO)
       118        0.0003           -0.2708921              -7.3713 (LUMO)
       119                         -0.2573282              -7.0023
       120                         -0.2557264              -6.9587
       121                         -0.2526701              -6.8755
       122                         -0.2404804              -6.5438
       123                         -0.2356366              -6.4120
       124                         -0.2323810              -6.3234
       125                         -0.2313278              -6.2947
       126                         -0.2215073              -6.0275
       127                         -0.2136966              -5.8150
       128                         -0.2038845              -5.5480
       ...                                ...                  ...
       228                          1.1595506              31.5530
      -------------------------------------------------------------
                  HL-Gap            0.0155246 Eh            0.4224 eV

     #   Z          covCN         q      C6AA      α(0)
     1   7 N        0.911    -0.308    27.925     7.643
     2   6 C        1.911     0.109    28.403     8.607
     3   6 C        2.970    -0.002    28.078     8.692
     4   6 C        2.923    -0.024    28.602     8.770
     5   6 C        2.917    -0.040    29.003     8.831
     6   6 C        2.908     0.057    26.713     8.475
     7   7 N        2.814    -0.056    22.320     7.017
     8   6 C        3.146     0.126    24.994     8.179
     9   6 C        2.969    -0.007    28.191     8.709
    10   6 C        2.922    -0.033    28.815     8.803
    11   6 C        2.915    -0.035    28.860     8.809
    12   6 C        2.971     0.007    27.869     8.659
    13   6 C        2.970     0.012    27.741     8.639
    14   6 C        2.922    -0.034    28.835     8.806
    15   6 C        2.916    -0.041    29.018     8.833
    16   6 C        2.912     0.057    26.711     8.475
    17   7 N        2.800    -0.018    21.590     6.901
    18   6 C        3.071     0.046    26.894     8.503
    19   6 C        2.909    -0.045    29.121     8.849
    20   6 C        2.923    -0.032    28.796     8.800
    21   6 C        2.920    -0.036    28.887     8.814
    22   6 C        2.912    -0.031    28.767     8.795
    23   6 C        3.065    -0.013    28.266     8.718
    24   6 C        3.065    -0.013    28.267     8.718
    25   6 C        2.912    -0.031    28.767     8.795
    26   6 C        2.920    -0.036    28.887     8.814
    27   6 C        2.923    -0.032    28.797     8.800
    28   6 C        2.909    -0.045    29.120     8.849
    29   6 C        3.071     0.046    26.894     8.503
    30   6 C        2.916    -0.041    29.018     8.834
    31   6 C        2.922    -0.033    28.833     8.806
    32   6 C        2.917    -0.034    28.838     8.806
    33   6 C        2.912    -0.040    28.999     8.830
    34   7 N        1.882    -0.311    28.925     7.973
    35   6 C        3.171     0.081    25.836     8.303
    36   6 C        2.984    -0.004    28.126     8.699
    37   6 C        2.922    -0.027    28.677     8.782
    38   6 C        2.916    -0.030    28.752     8.793
    39   6 C        2.917    -0.027    28.686     8.783
    40   6 C        2.922    -0.034    28.844     8.807
    41   6 C        2.977     0.001    28.004     8.680
    42   6 C        2.977    -0.000    28.030     8.684
    43   6 C        2.920    -0.033    28.811     8.802
    44   6 C        2.916    -0.031    28.779     8.797
    45   6 C        2.914    -0.031    28.762     8.794
    46   6 C        2.918    -0.038    28.945     8.823
    47   6 C        2.973    -0.008    28.212     8.713
    48   6 C        3.039     0.033    27.214     8.556
    49   6 C        2.917    -0.041    29.019     8.834
    50   6 C        2.923    -0.025    28.640     8.776
    51   1 H        0.926     0.038     2.469     2.457
    52   1 H        0.926     0.038     2.475     2.460
    53   1 H        0.926     0.050     2.314     2.379
    54   1 H        0.926     0.043     2.411     2.428
    55   1 H        0.926     0.044     2.400     2.422
    56   1 H        0.926     0.046     2.376     2.411
    57   1 H        0.926     0.040     2.442     2.444
    58   1 H        0.926     0.038     2.471     2.458
    59   1 H        0.926     0.037     2.492     2.469
    60   1 H        0.926     0.039     2.461     2.453
    61   1 H        0.926     0.039     2.459     2.452
    62   1 H        0.926     0.037     2.494     2.470
    63   1 H        0.926     0.038     2.480     2.463
    64   1 H        0.926     0.040     2.454     2.450
    65   1 H        0.926     0.047     2.357     2.401
    66   1 H        0.926     0.047     2.354     2.399
    67   1 H        0.926     0.037     2.490     2.468
    68   1 H        0.926     0.026     2.650     2.545
    69   1 H        0.926     0.051     2.312     2.378
    70   1 H        0.926     0.040     2.442     2.444
    71   1 H        0.926     0.041     2.439     2.442
    72   1 H        0.926     0.042     2.423     2.434
    73   1 H        0.926     0.043     2.411     2.428
    74   1 H        0.926     0.038     2.479     2.462
    75   1 H        0.926     0.034     2.530     2.487
    76   1 H        0.926     0.032     2.556     2.500
    77   1 H        0.926     0.040     2.446     2.446
    78   1 H        0.926     0.038     2.478     2.462

molecular dipole:
                 x           y           z       tot (Debye)
 q only:        2.259      -2.612       0.337
   full:        1.899      -2.588       0.365       8.212

 projected vibrational frequencies (cm⁻¹)
eigval :       -0.00    -0.00    -0.00    -0.00    -0.00    -0.00
eigval :       11.84    14.42    15.39    20.15    30.26    35.70
eigval :       45.93    51.96    61.57    67.69    81.56    85.96
eigval :       92.71    99.40   109.98   114.17   122.33   128.04
eigval :      138.06   149.48   172.37   182.77   199.83   202.30
eigval :      209.17   234.29   245.45   262.20   264.74   271.94
eigval :      277.59   302.01   309.20   330.11   364.40   373.88
eigval :      380.26   382.73   387.17   391.58   398.42   399.93
eigval :      410.46   414.43   419.05   423.01   433.46   441.06
eigval :      442.53   462.87   474.17   499.21   506.51   514.51
eigval :      516.28   527.27   530.31   535.91   538.06   541.89
eigval :      572.62   579.38   582.36   590.38   594.31   602.73
eigval :      613.96   618.63   623.82   639.14   659.04   664.90
eigval :      668.15   672.20   673.90   674.26   683.97   688.58
eigval :      709.79   717.70   730.34   750.66   753.57   759.21
eigval :      768.20   773.13   776.68   779.55   796.25   804.05
eigval :      810.64   822.86   827.32   846.21   850.13   853.66
eigval :      866.01   871.50   873.65   895.88   897.17   902.11
eigval :      904.70   905.19   910.87   912.04   914.28   915.59
eigval :      916.96   918.47   918.66   920.94   921.85   923.57
eigval :      926.33   930.20   941.11   962.28   994.59   997.75
eigval :     1006.20  1010.54  1044.27  1054.65  1068.03  1072.49
eigval :     1082.75  1094.58  1104.29  1113.41  1131.52  1133.56
eigval :     1137.11  1144.22  1151.15  1156.93  1170.15  1174.66
eigval :     1177.21  1177.97  1179.05  1181.71  1194.46  1200.22
eigval :     1206.38  1229.00  1232.82  1238.77  1240.61  1248.06
eigval :     1250.82  1259.34  1260.97  1270.77  1283.53  1284.89
eigval :     1286.43  1292.49  1308.80  1315.14  1324.42  1327.81
eigval :     1331.85  1333.86  1345.78  1354.82  1357.26  1363.42
eigval :     1386.40  1395.08  1408.50  1412.30  1414.80  1417.31
eigval :     1418.13  1422.76  1430.36  1438.59  1449.71  1461.01
eigval :     1462.28  1467.09  1471.17  1472.85  1480.77  1482.05
eigval :     1497.91  1515.57  1534.18  1541.46  1548.67  1563.39
eigval :     1568.11  1576.18  1579.80  1581.88  1582.02  1589.10
eigval :     1601.45  2298.22  3075.44  3077.65  3077.98  3078.11
eigval :     3080.05  3081.41  3083.89  3084.03  3084.62  3084.89
eigval :     3085.80  3087.08  3088.61  3089.18  3091.72  3092.03
eigval :     3093.22  3096.47  3097.80  3098.83  3099.21  3101.03
eigval :     3102.71  3103.19  3107.43  3110.34  3111.78  3124.73

   temp. (K)  partition function   enthalpy   heat capacity  entropy
                                   cal/mol     cal/K/mol   cal/K/mol   J/K/mol
 298.15  VIB  0.138E+18            22575.133    145.049    139.368
         ROT  0.134E+09              888.752      2.981     40.170
         INT  0.186E+26            23463.886    148.030    179.537
         TR   0.155E+29             1481.254      4.968     45.216
         TOT                       24945.1396   152.9982   224.7529   940.3662

       T/K    H(0)-H(T)+PV         H(T)/Eh          T*S/Eh         G(T)/Eh
   ------------------------------------------------------------------------
    298.15    0.397526E-01    0.625678E+00    0.106787E+00    0.518890E+00
   ------------------------------------------------------------------------

         :::::::::::::::::::::::::::::::::::::::::::::::::::::
         ::                  THERMODYNAMIC                  ::
         :::::::::::::::::::::::::::::::::::::::::::::::::::::
         :: total free energy        -123.974180443562 Eh   ::
         ::.................................................::
         :: total energy             -124.493070783214 Eh   ::
         :: zero point energy           0.585925095370 Eh   ::
         :: G(RRHO) w/o ZPVE           -0.067034755718 Eh   ::
         :: G(RRHO) contrib.            0.518890339651 Eh   ::
         :::::::::::::::::::::::::::::::::::::::::::::::::::::

           -------------------------------------------------
          | TOTAL ENERGY             -124.493070783214 Eh   |
          | TOTAL ENTHALPY           -123.867393077584 Eh   |
          | TOTAL FREE ENERGY        -123.974180443562 Eh   |
          | GRADIENT NORM               0.000070776118 Eh/α |
          | HOMO-LUMO GAP               0.422445583327 eV   |
           -------------------------------------------------

 * finished run on 2025/09/09 at 05:05:36.183
