   * xtb version 6.7.1 (edcfbbe) compiled by 'albert@albert-system' on 2024-07-22

   ID    Z sym.   atoms
    1    7 N      1, 7, 17, 34
    2    6 C      2-6, 8-16, 18-33, 35-50
    3    1 H      51-78

          program call               : xtb data2507/toluene/CPBPMCN/CPBPMCN_toluene_S0_finalOpt.xtbopt.xyz --gfn 2 --uhf 2 --gbsa toluene --ohess vtight --parallel 40 --molden --ceasefiles --namespace data2507/toluene/CPBPMCN/CPBPMCN_toluene_T1_preOpt
      * Solvation model:               GBSA
        Solvent                        toluene
        Solvent mass                       9.2140E+01 g/mol
          :  Hamiltonian                  GFN2-xTB          :
 * total energy  :  -124.4825218 Eh     change       -0.2754014E-07 Eh
 * total energy  :  -124.4873583 Eh     change       -0.4836575E-02 Eh
 * total energy  :  -124.4898094 Eh     change       -0.2451007E-02 Eh
 * total energy  :  -124.4906275 Eh     change       -0.8181112E-03 Eh
 * total energy  :  -124.4913504 Eh     change       -0.7229847E-03 Eh
 * total energy  :  -124.4917350 Eh     change       -0.3845168E-03 Eh
 * total energy  :  -124.4921232 Eh     change       -0.3881909E-03 Eh
 * total energy  :  -124.4923646 Eh     change       -0.2414748E-03 Eh
 * total energy  :  -124.4925084 Eh     change       -0.1437977E-03 Eh
 * total energy  :  -124.4926296 Eh     change       -0.1211611E-03 Eh
 * total energy  :  -124.4930719 Eh     change       -0.3235529E-06 Eh
 * total energy  :  -124.4930722 Eh     change       -0.3232947E-06 Eh
 * total energy  :  -124.4930725 Eh     change       -0.2848712E-06 Eh
 * total energy  :  -124.4930727 Eh     change       -0.2470823E-06 Eh
 * total energy  :  -124.4930730 Eh     change       -0.2534949E-06 Eh
 * total energy  :  -124.4930732 Eh     change       -0.2671925E-06 Eh
 * total energy  :  -124.4930735 Eh     change       -0.2293180E-06 Eh
 * total energy  :  -124.4930736 Eh     change       -0.1224600E-06 Eh
 * total energy  :  -124.4930737 Eh     change       -0.6260153E-07 Eh
   *** GEOMETRY OPTIMIZATION CONVERGED AFTER 65 ITERATIONS ***

 final structure:
================
78
 xtb: 6.7.1 (edcfbbe)
N           -2.42775427990075        6.91932945978258       -0.80524923638258
C           -2.69397566134021        5.80422171310361       -0.68235107658599
C           -3.01722500980720        4.44920139589462       -0.53130458183336
C           -2.55063999054397        3.50097844577314       -1.45801329232030
C           -2.86426317381742        2.17335303932241       -1.30513193085094
C           -3.66334229990332        1.75332504716588       -0.23052040135653
N           -3.96637357652189        0.40046556917918       -0.07682298420120
C           -3.02214072501515       -0.64578388287273       -0.04215092400374
C           -1.62124008427010       -0.53964587180869        0.02027338849923
C           -0.85838888075321       -1.71854111159746       -0.22511037889202
C            0.50182065181650       -1.70733655076956       -0.19356011305595
C            1.22935770444889       -0.52442667887690        0.09315785995866
C            2.66740445412930       -0.49929261868120        0.09329154337460
C            3.38076871860484        0.69453325874864       -0.14377490769263
C            4.75271038629155        0.72340986044547       -0.14963706334270
C            5.48904335358144       -0.44446144277554        0.08240371277515
N            6.88178007512049       -0.41826942566380        0.07467368548667
C            7.70370056991332       -1.30790305179527       -0.59240413762201
C            7.36892233732866       -2.36061229055043       -1.43387951988072
C            8.40026142322618       -3.08137350404234       -2.00804643682730
C            9.73369697798804       -2.76134420948870       -1.76509303651044
C           10.07311689654580       -1.69359525941813       -0.95337255274250
C            9.05533534667006       -0.95660666070282       -0.36636747467651
C            9.03890199084755        0.20242282819475        0.48707977755197
C           10.03556841582048        0.97792905439361        1.06048164192066
C            9.66656115112056        2.03295995403774        1.87591458540017
C            8.32519806415749        2.30270303331437        2.13584333626559
C            7.31457084565944        1.54246731252153        1.57595301695834
C            7.67793160550244        0.50236620652731        0.73067368042165
C            4.80002173637412       -1.63955447917189        0.32145140670394
C            3.42802972580864       -1.66420216594320        0.32606042857407
C            0.46898262791092        0.63030532527548        0.39815901412374
C           -0.89439435685235        0.63035702712691        0.37199211782960
N           -3.63945700517868       -1.83869746562216        0.02620619616584
C           -4.94131019553146       -1.59141979922314        0.09827604239580
C           -5.99412900473936       -2.53738099460195        0.27006523749582
C           -5.71534641234392       -3.89755217053998        0.43101822588410
C           -6.73549553170348       -4.79717638091895        0.64509289135642
C           -8.04519230003392       -4.33527654105628        0.70854012079556
C           -8.33111357160850       -2.99477293278857        0.54272556199698
C           -7.32154592115475       -2.05313990275334        0.30676255889517
C           -7.59176247958994       -0.64155773506597        0.07369910642297
C           -8.89843848560285       -0.15827967107235       -0.02098326493640
C           -9.17702989810118        1.16404999882214       -0.30029747425608
C           -8.13533060406891        2.06068332430342       -0.52663999464355
C           -6.83616738286191        1.63306471494826       -0.43183255721377
C           -6.52278996922085        0.29600438495425       -0.10388696464382
C           -5.20491620263084       -0.19366948882904        0.00738083668943
C           -4.13062955763635        2.69932405348312        0.69480772063069
C           -3.81034630986915        4.02663867196359        0.55036910884929
H           -1.94865887333448        3.82819678685140       -2.29280205455551
H           -2.50706452183304        1.44143045417784       -2.01409819635566
H           -1.40240512438319       -2.61843215465922       -0.46494795010873
H            1.03762497668278       -2.61195734155600       -0.43652789327055
H            2.84002549627101        1.59944403168154       -0.37339109563658
H            5.27487056963072        1.64146580250201       -0.37491503021774
H            6.33937668730333       -2.60294778950271       -1.64744056690044
H            8.16546118970227       -3.90673062967218       -2.66370240744625
H           10.51145388391140       -3.34945606408749       -2.22919495535520
H           11.10687798410961       -1.43340307695113       -0.78380434269919
H           11.07616198222006        0.75695525783096        0.87759817022756
H           10.42741006623323        2.65074222599072        2.32936112247471
H            8.06757762256999        3.11974378422328        2.79342280328901
H            6.27956019007373        1.74623899350815        1.80292755804179
H            5.35942775989101       -2.53630890309569        0.54275727409628
H            2.92493304148790       -2.58905937678850        0.56029545132192
H            0.97863316463084        1.52963333703393        0.71004332905303
H           -1.42357320186401        1.51817678639200        0.67841006959451
H           -4.68314667619932       -4.20962332942238        0.39028828335751
H           -6.52218867212584       -5.84811186970804        0.76989947512335
H           -8.85179726834801       -5.03098920215879        0.88891378081607
H           -9.36206698020600       -2.68577025960377        0.60455073957913
H           -9.72939342416524       -0.83164345407838        0.11225410483441
H          -10.20191893003661        1.49754292716418       -0.36245817901378
H           -8.34772509532726        3.08835122868504       -0.78202803694761
H           -6.03750925934994        2.32662109663320       -0.63538657637415
H           -4.73323112822143        2.37000422863471        1.52879426765112
H           -4.15719026729223        4.75453676957816        1.26902488888287

          :  Hamiltonian                  GFN2-xTB          :
         :: gradient norm              0.000027712221 Eh/a0 ::
         :: HOMO-LUMO gap              0.422956247963 eV    ::
         :: SCC energy              -126.851600304958 Eh    ::
         :: -> dispersion             -0.111416709042 Eh    ::
         :: -> Gsolv                  -0.057303173025 Eh    ::
         :: repulsion energy           2.358526651683 Eh    ::

    * Orbital Energies and Occupations

         #    Occupation            Energy/Eh            Energy/eV
      -------------------------------------------------------------
         1        2.0000           -0.6921548             -18.8345
       ...           ...                  ...                  ...
       105        2.0000           -0.4174221             -11.3586
       106        2.0000           -0.4158765             -11.3166
       107        2.0000           -0.4137647             -11.2591
       108        2.0000           -0.4132478             -11.2450
       109        2.0000           -0.4112045             -11.1894
       110        2.0000           -0.4013939             -10.9225
       111        2.0000           -0.3962303             -10.7820
       112        2.0000           -0.3895092             -10.5991
       113        2.0000           -0.3876991             -10.5498
       114        2.0000           -0.3852215             -10.4824
       115        1.9972           -0.3729587             -10.1487
       116        1.0028           -0.3618050              -9.8452
       117        0.9997           -0.2864150              -7.7937 (HOMO)
       118        0.0003           -0.2708715              -7.3708 (LUMO)
       119                         -0.2573397              -7.0026
       120                         -0.2557168              -6.9584
       121                         -0.2526661              -6.8754
       122                         -0.2404836              -6.5439
       123                         -0.2356423              -6.4122
       124                         -0.2323987              -6.3239
       125                         -0.2313240              -6.2946
       126                         -0.2215277              -6.0281
       127                         -0.2136894              -5.8148
       128                         -0.2038685              -5.5475
       ...                                ...                  ...
       228                          1.1596070              31.5545
      -------------------------------------------------------------
                  HL-Gap            0.0155435 Eh            0.4230 eV

     #   Z          covCN         q      C6AA      α(0)
     1   7 N        0.911    -0.308    27.926     7.643
     2   6 C        1.911     0.109    28.403     8.607
     3   6 C        2.970    -0.002    28.078     8.692
     4   6 C        2.923    -0.024    28.602     8.770
     5   6 C        2.917    -0.040    29.003     8.831
     6   6 C        2.908     0.057    26.713     8.475
     7   7 N        2.815    -0.056    22.321     7.017
     8   6 C        3.147     0.126    24.993     8.179
     9   6 C        2.969    -0.007    28.191     8.709
    10   6 C        2.922    -0.033    28.814     8.803
    11   6 C        2.915    -0.035    28.859     8.809
    12   6 C        2.971     0.007    27.869     8.659
    13   6 C        2.971     0.012    27.741     8.639
    14   6 C        2.922    -0.033    28.834     8.806
    15   6 C        2.916    -0.041    29.017     8.833
    16   6 C        2.912     0.057    26.711     8.475
    17   7 N        2.800    -0.018    21.590     6.901
    18   6 C        3.071     0.046    26.894     8.503
    19   6 C        2.909    -0.045    29.121     8.849
    20   6 C        2.923    -0.032    28.796     8.800
    21   6 C        2.920    -0.036    28.887     8.814
    22   6 C        2.912    -0.031    28.767     8.795
    23   6 C        3.065    -0.013    28.266     8.718
    24   6 C        3.065    -0.013    28.267     8.718
    25   6 C        2.912    -0.031    28.767     8.795
    26   6 C        2.920    -0.036    28.887     8.814
    27   6 C        2.923    -0.032    28.797     8.800
    28   6 C        2.909    -0.045    29.120     8.849
    29   6 C        3.071     0.046    26.894     8.503
    30   6 C        2.916    -0.041    29.018     8.834
    31   6 C        2.922    -0.033    28.833     8.806
    32   6 C        2.917    -0.034    28.838     8.806
    33   6 C        2.912    -0.040    28.999     8.830
    34   7 N        1.882    -0.312    28.926     7.973
    35   6 C        3.171     0.081    25.833     8.303
    36   6 C        2.984    -0.004    28.126     8.699
    37   6 C        2.922    -0.027    28.676     8.782
    38   6 C        2.916    -0.030    28.752     8.793
    39   6 C        2.917    -0.027    28.685     8.783
    40   6 C        2.922    -0.034    28.844     8.807
    41   6 C        2.977     0.001    28.004     8.680
    42   6 C        2.977    -0.000    28.030     8.684
    43   6 C        2.920    -0.033    28.811     8.802
    44   6 C        2.916    -0.031    28.779     8.797
    45   6 C        2.914    -0.031    28.762     8.794
    46   6 C        2.918    -0.038    28.947     8.823
    47   6 C        2.973    -0.008    28.212     8.713
    48   6 C        3.039     0.033    27.215     8.557
    49   6 C        2.917    -0.041    29.020     8.834
    50   6 C        2.923    -0.026    28.640     8.776
    51   1 H        0.926     0.038     2.469     2.457
    52   1 H        0.926     0.038     2.476     2.461
    53   1 H        0.926     0.050     2.314     2.379
    54   1 H        0.926     0.043     2.411     2.428
    55   1 H        0.926     0.044     2.400     2.422
    56   1 H        0.926     0.046     2.376     2.410
    57   1 H        0.926     0.041     2.442     2.444
    58   1 H        0.926     0.038     2.471     2.458
    59   1 H        0.926     0.037     2.492     2.469
    60   1 H        0.926     0.039     2.461     2.453
    61   1 H        0.926     0.039     2.459     2.452
    62   1 H        0.926     0.037     2.494     2.470
    63   1 H        0.926     0.038     2.480     2.463
    64   1 H        0.926     0.040     2.455     2.450
    65   1 H        0.926     0.047     2.357     2.401
    66   1 H        0.926     0.047     2.354     2.399
    67   1 H        0.926     0.037     2.490     2.468
    68   1 H        0.926     0.026     2.650     2.545
    69   1 H        0.926     0.051     2.312     2.378
    70   1 H        0.926     0.040     2.442     2.444
    71   1 H        0.926     0.041     2.439     2.442
    72   1 H        0.926     0.042     2.423     2.434
    73   1 H        0.926     0.043     2.411     2.428
    74   1 H        0.926     0.038     2.480     2.462
    75   1 H        0.926     0.034     2.530     2.487
    76   1 H        0.926     0.032     2.553     2.499
    77   1 H        0.926     0.040     2.444     2.445
    78   1 H        0.926     0.038     2.478     2.462

molecular dipole:
                 x           y           z       tot (Debye)
 q only:        2.218      -2.641       0.341
   full:        1.857      -2.612       0.371       8.202

 projected vibrational frequencies (cm⁻¹)
eigval :       -0.00    -0.00    -0.00     0.00     0.00     0.00
eigval :       12.43    14.40    15.41    20.38    30.39    35.80
eigval :       46.37    53.35    62.25    67.88    81.21    84.23
eigval :       93.09    99.90   110.24   114.21   122.90   128.35
eigval :      138.85   149.60   172.43   182.55   199.77   202.25
eigval :      209.25   234.40   245.68   261.81   264.94   272.81
eigval :      277.68   301.82   309.16   330.19   364.17   373.97
eigval :      380.27   382.48   387.21   391.91   398.34   400.20
eigval :      410.43   414.40   419.02   422.99   433.55   440.94
eigval :      442.59   463.29   474.20   498.62   506.58   514.21
eigval :      516.26   527.09   530.16   535.86   538.36   542.57
eigval :      572.60   579.23   582.42   590.39   594.28   602.88
eigval :      614.00   618.71   623.87   639.41   658.42   664.85
eigval :      667.83   671.99   673.99   674.32   683.96   688.71
eigval :      710.20   717.71   729.61   750.56   753.71   759.07
eigval :      771.40   773.13   776.58   782.01   796.00   804.77
eigval :      810.18   823.13   829.70   846.59   849.10   853.43
eigval :      865.82   872.59   874.57   895.81   897.09   903.58
eigval :      905.06   906.23   910.36   911.48   915.63   916.81
eigval :      918.48   919.13   919.76   921.64   922.55   924.41
eigval :      929.20   931.02   941.00   962.28   994.67   997.74
eigval :     1006.00  1010.45  1044.29  1054.68  1068.16  1072.61
eigval :     1082.22  1094.33  1104.15  1113.59  1131.37  1133.44
eigval :     1137.23  1144.75  1150.93  1156.39  1169.95  1174.91
eigval :     1177.50  1178.01  1178.92  1181.48  1194.22  1199.95
eigval :     1206.46  1229.20  1232.98  1239.17  1240.81  1248.04
eigval :     1250.50  1259.32  1260.83  1270.75  1282.55  1284.83
eigval :     1286.09  1292.57  1308.85  1315.13  1324.43  1327.70
eigval :     1331.97  1333.69  1345.75  1354.83  1357.10  1363.08
eigval :     1386.40  1394.84  1408.49  1411.62  1414.82  1417.04
eigval :     1418.11  1422.66  1430.35  1438.62  1449.50  1461.02
eigval :     1462.17  1467.15  1471.12  1472.80  1480.75  1481.92
eigval :     1498.07  1515.49  1534.18  1541.51  1548.64  1563.09
eigval :     1567.98  1576.19  1579.65  1581.84  1582.07  1589.01
eigval :     1601.49  2298.23  3075.52  3077.71  3077.75  3078.07
eigval :     3079.98  3081.34  3083.90  3083.98  3084.64  3084.91
eigval :     3085.85  3087.04  3088.18  3089.16  3091.62  3091.78
eigval :     3092.91  3096.47  3097.48  3098.47  3099.03  3100.83
eigval :     3102.66  3103.15  3107.40  3109.51  3111.47  3125.56

   temp. (K)  partition function   enthalpy   heat capacity  entropy
                                   cal/mol     cal/K/mol   cal/K/mol   J/K/mol
 298.15  VIB  0.124E+18            22565.591    145.062    139.263
         ROT  0.134E+09              888.752      2.981     40.169
         INT  0.166E+26            23454.343    148.043    179.432
         TR   0.155E+29             1481.254      4.968     45.216
         TOT                       24935.5973   153.0111   224.6472   939.9239

       T/K    H(0)-H(T)+PV         H(T)/Eh          T*S/Eh         G(T)/Eh
   ------------------------------------------------------------------------
    298.15    0.397374E-01    0.625706E+00    0.106737E+00    0.518969E+00
   ------------------------------------------------------------------------

         :::::::::::::::::::::::::::::::::::::::::::::::::::::
         ::                  THERMODYNAMIC                  ::
         :::::::::::::::::::::::::::::::::::::::::::::::::::::
         :: total free energy        -123.974104298484 Eh   ::
         ::.................................................::
         :: total energy             -124.493073652139 Eh   ::
         :: zero point energy           0.585969083835 Eh   ::
         :: G(RRHO) w/o ZPVE           -0.066999730179 Eh   ::
         :: G(RRHO) contrib.            0.518969353656 Eh   ::
         :::::::::::::::::::::::::::::::::::::::::::::::::::::

           -------------------------------------------------
          | TOTAL ENERGY             -124.493073652139 Eh   |
          | TOTAL ENTHALPY           -123.867367164601 Eh   |
          | TOTAL FREE ENERGY        -123.974104298484 Eh   |
          | GRADIENT NORM               0.000027922285 Eh/α |
          | HOMO-LUMO GAP               0.422959767315 eV   |
           -------------------------------------------------

 * finished run on 2025/09/09 at 05:00:39.389
