   * xtb version 6.7.1 (edcfbbe) compiled by 'albert@albert-system' on 2024-07-22

   ID    Z sym.   atoms
    1    7 N      1, 6, 19, 35, 50, 60, 65
    2    6 C      2-5, 7-18, 20-34, 36-49, 51-59, 61-64
    3    1 H      66-98

          program call               : xtb data2507/gas/6,7-DCNQx-DICz/6,7-DCNQx-DICz_gas_T1_crest.xyz --gfn 2 --spinpol --tblite --uhf 2 --ohess vtight --parallel 40 --molden --ceasefiles --namespace data2507/gas/6,7-DCNQx-DICz/6,7-DCNQx-DICz_gas_T1_finalOpt
 * total energy  :  -161.4822445 Eh     change       -0.4089759E-07 Eh
 * total energy  :  -161.4822639 Eh     change       -0.1932777E-04 Eh
 * total energy  :  -161.4822527 Eh     change        0.1113423E-04 Eh
 * total energy  :  -161.4822719 Eh     change       -0.1919172E-04 Eh
 * total energy  :  -161.4822740 Eh     change       -0.2126516E-05 Eh
 * total energy  :  -161.4822729 Eh     change        0.1169685E-05 Eh
 * total energy  :  -161.4822806 Eh     change       -0.7678337E-05 Eh
 * total energy  :  -161.4822861 Eh     change       -0.5512022E-05 Eh
 * total energy  :  -161.4822904 Eh     change       -0.4346296E-05 Eh
 * total energy  :  -161.4822966 Eh     change       -0.6187837E-05 Eh
 * total energy  :  -161.4823344 Eh     change       -0.6477763E-06 Eh
 * total energy  :  -161.4823349 Eh     change       -0.5588209E-06 Eh
 * total energy  :  -161.4823354 Eh     change       -0.4553351E-06 Eh
 * total energy  :  -161.4823360 Eh     change       -0.6445887E-06 Eh
 * total energy  :  -161.4823371 Eh     change       -0.1041447E-05 Eh
 * total energy  :  -161.4823378 Eh     change       -0.7210144E-06 Eh
 * total energy  :  -161.4823383 Eh     change       -0.4894391E-06 Eh
 * total energy  :  -161.4823388 Eh     change       -0.4869611E-06 Eh
 * total energy  :  -161.4823388 Eh     change       -0.5827957E-08 Eh
   *** GEOMETRY OPTIMIZATION CONVERGED AFTER 44 ITERATIONS ***

 final structure:
================
98
 xtb: 6.7.1 (edcfbbe)
N           11.52402783508916        2.15212733037601        0.01632736451497
C           10.40583271367806        1.90143575201556        0.07235306851080
C            9.03632650492066        1.57141408442789        0.13605780058074
C            8.63652203464381        0.24166287955941        0.00229825212103
C            7.29054998302770       -0.10654502686376        0.06215524350656
N            6.86979029234934       -1.36460633873899       -0.02610176538057
C            5.58443665080277       -1.69442499955758        0.03128562857903
C            5.24641549827545       -3.11850964052925        0.03881141382470
C            5.96194157833381       -3.99215915302459       -0.77909290658936
C            5.67165489121737       -5.34302097628730       -0.77797315907238
C            4.67381731285511       -5.84107602490324        0.04367645311164
C            3.97769974037486       -4.98190045533801        0.87951278470966
C            4.26149513769643       -3.63019416391926        0.88332849548238
C            4.61748259061332       -0.67338559366629        0.11927672979428
C            3.18155590943551       -0.92430402348039        0.03684309810098
C            2.65242543599927       -1.82298168706026       -0.89102157655705
C            1.29054031591515       -2.02133566307923       -0.97111994429424
C            0.43196503601237       -1.31797352462212       -0.12986656891942
N           -0.95262636995439       -1.54135527917726       -0.19165623030498
C           -1.51972845254516       -2.74928844454985        0.16485209375572
C           -0.88600118817337       -3.95930669540888        0.40117978027832
C           -1.65990833520018       -5.01946768781163        0.83018164616715
C           -3.02354164215573       -4.85913366280280        1.05809070242362
C           -3.65320649098059       -3.65001154491796        0.84080627359483
C           -2.91155851709404       -2.57741168804523        0.35144346669670
C           -3.18765126350576       -1.19626311040021        0.05875502261739
C           -4.33824814939871       -0.39340524327117        0.02212097260349
C           -4.25013685026192        1.01900858630592       -0.07416263153349
C           -5.60151273981204        1.51311196965048       -0.07188589924467
C           -6.19720860803296        2.75953480912002       -0.25108408159564
C           -7.57400393357517        2.85553785920036       -0.24817170285709
C           -8.37969901940599        1.73021757090760       -0.10271276818827
C           -7.82062540140739        0.47471768148557        0.02824395232905
C           -6.43778136970213        0.37770646081472        0.04819255254596
N           -5.65953989026249       -0.76150327236862        0.10605518643124
C           -6.18950747564525       -2.04781042897326       -0.09530905748912
C           -5.79804066387931       -2.79182332250863       -1.20410187360869
C           -6.33927744033493       -4.04577024613669       -1.41561136379913
C           -7.27809400842864       -4.55806467970849       -0.53511223923708
C           -7.67405431205297       -3.81403619768443        0.56398137786372
C           -7.13307146049501       -2.56071595945455        0.78873997762000
C           -2.98037007148392        1.59509762185595       -0.24187233609887
C           -1.84187141364725        0.78743324893742       -0.49063077552539
C           -0.78567786330005        1.68067503367904       -0.88194405354598
C            0.49361879498270        1.52091889555312       -1.40940010448381
C            1.26541651914522        2.64049525138313       -1.64469308300989
C            0.78732444481684        3.91865521067761       -1.36991070942439
C           -0.50358124569607        4.11107096423042       -0.91780760590460
C           -1.29494966354749        2.99048607365278       -0.71678409121595
N           -2.61983884715903        2.92041478560989       -0.33035804495223
C           -3.32815636973144        4.01776474520360        0.18561608057171
C           -3.48827318655695        5.17226490069957       -0.57435826396879
C           -4.15778035933670        6.25830522976335       -0.03941190680351
C           -4.67102994152565        6.19892574829176        1.24574842411682
C           -4.51431098004776        5.04786128627880        2.00059676027840
C           -3.84035829113954        3.96007199506144        1.47873124301512
C           -1.94196313333841       -0.58874916390360       -0.23730496596882
C            0.95224876977949       -0.41412237415512        0.79256038476515
C            2.31377493726888       -0.21259198906411        0.86605669091419
N            5.01705749186592        0.58895063819638        0.25709196912286
C            6.29928546114314        0.93408878546555        0.25076124879022
C            6.72129582034260        2.25394319783855        0.39093232507212
C            8.07589471937816        2.57920586083385        0.33711449476889
C            8.47845240369832        3.92332845353462        0.48109016320846
N            8.78524922587231        5.02226102074824        0.60100657329855
H            9.37108284892125       -0.53568938517953       -0.13823593077985
H            6.73895163569703       -3.59687942042086       -1.41579972689498
H            6.22727287504358       -6.01053069386688       -1.41994176880541
H            4.44583871205588       -6.89648347331974        0.04117709307336
H            3.21386219365460       -5.36894666449777        1.53804442242577
H            3.73064890586211       -2.96978659832928        1.55311473038272
H            3.31045972058832       -2.35058476138227       -1.56467012504581
H            0.88006501868448       -2.69984473081214       -1.70400809277296
H            0.18076026538297       -4.06395876059073        0.27265440943664
H           -1.19675894284038       -5.97683023044638        1.01555974709852
H           -3.59954481081922       -5.69386380626974        1.42847312971390
H           -4.69766810906020       -3.54651073738930        1.07787218475027
H           -5.60751565787525        3.64401927075704       -0.41330365413759
H           -8.03479855337089        3.82331752036377       -0.37778223018238
H           -9.45387487864147        1.83677566123140       -0.11466800284747
H           -8.44202208093233       -0.40522995060149        0.09230231423285
H           -5.06955190223891       -2.38255158709935       -1.88756882818787
H           -6.03084808221067       -4.62300867408693       -2.27402931033009
H           -7.70054456443854       -5.53676500674147       -0.70445306868173
H           -8.40256374033865       -4.21289685894108        1.25409606315109
H           -7.41992992057312       -1.98481753866463        1.65612953931408
H            0.87677365222870        0.54679109937416       -1.66080676237214
H            2.26061850342777        2.52129588978554       -2.04530751908896
H            1.42534223090716        4.77348826264857       -1.53513839479890
H           -0.88162658898641        5.10390481698516       -0.72904268967061
H           -3.11145395084036        5.20221938208093       -1.58570338371413
H           -4.28530609734186        7.15152804661157       -0.63255390163891
H           -5.19489522827405        7.04809427251235        1.65728896129335
H           -4.91377603711436        4.99889517387628        3.00223651053697
H           -3.71127277484625        3.05978813811454        2.06054586700333
H            0.28279255153117        0.12808133255633        1.44285638258345
H            2.72269632653851        0.49157844141487        1.57377723821530
H            5.98056621320117        3.02533667279778        0.53234190253959

 projected vibrational frequencies (cm⁻¹)
eigval :       -0.00    -0.00    -0.00    -0.00    -0.00     0.00
eigval :        5.47     8.05    12.10    23.62    26.89    28.25
eigval :       31.16    38.35    42.47    48.37    52.58    55.01
eigval :       60.88    69.59    69.80    77.62    83.29    90.13
eigval :       97.11   100.78   103.25   110.38   117.66   123.07
eigval :      135.75   149.57   158.35   164.17   170.76   185.86
eigval :      194.54   201.40   217.44   221.91   228.19   228.70
eigval :      239.52   240.38   253.16   268.89   274.37   280.41
eigval :      292.68   301.71   306.84   335.04   351.83   354.95
eigval :      373.05   377.21   378.17   379.39   382.26   386.18
eigval :      389.72   390.23   399.79   406.93   408.81   418.98
eigval :      422.17   434.59   442.54   447.02   450.92   459.89
eigval :      473.15   477.40   487.56   512.15   521.23   533.50
eigval :      535.71   539.33   542.31   543.13   555.29   556.48
eigval :      573.89   581.06   582.75   584.41   591.14   593.16
eigval :      593.77   602.10   605.26   606.65   621.91   624.38
eigval :      631.23   638.48   641.65   648.95   650.65   667.01
eigval :      669.15   670.34   674.93   678.48   684.21   698.31
eigval :      699.39   702.45   704.65   712.92   729.68   731.26
eigval :      745.86   754.76   759.39   764.47   767.82   772.19
eigval :      774.57   776.77   801.75   810.81   816.32   842.73
eigval :      844.29   859.64   866.12   866.25   868.41   870.32
eigval :      873.03   875.42   878.63   880.27   899.76   901.43
eigval :      901.69   904.01   905.29   907.93   910.10   911.18
eigval :      914.61   921.10   921.68   923.86   925.19   927.65
eigval :      929.00   929.17   929.30   931.81   933.95   935.20
eigval :      944.16   986.31   986.87   995.09  1009.95  1021.77
eigval :     1077.26  1078.57  1078.82  1079.60  1081.53  1084.24
eigval :     1089.59  1090.30  1100.26  1116.08  1116.70  1117.18
eigval :     1121.21  1132.79  1137.12  1142.43  1142.81  1170.24
eigval :     1173.08  1180.27  1180.38  1180.45  1181.73  1182.36
eigval :     1184.30  1186.59  1188.86  1189.28  1196.11  1205.72
eigval :     1209.56  1210.97  1223.48  1227.61  1228.17  1243.61
eigval :     1261.04  1264.43  1267.50  1269.77  1271.79  1277.80
eigval :     1278.81  1279.23  1285.97  1294.05  1305.62  1314.70
eigval :     1315.19  1315.60  1319.16  1320.83  1323.45  1329.00
eigval :     1340.03  1342.71  1357.30  1359.81  1380.38  1381.17
eigval :     1385.79  1394.22  1404.59  1409.15  1416.49  1419.96
eigval :     1424.60  1429.71  1435.08  1435.60  1439.98  1460.10
eigval :     1468.18  1468.38  1473.91  1478.57  1479.70  1481.70
eigval :     1485.88  1490.26  1500.34  1522.94  1526.84  1551.76
eigval :     1573.77  1579.57  1580.17  1581.76  1582.74  1583.08
eigval :     1585.47  1589.27  1592.13  1592.94  1595.52  1596.30
eigval :     1597.92  2355.81  2361.73  3075.25  3079.75  3080.56
eigval :     3081.37  3081.97  3082.78  3084.53  3085.18  3085.21
eigval :     3085.79  3086.76  3087.39  3089.06  3091.27  3091.80
eigval :     3091.86  3092.87  3092.94  3095.92  3096.50  3096.64
eigval :     3097.75  3098.31  3098.53  3100.26  3102.29  3102.48
eigval :     3102.78  3103.17  3104.63  3129.71  3139.78  3151.53

   temp. (K)  partition function   enthalpy   heat capacity  entropy
                                   cal/mol     cal/K/mol   cal/K/mol   J/K/mol
 298.15  VIB  0.520E+24            30003.236    188.017    188.121
         ROT  0.199E+09              888.752      2.981     40.951
         INT  0.103E+33            30891.989    190.998    229.072
         TR   0.230E+29             1481.254      4.968     45.998
         TOT                       32373.2426   195.9664   275.0702  1150.8936

       T/K    H(0)-H(T)+PV         H(T)/Eh          T*S/Eh         G(T)/Eh
   ------------------------------------------------------------------------
    298.15    0.515900E-01    0.776304E+00    0.130695E+00    0.645609E+00
   ------------------------------------------------------------------------

         :::::::::::::::::::::::::::::::::::::::::::::::::::::
         ::                  THERMODYNAMIC                  ::
         :::::::::::::::::::::::::::::::::::::::::::::::::::::
         :: total free energy        -160.836729352237 Eh   ::
         ::.................................................::
         :: total energy             -161.482338759098 Eh   ::
         :: zero point energy           0.724714071564 Eh   ::
         :: G(RRHO) w/o ZPVE           -0.079104664703 Eh   ::
         :: G(RRHO) contrib.            0.645609406861 Eh   ::
         :::::::::::::::::::::::::::::::::::::::::::::::::::::

           -------------------------------------------------
          | TOTAL ENERGY             -161.482338759098 Eh   |
          | TOTAL ENTHALPY           -160.706034641571 Eh   |
          | TOTAL FREE ENERGY        -160.836729352237 Eh   |
          | GRADIENT NORM               0.000096306658 Eh/α |
           -------------------------------------------------

 * finished run on 2025/09/04 at 19:18:22.756
