   * xtb version 6.7.1 (edcfbbe) compiled by 'albert@albert-system' on 2024-07-22

   ID    Z sym.   atoms
    1    7 N      1, 6, 19, 35, 50, 60, 65
    2    6 C      2-5, 7-18, 20-34, 36-49, 51-59, 61-64
    3    1 H      66-98

          program call               : xtb data2507/gas/6,7-DCNQx-DICz/6,7-DCNQx-DICz_gas_S0_crest.xyz --gfn 2 --ohess vtight --parallel 40 --molden --ceasefiles --namespace data2507/gas/6,7-DCNQx-DICz/6,7-DCNQx-DICz_gas_S0_finalOpt
          :  Hamiltonian                  GFN2-xTB          :
 * total energy  :  -161.5272957 Eh     change       -0.5647081E-08 Eh
 * total energy  :  -161.5272960 Eh     change       -0.3112481E-06 Eh
 * total energy  :  -161.5272963 Eh     change       -0.2262124E-06 Eh
 * total energy  :  -161.5272995 Eh     change       -0.3243166E-05 Eh
 * total energy  :  -161.5272879 Eh     change        0.1160596E-04 Eh
 * total energy  :  -161.5273016 Eh     change       -0.1370908E-04 Eh
 * total energy  :  -161.5273050 Eh     change       -0.3368754E-05 Eh
 * total energy  :  -161.5273069 Eh     change       -0.1890068E-05 Eh
 * total energy  :  -161.5273107 Eh     change       -0.3784812E-05 Eh
 * total energy  :  -161.5273128 Eh     change       -0.2095019E-05 Eh
 * total energy  :  -161.5273540 Eh     change       -0.4768339E-06 Eh
 * total energy  :  -161.5273544 Eh     change       -0.3742074E-06 Eh
 * total energy  :  -161.5273547 Eh     change       -0.3018995E-06 Eh
 * total energy  :  -161.5273550 Eh     change       -0.3181674E-06 Eh
 * total energy  :  -161.5273554 Eh     change       -0.3486760E-06 Eh
 * total energy  :  -161.5273557 Eh     change       -0.2816411E-06 Eh
 * total energy  :  -161.5273559 Eh     change       -0.2587492E-06 Eh
 * total energy  :  -161.5273562 Eh     change       -0.3083786E-06 Eh
 * total energy  :  -161.5273562 Eh     change       -0.3562775E-08 Eh
   *** GEOMETRY OPTIMIZATION CONVERGED AFTER 44 ITERATIONS ***

 final structure:
================
98
 xtb: 6.7.1 (edcfbbe)
N           11.57687134870722        1.97909171527991       -0.20537129277611
C           10.46245294488880        1.74252531956901       -0.08536223167201
C            9.08892450442717        1.43244220226052        0.05669956069437
C            8.65162933550444        0.13773228482317       -0.11013447433484
C            7.28644149260459       -0.15917780143029        0.04008675380035
N            6.86401954868646       -1.43677028869759       -0.01650660670649
C            5.58437383473885       -1.68536953525261        0.10247779014320
C            5.18118772910459       -3.09094644309558        0.19569813073376
C            5.84394614222850       -4.04555499735215       -0.57303275827622
C            5.47365278763893       -5.37495395521884       -0.50286575172049
C            4.45104365665364       -5.76776652740387        0.34540784741555
C            3.80881991132004       -4.82760764815516        1.13559747672869
C            4.16833041203527       -3.49551628531645        1.06458514592058
C            4.63326465420853       -0.60413018071958        0.16895032094529
C            3.19463909656042       -0.82425441974773        0.03332270938162
C            2.69287269219292       -1.74209012414629       -0.88985614787597
C            1.33380630089521       -1.94114752939599       -1.00328016443039
C            0.45173421675234       -1.23137416785254       -0.19042044997648
N           -0.92174107951743       -1.47959370727751       -0.26902598416346
C           -1.46702512643946       -2.70755379174302        0.06328501043929
C           -0.81438263752614       -3.91213511890950        0.27313676871993
C           -1.56829532309943       -4.99259053722370        0.68755937757906
C           -2.93153632193106       -4.85801142163897        0.92949297887862
C           -3.57936180035649       -3.65344675556058        0.74281663164051
C           -2.85837558610803       -2.56091467636338        0.26839850519590
C           -3.16092377756605       -1.17713097986386        0.01154935105797
C           -4.32729249520441       -0.39539720538511        0.00156510805775
C           -4.26647622508082        1.01733515474664       -0.06298762678716
C           -5.62758855254162        1.48625972692930       -0.03905073763646
C           -6.24682968747046        2.72503815687313       -0.18564789536282
C           -7.62490387504786        2.79621448773524       -0.17368137138010
C           -8.40895423461657        1.65331667053983       -0.05091149463039
C           -7.82618980398068        0.40614154674216        0.04867648161494
C           -6.44161645891635        0.33359494468788        0.05990340817695
N           -5.64216019662914       -0.79241928088662        0.08758612798084
C           -6.14534961330299       -2.08140468272279       -0.15376013631744
C           -5.73213523918982       -2.78717830156012       -1.27985760580613
C           -6.24505306651370       -4.04585797084186       -1.52933082632620
C           -7.17855093601257       -4.60193913340776       -0.67008437376497
C           -7.59677809954190       -3.89659842183254        0.44605791656839
C           -7.08329787167490       -2.63926974291094        0.70910087223030
C           -3.00950827468668        1.62046859461837       -0.23109628911976
C           -1.86030603852180        0.84075368635560       -0.50537053950640
C           -0.82593181661989        1.76068413120818       -0.89489210034229
C            0.44778091819514        1.63242767761614       -1.44300978273651
C            1.19563659127643        2.76899026828406       -1.67376444842899
C            0.69864069324607        4.03316998545977       -1.37147182077224
C           -0.58846239098669        4.19461911030979       -0.89739491204137
C           -1.35740351098136        3.05751000976203       -0.70277338913763
N           -2.67588284312611        2.95641446297203       -0.30153800409780
C           -3.39417860522360        4.02457547829916        0.25768714437199
C           -3.58187743186306        5.20142959296670       -0.46074287027705
C           -4.26244869689036        6.25799547310969        0.11734486635124
C           -4.76132668944315        6.14763458814677        1.40470889764918
C           -4.57865966284959        4.97427605290440        2.11813894934558
C           -3.89241176431471        3.91625276497345        1.55327974076520
C           -1.93308643969709       -0.54122403412712       -0.27849832961542
C            0.94886051662342       -0.30151397360595        0.72163654634105
C            2.30691874766896       -0.08998051992776        0.81864789591262
N            5.03945465415069        0.62973988574271        0.33579799038932
C            6.36073360916174        0.88581776244410        0.31928386324491
C            6.82492196672776        2.19880633126392        0.50982309624277
C            8.16798830068699        2.47096470328316        0.38073668931259
C            8.64666182883269        3.79078861044029        0.56063871685928
N            9.02028805964948        4.86323095081143        0.71043800436297
H            9.34124546859082       -0.66026218191272       -0.33889681634962
H            6.63963226542088       -3.72572140559080       -1.22825897329761
H            5.98449288656596       -6.10769492197576       -1.10961204070391
H            4.16029300712095       -6.80631760380260        0.39791953446332
H            3.02463395889082       -5.13369384619905        1.81216591885987
H            3.67798148486595       -2.77099333837677        1.69810599006831
H            3.36797108763745       -2.27965366113870       -1.53906569706880
H            0.94318742238643       -2.63035597127443       -1.73666562660338
H            0.25338181855543       -4.00111239909011        0.13881050318276
H           -1.08801157439166       -5.94586935851317        0.85057866403744
H           -3.49224043944258       -5.70849352685229        1.28775910501008
H           -4.62262509209644       -3.56859920526548        0.99254621482623
H           -5.67404915956741        3.62380576283805       -0.32999036682502
H           -8.10398409976456        3.75835171646616       -0.27860780982700
H           -9.48520458193919        1.74012111654395       -0.05616497981521
H           -8.43148410738665       -0.48627848807203        0.09449120456415
H           -5.00797190870851       -2.34427069351098       -1.94677469060101
H           -5.91876732347337       -4.59281916419171       -2.40108607042371
H           -7.57920273490050       -5.58438297063782       -0.86905491154510
H           -8.32113102682177       -4.32956639402625        1.12007988434601
H           -7.38732869809491       -2.09423214384742        1.59050554056968
H            0.84386027751204        0.66872359008998       -1.71613482473673
H            2.18619070142429        2.67439836212367       -2.09295836383413
H            1.31811258853369        4.90253216248121       -1.53338471530890
H           -0.98076561296208        5.17779235112307       -0.68768929580946
H           -3.21798138386889        5.27135405861376       -1.47485178201335
H           -4.41108269118925        7.16832687906556       -0.44437991917592
H           -5.29490265436857        6.97377930643197        1.84965328415735
H           -4.96799507925004        4.88458705987690        3.12112212490092
H           -3.74447605036860        2.99861678815636        2.10264158942869
H            0.26252623012714        0.24813749844532        1.34692387645485
H            2.70203767093014        0.63001641206564        1.51800357069167
H            6.11446156814773        2.97886508866747        0.73669422976187

          :  Hamiltonian                  GFN2-xTB          :
         :: gradient norm              0.000095252430 Eh/a0 ::
         :: HOMO-LUMO gap              0.863180600033 eV    ::
         :: SCC energy              -164.593923462418 Eh    ::
         :: -> dispersion             -0.159958507221 Eh    ::
         :: repulsion energy           3.066567226304 Eh    ::

    * Orbital Energies and Occupations

         #    Occupation            Energy/Eh            Energy/eV
      -------------------------------------------------------------
         1        2.0000           -0.7009741             -19.0745
       ...           ...                  ...                  ...
       138        2.0000           -0.4180041             -11.3745
       139        2.0000           -0.4162539             -11.3268
       140        2.0000           -0.4154760             -11.3057
       141        2.0000           -0.4088820             -11.1262
       142        2.0000           -0.4078573             -11.0984
       143        2.0000           -0.4064687             -11.0606
       144        2.0000           -0.3957013             -10.7676
       145        2.0000           -0.3926000             -10.6832
       146        2.0000           -0.3917118             -10.6590
       147        2.0000           -0.3748110             -10.1991
       148        2.0000           -0.3732053             -10.1554
       149        2.0000           -0.3545721              -9.6484
       150        2.0000           -0.3540018              -9.6329 (HOMO)
       151        0.0000           -0.3222804              -8.7697 (LUMO)
       152                         -0.3031811              -8.2500
       153                         -0.2676036              -7.2819
       154                         -0.2566957              -6.9850
       155                         -0.2495581              -6.7908
       156                         -0.2475686              -6.7367
       157                         -0.2458465              -6.6898
       158                         -0.2402658              -6.5380
       159                         -0.2364076              -6.4330
       160                         -0.2357143              -6.4141
       161                         -0.2348759              -6.3913
       ...                                ...                  ...
       293                          1.1772636              32.0350
      -------------------------------------------------------------
                  HL-Gap            0.0317213 Eh            0.8632 eV

     #   Z          covCN         q      C6AA      α(0)
     1   7 N        0.911    -0.210    25.576     7.314
     2   6 C        1.911     0.115    28.267     8.586
     3   6 C        2.975     0.025    27.439     8.592
     4   6 C        2.926    -0.028    28.705     8.786
     5   6 C        2.963     0.083    26.146     8.387
     6   7 N        1.851    -0.228    26.834     7.678
     7   6 C        2.951     0.093    25.930     8.352
     8   6 C        2.982     0.007    27.855     8.657
     9   6 C        2.925    -0.024    28.603     8.771
    10   6 C        2.918    -0.026    28.647     8.777
    11   6 C        2.920    -0.024    28.612     8.772
    12   6 C        2.919    -0.027    28.664     8.780
    13   6 C        2.923    -0.028    28.705     8.786
    14   6 C        2.952     0.094    25.920     8.350
    15   6 C        2.982     0.004    27.936     8.670
    16   6 C        2.922    -0.028    28.708     8.787
    17   6 C        2.921    -0.041    29.010     8.833
    18   6 C        2.918     0.074    26.338     8.416
    19   7 N        2.803    -0.042    22.049     6.974
    20   6 C        3.081     0.043    26.955     8.511
    21   6 C        2.910    -0.052    29.297     8.875
    22   6 C        2.924    -0.036    28.890     8.814
    23   6 C        2.919    -0.041    29.012     8.833
    24   6 C        2.915    -0.040    28.989     8.829
    25   6 C        3.060    -0.014    28.290     8.722
    26   6 C        3.054    -0.048    29.126     8.851
    27   6 C        3.066     0.041    27.005     8.521
    28   6 C        3.054    -0.047    29.100     8.847
    29   6 C        3.060    -0.015    28.328     8.728
    30   6 C        2.915    -0.041    29.012     8.832
    31   6 C        2.919    -0.041    29.020     8.834
    32   6 C        2.923    -0.035    28.878     8.813
    33   6 C        2.911    -0.052    29.286     8.874
    34   6 C        3.085     0.044    26.924     8.506
    35   7 N        2.802    -0.043    22.068     6.977
    36   6 C        2.917     0.069    26.453     8.434
    37   6 C        2.922    -0.037    28.914     8.818
    38   6 C        2.920    -0.026    28.648     8.777
    39   6 C        2.920    -0.032    28.791     8.799
    40   6 C        2.920    -0.028    28.704     8.786
    41   6 C        2.922    -0.041    29.031     8.836
    42   6 C        3.064     0.042    26.994     8.520
    43   6 C        3.056    -0.048    29.135     8.852
    44   6 C        3.062    -0.016    28.355     8.732
    45   6 C        2.914    -0.039    28.964     8.825
    46   6 C        2.919    -0.040    29.001     8.831
    47   6 C        2.924    -0.035    28.869     8.811
    48   6 C        2.911    -0.052    29.282     8.873
    49   6 C        3.081     0.044    26.923     8.506
    50   7 N        2.803    -0.043    22.061     6.976
    51   6 C        2.916     0.069    26.452     8.434
    52   6 C        2.921    -0.042    29.032     8.836
    53   6 C        2.920    -0.028    28.695     8.784
    54   6 C        2.919    -0.032    28.790     8.799
    55   6 C        2.920    -0.026    28.649     8.777
    56   6 C        2.922    -0.037    28.931     8.821
    57   6 C        3.062     0.040    27.035     8.526
    58   6 C        2.920    -0.035    28.867     8.811
    59   6 C        2.924    -0.022    28.561     8.764
    60   7 N        1.851    -0.228    26.838     7.678
    61   6 C        2.964     0.084    26.134     8.385
    62   6 C        2.926    -0.028    28.705     8.786
    63   6 C        2.975     0.025    27.432     8.591
    64   6 C        1.911     0.115    28.264     8.586
    65   7 N        0.911    -0.210    25.570     7.313
    66   1 H        0.926     0.067     2.124     2.279
    67   1 H        0.926     0.050     2.315     2.379
    68   1 H        0.926     0.041     2.437     2.441
    69   1 H        0.926     0.040     2.452     2.449
    70   1 H        0.926     0.038     2.473     2.459
    71   1 H        0.926     0.031     2.568     2.506
    72   1 H        0.926     0.036     2.503     2.474
    73   1 H        0.926     0.047     2.353     2.399
    74   1 H        0.926     0.024     2.675     2.558
    75   1 H        0.926     0.027     2.629     2.536
    76   1 H        0.926     0.026     2.642     2.542
    77   1 H        0.926     0.029     2.597     2.520
    78   1 H        0.926     0.029     2.606     2.525
    79   1 H        0.926     0.025     2.655     2.548
    80   1 H        0.926     0.028     2.620     2.531
    81   1 H        0.926     0.027     2.627     2.535
    82   1 H        0.926     0.039     2.457     2.451
    83   1 H        0.926     0.037     2.491     2.468
    84   1 H        0.926     0.036     2.504     2.475
    85   1 H        0.926     0.036     2.498     2.471
    86   1 H        0.926     0.041     2.433     2.439
    87   1 H        0.926     0.022     2.698     2.568
    88   1 H        0.926     0.026     2.650     2.546
    89   1 H        0.926     0.029     2.600     2.522
    90   1 H        0.926     0.029     2.605     2.524
    91   1 H        0.926     0.042     2.421     2.433
    92   1 H        0.926     0.037     2.493     2.469
    93   1 H        0.926     0.036     2.501     2.473
    94   1 H        0.926     0.037     2.487     2.466
    95   1 H        0.926     0.039     2.467     2.456
    96   1 H        0.926     0.048     2.345     2.395
    97   1 H        0.926     0.054     2.264     2.353
    98   1 H        0.926     0.067     2.118     2.276

molecular dipole:
                 x           y           z       tot (Debye)
 q only:       -2.672      -1.806       0.091
   full:       -3.224      -2.320       0.093      10.099

 projected vibrational frequencies (cm⁻¹)
eigval :       -0.00    -0.00     0.00     0.00     0.00     0.00
eigval :        6.48     9.33    12.97    22.77    24.92    28.18
eigval :       31.45    38.38    42.92    48.72    53.60    55.97
eigval :       61.27    70.36    72.18    78.05    84.11    88.95
eigval :       97.17   100.22   103.71   109.29   117.80   124.66
eigval :      136.97   150.38   159.53   166.76   168.15   187.50
eigval :      196.37   205.67   220.38   224.93   230.84   233.00
eigval :      240.67   242.49   254.40   270.10   278.94   287.12
eigval :      296.49   309.76   312.22   340.26   351.82   356.73
eigval :      373.16   378.71   378.85   380.13   384.05   386.50
eigval :      390.40   391.47   400.63   403.78   409.86   426.46
eigval :      427.30   441.73   445.06   448.02   453.10   463.91
eigval :      474.16   478.34   488.02   503.07   521.97   536.84
eigval :      540.02   543.12   544.46   548.82   556.59   559.23
eigval :      574.69   581.98   584.17   584.88   591.55   593.43
eigval :      594.69   604.75   609.55   612.02   624.42   629.21
eigval :      637.89   647.29   651.40   655.51   668.67   669.12
eigval :      669.37   674.54   682.81   696.35   698.12   699.66
eigval :      702.05   709.50   729.28   730.07   739.75   748.82
eigval :      753.75   759.86   764.78   767.74   772.75   774.60
eigval :      775.37   777.10   820.29   845.58   846.45   850.89
eigval :      860.40   866.30   866.78   869.27   870.12   874.68
eigval :      875.17   877.43   878.96   880.09   898.88   900.67
eigval :      902.94   904.85   906.48   908.94   912.77   913.12
eigval :      916.76   921.04   921.96   924.94   928.78   928.82
eigval :      929.29   929.51   931.75   933.89   934.21   935.13
eigval :      954.23   986.68   989.16   996.85  1013.26  1026.74
eigval :     1078.79  1078.92  1080.01  1080.28  1080.94  1085.76
eigval :     1091.93  1092.33  1094.68  1116.87  1117.37  1118.00
eigval :     1122.22  1133.34  1144.44  1148.06  1149.95  1169.65
eigval :     1178.97  1179.65  1180.80  1180.96  1181.09  1183.63
eigval :     1185.18  1188.89  1190.19  1191.22  1196.28  1210.85
eigval :     1215.46  1216.48  1247.75  1251.49  1252.92  1259.31
eigval :     1262.98  1266.34  1272.69  1274.55  1275.27  1280.20
eigval :     1293.32  1296.10  1299.11  1315.56  1316.02  1318.38
eigval :     1321.41  1327.19  1330.49  1336.94  1342.12  1361.53
eigval :     1366.41  1367.17  1384.58  1390.77  1395.83  1397.05
eigval :     1401.08  1409.37  1424.12  1429.34  1431.53  1434.41
eigval :     1434.99  1437.70  1439.88  1440.36  1453.34  1474.01
eigval :     1475.05  1476.15  1481.05  1481.48  1484.07  1494.15
eigval :     1509.05  1516.05  1555.09  1567.98  1568.25  1573.43
eigval :     1579.14  1581.04  1581.51  1584.67  1588.57  1590.62
eigval :     1591.87  1594.58  1594.75  1595.02  1601.46  1603.58
eigval :     1604.58  2375.40  2376.48  3076.37  3078.13  3078.25
eigval :     3079.52  3079.59  3080.64  3082.33  3082.70  3083.36
eigval :     3083.47  3084.91  3086.03  3087.60  3088.96  3090.84
eigval :     3091.94  3093.35  3095.18  3095.58  3095.89  3095.93
eigval :     3096.94  3097.56  3097.95  3100.80  3100.98  3101.69
eigval :     3102.56  3102.62  3107.96  3121.19  3138.75  3149.72

   temp. (K)  partition function   enthalpy   heat capacity  entropy
                                   cal/mol     cal/K/mol   cal/K/mol   J/K/mol
 298.15  VIB  0.285E+24            29804.553    186.795    186.644
         ROT  0.198E+09              888.752      2.981     40.945
         INT  0.565E+32            30693.305    189.776    227.589
         TR   0.230E+29             1481.254      4.968     45.998
         TOT                       32174.5591   194.7438   273.5871  1144.6885

       T/K    H(0)-H(T)+PV         H(T)/Eh          T*S/Eh         G(T)/Eh
   ------------------------------------------------------------------------
    298.15    0.512734E-01    0.779352E+00    0.129990E+00    0.649362E+00
   ------------------------------------------------------------------------

         :::::::::::::::::::::::::::::::::::::::::::::::::::::
         ::                  THERMODYNAMIC                  ::
         :::::::::::::::::::::::::::::::::::::::::::::::::::::
         :: total free energy        -160.877994575772 Eh   ::
         ::.................................................::
         :: total energy             -161.527356236115 Eh   ::
         :: zero point energy           0.728078299166 Eh   ::
         :: G(RRHO) w/o ZPVE           -0.078716638824 Eh   ::
         :: G(RRHO) contrib.            0.649361660343 Eh   ::
         :::::::::::::::::::::::::::::::::::::::::::::::::::::

           -------------------------------------------------
          | TOTAL ENERGY             -161.527356236115 Eh   |
          | TOTAL ENTHALPY           -160.748004513331 Eh   |
          | TOTAL FREE ENERGY        -160.877994575772 Eh   |
          | GRADIENT NORM               0.000095132898 Eh/α |
          | HOMO-LUMO GAP               0.863181243202 eV   |
           -------------------------------------------------

 * finished run on 2025/09/04 at 19:07:25.691
