   * xtb version 6.7.1 (edcfbbe) compiled by 'albert@albert-system' on 2024-07-22

   ID    Z sym.   atoms
    1    7 N      1, 6, 19, 35, 50, 60, 65
    2    6 C      2-5, 7-18, 20-34, 36-49, 51-59, 61-64
    3    1 H      66-98

          program call               : xtb data2507/gas/6,7-DCNQx-DICz/6,7-DCNQx-DICz.xyz --gfn 2 --ohess vtight --parallel 40 --molden --ceasefiles --namespace data2507/gas/6,7-DCNQx-DICz/6,7-DCNQx-DICz_gas_S0_preOpt
          :  Hamiltonian                  GFN2-xTB          :
 * total energy  :  -161.4795103 Eh     change       -0.5449010E-08 Eh
 * total energy  :  -161.5090020 Eh     change       -0.2949168E-01 Eh
 * total energy  :  -161.5168306 Eh     change       -0.7828572E-02 Eh
 * total energy  :  -161.5191165 Eh     change       -0.2285897E-02 Eh
 * total energy  :  -161.5202551 Eh     change       -0.1138619E-02 Eh
 * total energy  :  -161.5214202 Eh     change       -0.1165086E-02 Eh
 * total energy  :  -161.5218000 Eh     change       -0.3798201E-03 Eh
 * total energy  :  -161.5226210 Eh     change       -0.8209872E-03 Eh
 * total energy  :  -161.5231412 Eh     change       -0.5202642E-03 Eh
 * total energy  :  -161.5236264 Eh     change       -0.4852019E-03 Eh
 * total energy  :  -161.5262701 Eh     change       -0.5809072E-06 Eh
 * total energy  :  -161.5262706 Eh     change       -0.5012397E-06 Eh
 * total energy  :  -161.5262710 Eh     change       -0.3490826E-06 Eh
 * total energy  :  -161.5262713 Eh     change       -0.2859342E-06 Eh
 * total energy  :  -161.5262715 Eh     change       -0.2500560E-06 Eh
 * total energy  :  -161.5262718 Eh     change       -0.2778296E-06 Eh
 * total energy  :  -161.5262721 Eh     change       -0.2920591E-06 Eh
 * total energy  :  -161.5262724 Eh     change       -0.3419422E-06 Eh
 * total energy  :  -161.5262724 Eh     change       -0.2954408E-08 Eh
   *** GEOMETRY OPTIMIZATION CONVERGED AFTER 94 ITERATIONS ***

 final structure:
================
98
 xtb: 6.7.1 (edcfbbe)
N           12.05750359821575        2.31695454894379       -0.80637638935919
C           11.00712569393894        1.87212657485370       -0.91157256846658
C            9.70774102827074        1.32225250690730       -1.02188426357981
C            9.03987377995462        0.89546058143023        0.10375236021118
C            7.75310466842630        0.34453184096816       -0.01940195340095
N            7.13764522729189       -0.18072237184510        1.05648993215621
C            5.92854091601876       -0.66461478797422        0.92258425445011
C            5.36978785501099       -1.38400795238943        2.06935489282271
C            4.60248369914113       -2.53504561530098        1.89533229957261
C            4.10598156416731       -3.20834288392559        2.99478014771010
C            4.36575105765518       -2.74396631552620        4.27437945259636
C            5.14313927152926       -1.61120964473182        4.45418119633980
C            5.65031982335253       -0.93800138898213        3.35951952190186
C            5.21958967249759       -0.51956762952926       -0.32421379803501
C            3.78454021692290       -0.77165201698961       -0.44694100540606
C            3.28718903293372       -1.36149868613605       -1.60840908011389
C            1.93567413766905       -1.59603273908777       -1.75141181056749
C            1.05289929733547       -1.21451083056556       -0.74284336403064
N           -0.31754209649059       -1.45781960165300       -0.87304852801732
C           -0.84774997768873       -2.73241314549797       -0.95969379901676
C           -0.18408737309948       -3.92753035241716       -1.18733707231539
C           -0.92091313923626       -5.09496741659120       -1.15661451604926
C           -2.28054665379055       -5.06810455479651       -0.86542864099683
C           -2.93881281053294       -3.88116211646719       -0.61319031284284
C           -2.23456173453834       -2.68234521234500       -0.68583597955566
C           -2.54969922012012       -1.29801542147654       -0.43990580654503
C           -3.69901066906162       -0.59067901459054       -0.04974040329711
C           -3.61326113985074        0.75425801880251        0.38314733477613
C           -4.88993757526186        1.07988144163000        0.95924619452502
C           -5.39048469519915        2.14994545264862        1.69608778558653
C           -6.71397200741130        2.13365756237434        2.08628859129400
C           -7.55150745488667        1.07244466225778        1.75570271207033
C           -7.06512396193738       -0.03189199440846        1.08426848705857
C           -5.72517152634649       -0.03804976557798        0.72828567968279
N           -4.99286152147051       -1.03733610989761        0.11644144500792
C           -5.58203551801357       -2.14398121740942       -0.51412516357562
C           -5.38747646348760       -2.34517255982322       -1.87801211740558
C           -5.98759736602063       -3.41853545069453       -2.50836192811813
C           -6.79266000146226       -4.28803484673943       -1.79067776239242
C           -6.99005822198454       -4.08656723715743       -0.43462969665981
C           -6.38687701810386       -3.02016979136702        0.20774521812537
C           -2.43334775285881        1.46321216714914        0.11154613275924
C           -1.28485541847725        0.80974089057629       -0.39403797234696
C           -0.30509969737766        1.83313202083830       -0.64425915618335
C            0.94252148416132        1.87505426272452       -1.26225977287676
C            1.59722238856910        3.08443829173222       -1.37659987335118
C            1.02203121040871        4.26603278700926       -0.91857625854779
C           -0.23919311808171        4.26593894434514       -0.35736988110088
C           -0.89140078131255        3.04974658981499       -0.22420550513168
N           -2.17213957900378        2.80897089358970        0.23438046432054
C           -3.11434814486995        3.84170621714482        0.38732577361123
C           -4.22159870160958        3.90232296738535       -0.45284893185241
C           -5.13138643588565        4.93383690733729       -0.31792363645161
C           -4.93768903967830        5.91337818322643        0.64202631838136
C           -3.82979803123896        5.85946856378175        1.47136764422419
C           -2.91699105904899        4.82727077984641        1.34836265792420
C           -1.33498791564559       -0.58364542673649       -0.55112091891510
C            1.54435245703854       -0.60430212189881        0.41099602779196
C            2.89670895796234       -0.38756854158363        0.55839181125108
N            5.84925587086175       -0.12169984493539       -1.40200477719407
C            7.13076069024336        0.27601945770751       -1.29809462997692
C            7.83489130087238        0.69192888690047       -2.44121239799173
C            9.10409005088046        1.20785528924326       -2.30806990048603
C            9.81960931784988        1.63915647415105       -3.45052875344479
N           10.38775131760648        1.98239690638898       -4.38414664710978
H            9.49329022301680        0.95965775277141        1.08098477168242
H            4.41469926359281       -2.91416698553492        0.90157410316536
H            3.51511948013395       -4.10093556227704        2.85276231010511
H            3.96931281425433       -3.26983806214786        5.13003273042925
H            5.35664922751286       -1.25443273306796        5.45075883995109
H            6.26033961422222       -0.05659682502152        3.48441363064954
H            3.97737586822052       -1.63349796408573       -2.39208597078787
H            1.55061883949134       -2.04208687524965       -2.65608888226085
H            0.88045234766567       -3.95067270979452       -1.36399038450498
H           -0.43099396415336       -6.03973036526819       -1.33889869176082
H           -2.83089452094147       -5.99603246917187       -0.81900837171179
H           -3.97946441761967       -3.90343259926173       -0.34312086575804
H           -4.75813604663061        2.97164768761081        1.98652815273977
H           -7.10752299571372        2.96181522845697        2.65666594978845
H           -8.59048944809596        1.10157442445913        2.04830130928324
H           -7.71067936398241       -0.86379683727600        0.84787644569343
H           -4.75963155480746       -1.66177927760276       -2.42979935148854
H           -5.83071313140940       -3.57401301352381       -3.56514133632103
H           -7.26298819640855       -5.12366908750308       -2.28638788091359
H           -7.61013071276163       -4.76782102413066        0.12910937543102
H           -6.51335010162319       -2.87570855603106        1.27025810068680
H            1.39132615120512        0.99065845749006       -1.68024245137311
H            2.56861296481429        3.11549654946658       -1.84758818017940
H            1.55633486023481        5.19781208668200       -1.02880762390505
H           -0.71153214599867        5.18732886998787       -0.05237939815607
H           -4.36222650469269        3.13764820656523       -1.20173187336285
H           -5.99259028556966        4.97522116448513       -0.96755939257638
H           -5.64931542188243        6.71864861521228        0.74411111161283
H           -3.67775267328898        6.62088234978429        2.22208300192956
H           -2.06039997660948        4.76823498342440        2.00366196081292
H            0.85547926463902       -0.30027860815980        1.18383903997123
H            3.26617687060510        0.09948814884672        1.44821556586621
H            7.35972190692330        0.61841796525435       -3.40741310821457

          :  Hamiltonian                  GFN2-xTB          :
         :: gradient norm              0.000079891803 Eh/a0 ::
         :: HOMO-LUMO gap              0.879880565633 eV    ::
         :: SCC energy              -164.592839598160 Eh    ::
         :: -> dispersion             -0.158540081217 Eh    ::
         :: repulsion energy           3.066567179093 Eh    ::

    * Orbital Energies and Occupations

         #    Occupation            Energy/Eh            Energy/eV
      -------------------------------------------------------------
         1        2.0000           -0.7006063             -19.0645
       ...           ...                  ...                  ...
       138        2.0000           -0.4182001             -11.3798
       139        2.0000           -0.4170268             -11.3479
       140        2.0000           -0.4151608             -11.2971
       141        2.0000           -0.4098265             -11.1519
       142        2.0000           -0.4077585             -11.0957
       143        2.0000           -0.4069598             -11.0739
       144        2.0000           -0.3962945             -10.7837
       145        2.0000           -0.3930778             -10.6962
       146        2.0000           -0.3922961             -10.6749
       147        2.0000           -0.3752841             -10.2120
       148        2.0000           -0.3730318             -10.1507
       149        2.0000           -0.3552135              -9.6659
       150        2.0000           -0.3543282              -9.6418 (HOMO)
       151                         -0.3219931              -8.7619 (LUMO)
       152                         -0.3029174              -8.2428
       153                         -0.2676616              -7.2834
       154                         -0.2563881              -6.9767
       155                         -0.2487685              -6.7693
       156                         -0.2473199              -6.7299
       157                         -0.2468996              -6.7185
       158                         -0.2398632              -6.5270
       159                         -0.2368551              -6.4452
       160                         -0.2362749              -6.4294
       161                         -0.2355157              -6.4087
       ...                                ...                  ...
       293                          1.1775842              32.0437
      -------------------------------------------------------------
                  HL-Gap            0.0323350 Eh            0.8799 eV

     #   Z          covCN         q      C6AA      α(0)
     1   7 N        0.911    -0.210    25.581     7.315
     2   6 C        1.911     0.115    28.267     8.586
     3   6 C        2.975     0.025    27.440     8.593
     4   6 C        2.926    -0.028    28.704     8.786
     5   6 C        2.963     0.083    26.145     8.387
     6   7 N        1.852    -0.228    26.827     7.677
     7   6 C        2.951     0.093    25.928     8.352
     8   6 C        2.982     0.007    27.858     8.658
     9   6 C        2.923    -0.028    28.703     8.786
    10   6 C        2.919    -0.026    28.663     8.779
    11   6 C        2.920    -0.024    28.607     8.771
    12   6 C        2.918    -0.026    28.644     8.777
    13   6 C        2.925    -0.024    28.601     8.770
    14   6 C        2.951     0.094    25.916     8.350
    15   6 C        2.982     0.004    27.933     8.670
    16   6 C        2.924    -0.025    28.620     8.773
    17   6 C        2.920    -0.040    29.001     8.831
    18   6 C        2.917     0.075    26.329     8.414
    19   7 N        2.802    -0.041    22.031     6.971
    20   6 C        3.080     0.043    26.951     8.511
    21   6 C        2.911    -0.052    29.295     8.875
    22   6 C        2.923    -0.036    28.885     8.814
    23   6 C        2.919    -0.041    29.009     8.832
    24   6 C        2.915    -0.041    29.010     8.832
    25   6 C        3.060    -0.014    28.293     8.723
    26   6 C        3.051    -0.047    29.103     8.848
    27   6 C        3.065     0.042    27.006     8.522
    28   6 C        3.056    -0.047    29.107     8.848
    29   6 C        3.062    -0.015    28.332     8.729
    30   6 C        2.914    -0.039    28.971     8.826
    31   6 C        2.920    -0.041    29.027     8.835
    32   6 C        2.924    -0.036    28.884     8.813
    33   6 C        2.911    -0.052    29.291     8.875
    34   6 C        3.082     0.044    26.926     8.507
    35   7 N        2.803    -0.043    22.070     6.977
    36   6 C        2.916     0.069    26.452     8.434
    37   6 C        2.922    -0.037    28.932     8.821
    38   6 C        2.920    -0.026    28.651     8.778
    39   6 C        2.919    -0.032    28.794     8.800
    40   6 C        2.920    -0.028    28.701     8.785
    41   6 C        2.921    -0.042    29.037     8.837
    42   6 C        3.065     0.042    26.988     8.519
    43   6 C        3.056    -0.049    29.160     8.856
    44   6 C        3.059    -0.016    28.361     8.733
    45   6 C        2.914    -0.041    29.017     8.833
    46   6 C        2.919    -0.041    29.028     8.835
    47   6 C        2.924    -0.035    28.881     8.813
    48   6 C        2.911    -0.052    29.282     8.873
    49   6 C        3.087     0.044    26.918     8.505
    50   7 N        2.803    -0.044    22.097     6.982
    51   6 C        2.918     0.069    26.452     8.434
    52   6 C        2.922    -0.036    28.885     8.814
    53   6 C        2.920    -0.025    28.638     8.776
    54   6 C        2.920    -0.031    28.774     8.796
    55   6 C        2.920    -0.028    28.699     8.785
    56   6 C        2.922    -0.041    29.015     8.833
    57   6 C        3.064     0.040    27.040     8.527
    58   6 C        2.921    -0.036    28.892     8.815
    59   6 C        2.922    -0.026    28.646     8.777
    60   7 N        1.852    -0.229    26.851     7.680
    61   6 C        2.963     0.083    26.138     8.386
    62   6 C        2.926    -0.028    28.708     8.787
    63   6 C        2.975     0.025    27.436     8.592
    64   6 C        1.911     0.115    28.265     8.586
    65   7 N        0.911    -0.210    25.576     7.314
    66   1 H        0.926     0.066     2.126     2.280
    67   1 H        0.926     0.031     2.568     2.506
    68   1 H        0.926     0.038     2.471     2.458
    69   1 H        0.926     0.040     2.451     2.448
    70   1 H        0.926     0.041     2.436     2.441
    71   1 H        0.926     0.051     2.306     2.375
    72   1 H        0.926     0.054     2.267     2.355
    73   1 H        0.926     0.050     2.322     2.383
    74   1 H        0.926     0.025     2.656     2.549
    75   1 H        0.926     0.028     2.614     2.528
    76   1 H        0.926     0.026     2.641     2.541
    77   1 H        0.926     0.030     2.588     2.516
    78   1 H        0.926     0.027     2.633     2.538
    79   1 H        0.926     0.025     2.658     2.549
    80   1 H        0.926     0.028     2.618     2.530
    81   1 H        0.926     0.028     2.619     2.530
    82   1 H        0.926     0.039     2.461     2.453
    83   1 H        0.926     0.037     2.485     2.465
    84   1 H        0.926     0.036     2.503     2.474
    85   1 H        0.926     0.036     2.497     2.471
    86   1 H        0.926     0.042     2.424     2.435
    87   1 H        0.926     0.025     2.661     2.551
    88   1 H        0.926     0.025     2.663     2.552
    89   1 H        0.926     0.028     2.616     2.529
    90   1 H        0.926     0.027     2.627     2.534
    91   1 H        0.926     0.039     2.465     2.455
    92   1 H        0.926     0.038     2.481     2.463
    93   1 H        0.926     0.037     2.494     2.470
    94   1 H        0.926     0.037     2.491     2.468
    95   1 H        0.926     0.041     2.440     2.443
    96   1 H        0.926     0.046     2.365     2.405
    97   1 H        0.926     0.037     2.491     2.468
    98   1 H        0.926     0.066     2.125     2.279

molecular dipole:
                 x           y           z       tot (Debye)
 q only:       -3.015      -1.048       1.189
   full:       -3.656      -1.342       1.488      10.597

 projected vibrational frequencies (cm⁻¹)
eigval :       -0.00    -0.00    -0.00     0.00     0.00     0.00
eigval :        8.15     9.06    12.03    22.44    24.13    27.26
eigval :       31.38    38.75    45.73    50.76    51.78    53.75
eigval :       60.56    69.70    71.41    79.82    83.32    91.24
eigval :       94.92    97.82   104.78   111.55   116.35   126.48
eigval :      137.58   147.04   156.90   165.34   174.58   184.57
eigval :      197.97   206.35   211.36   222.72   227.17   234.35
eigval :      237.69   246.40   255.10   273.66   276.55   289.71
eigval :      299.05   302.21   315.20   338.14   350.37   359.20
eigval :      372.30   378.29   378.91   380.16   381.16   382.15
eigval :      388.77   391.54   400.70   409.41   413.74   423.04
eigval :      426.31   440.12   445.23   447.60   451.58   464.83
eigval :      470.26   480.11   486.73   503.00   521.82   537.20
eigval :      539.21   542.32   544.58   549.09   555.66   560.87
eigval :      574.53   581.28   581.82   586.36   591.02   593.59
eigval :      594.27   606.33   608.96   612.93   625.21   628.20
eigval :      636.30   649.80   651.35   655.20   668.05   668.54
eigval :      670.20   674.91   681.72   694.72   697.77   698.59
eigval :      702.73   709.38   729.26   730.28   739.73   748.52
eigval :      753.07   759.95   765.02   767.62   772.57   773.89
eigval :      775.04   776.86   820.03   845.11   846.87   850.24
eigval :      860.10   864.78   868.97   869.06   869.78   873.33
eigval :      875.13   875.93   878.76   879.99   899.54   900.37
eigval :      901.55   904.90   905.33   908.40   912.69   913.52
eigval :      917.97   920.91   923.03   923.68   928.69   928.75
eigval :      928.81   929.07   930.71   932.96   933.32   935.04
eigval :      954.10   986.74   989.46   996.66  1013.47  1026.59
eigval :     1078.59  1079.18  1079.30  1080.28  1081.17  1085.29
eigval :     1091.54  1092.30  1094.58  1116.52  1117.16  1118.09
eigval :     1122.26  1132.97  1144.20  1148.65  1149.14  1169.80
eigval :     1178.97  1179.24  1180.81  1180.91  1180.97  1183.52
eigval :     1185.34  1188.98  1190.35  1190.94  1196.09  1210.62
eigval :     1215.23  1216.01  1247.79  1251.65  1252.48  1259.45
eigval :     1263.83  1265.77  1273.06  1274.29  1275.21  1280.09
eigval :     1293.57  1296.34  1298.63  1315.38  1316.03  1318.36
eigval :     1321.95  1327.79  1331.19  1337.01  1342.04  1361.79
eigval :     1366.47  1367.20  1383.75  1390.51  1395.79  1396.33
eigval :     1401.39  1408.29  1424.04  1429.34  1431.93  1434.07
eigval :     1435.54  1437.37  1439.46  1440.31  1453.42  1474.06
eigval :     1475.12  1476.20  1481.18  1481.45  1484.16  1493.32
eigval :     1508.26  1514.83  1555.28  1566.75  1569.30  1572.91
eigval :     1579.30  1580.85  1582.28  1584.68  1589.13  1590.14
eigval :     1592.36  1594.47  1595.01  1595.29  1601.91  1603.39
eigval :     1604.92  2375.36  2376.56  3077.91  3078.36  3078.51
eigval :     3079.18  3079.33  3080.34  3082.48  3083.58  3083.69
eigval :     3085.42  3085.64  3086.55  3088.33  3089.49  3090.11
eigval :     3091.32  3091.93  3094.88  3095.34  3095.51  3095.66
eigval :     3096.49  3096.74  3100.91  3101.01  3102.29  3102.33
eigval :     3102.65  3103.38  3103.81  3127.67  3136.51  3151.67

   temp. (K)  partition function   enthalpy   heat capacity  entropy
                                   cal/mol     cal/K/mol   cal/K/mol   J/K/mol
 298.15  VIB  0.277E+24            29826.515    186.862    186.744
         ROT  0.195E+09              888.752      2.981     40.914
         INT  0.541E+32            30715.267    189.843    227.658
         TR   0.230E+29             1481.254      4.968     45.998
         TOT                       32196.5209   194.8108   273.6561  1144.9771

       T/K    H(0)-H(T)+PV         H(T)/Eh          T*S/Eh         G(T)/Eh
   ------------------------------------------------------------------------
    298.15    0.513084E-01    0.779307E+00    0.130023E+00    0.649284E+00
   ------------------------------------------------------------------------

         :::::::::::::::::::::::::::::::::::::::::::::::::::::
         ::                  THERMODYNAMIC                  ::
         :::::::::::::::::::::::::::::::::::::::::::::::::::::
         :: total free energy        -160.876988450180 Eh   ::
         ::.................................................::
         :: total energy             -161.526272419066 Eh   ::
         :: zero point energy           0.727998382362 Eh   ::
         :: G(RRHO) w/o ZPVE           -0.078714413476 Eh   ::
         :: G(RRHO) contrib.            0.649283968886 Eh   ::
         :::::::::::::::::::::::::::::::::::::::::::::::::::::

           -------------------------------------------------
          | TOTAL ENERGY             -161.526272419066 Eh   |
          | TOTAL ENTHALPY           -160.746965614798 Eh   |
          | TOTAL FREE ENERGY        -160.876988450180 Eh   |
          | GRADIENT NORM               0.000079855636 Eh/α |
          | HOMO-LUMO GAP               0.879881297886 eV   |
           -------------------------------------------------

 * finished run on 2025/09/04 at 18:59:50.671
