   * xtb version 6.7.1 (edcfbbe) compiled by 'albert@albert-system' on 2024-07-22

   ID    Z sym.   atoms
    1    7 N      1, 6, 19, 35, 50, 60, 65
    2    6 C      2-5, 7-18, 20-34, 36-49, 51-59, 61-64
    3    1 H      66-98

          program call               : xtb data2507/gas/6,7-DCNQx-DICz/6,7-DCNQx-DICz_gas_S0_finalOpt.xtbopt.xyz --gfn 2 --spinpol --tblite --uhf 2 --ohess vtight --parallel 40 --molden --ceasefiles --namespace data2507/gas/6,7-DCNQx-DICz/6,7-DCNQx-DICz_gas_T1_preOpt
 * total energy  :  -161.4775479 Eh     change       -0.3621045E-07 Eh
 * total energy  :  -161.4807901 Eh     change       -0.3242255E-02 Eh
 * total energy  :  -161.4815041 Eh     change       -0.7139939E-03 Eh
 * total energy  :  -161.4812495 Eh     change        0.2546670E-03 Eh
 * total energy  :  -161.4819361 Eh     change       -0.6866704E-03 Eh
 * total energy  :  -161.4817855 Eh     change        0.1506148E-03 Eh
 * total energy  :  -161.4820140 Eh     change       -0.2284374E-03 Eh
 * total energy  :  -161.4820414 Eh     change       -0.2742844E-04 Eh
 * total energy  :  -161.4821233 Eh     change       -0.8190031E-04 Eh
 * total energy  :  -161.4821609 Eh     change       -0.3758389E-04 Eh
 * total energy  :  -161.4823377 Eh     change       -0.2605035E-06 Eh
 * total energy  :  -161.4823380 Eh     change       -0.2985414E-06 Eh
 * total energy  :  -161.4823382 Eh     change       -0.2323155E-06 Eh
 * total energy  :  -161.4823384 Eh     change       -0.1978084E-06 Eh
 * total energy  :  -161.4823386 Eh     change       -0.1773358E-06 Eh
 * total energy  :  -161.4823388 Eh     change       -0.1814442E-06 Eh
 * total energy  :  -161.4823389 Eh     change       -0.1584639E-06 Eh
 * total energy  :  -161.4823391 Eh     change       -0.1511681E-06 Eh
 * total energy  :  -161.4823392 Eh     change       -0.9664458E-07 Eh
   *** GEOMETRY OPTIMIZATION CONVERGED AFTER 63 ITERATIONS ***

 final structure:
================
98
 xtb: 6.7.1 (edcfbbe)
N           11.60153356522242        2.01695972643079        0.16694451568988
C           10.47628576257521        1.79512794718626        0.19712228377052
C            9.09780628817198        1.49956308529985        0.23027242155006
C            8.66937723556575        0.17742713832718        0.11145093258741
C            7.31414048677133       -0.13745953124441        0.14208442600613
N            6.86593172521611       -1.38658177992901        0.06391538740178
C            5.57185237950836       -1.68455144793610        0.09385521732280
C            5.19603100805957       -3.09909477523481        0.11247985864278
C            5.90378944234583       -4.00235283053940       -0.67953708060672
C            5.57467963622607       -5.34428200575919       -0.66981397841853
C            4.54507595902084       -5.80403567560342        0.13479523818462
C            3.85636224803373       -4.91573520018934        0.94591042673186
C            4.17907170058992       -3.57279699237042        0.94108913185882
C            4.62840092070791       -0.63926579954668        0.14226066421396
C            3.19003700471968       -0.86757393552413        0.03424207654866
C            2.66855552150226       -1.75804653741105       -0.90561859986337
C            1.30739197807394       -1.95371987284154       -0.99985363923812
C            0.44234086813441       -1.25811575334027       -0.15864170241413
N           -0.93962480082063       -1.49489186020210       -0.22335627469413
C           -1.49025865789179       -2.71528833719262        0.11806790240400
C           -0.84065816355003       -3.91967774525051        0.33997161942843
C           -1.60038848434358       -4.99508593712700        0.75631980998643
C           -2.96595376169707       -4.85591834920287        0.98626164482032
C           -3.61145091157534       -3.65258683149188        0.78397650602588
C           -2.88400381526928       -2.56448232214350        0.30782113506471
C           -3.17870217670507       -1.18339677032695        0.03401439427386
C           -4.34019556381499       -0.39616202768008        0.00952336715280
C           -4.27196076787425        1.01854659730488       -0.06494952411509
C           -5.63030173423963        1.49324834374901       -0.05373642873568
C           -6.24380534662937        2.73394947780905       -0.21119367697656
C           -7.62183404247150        2.81022076139964       -0.20670261175564
C           -8.41138810208522        1.67118931060504       -0.08076085956947
C           -7.83442636190291        0.42179526803408        0.02923027095969
C           -6.45035796805621        0.34419291839086        0.04774495736193
N           -5.65603334607743       -0.78465616276693        0.08743116599763
C           -6.16548701674048       -2.07500407525551       -0.13947073144035
C           -5.75786763935796       -2.79202145081106       -1.26019877314140
C           -6.27742456695791       -4.05058808472259       -1.49682167436146
C           -7.21073939770706       -4.59441594957536       -0.62949976841985
C           -7.62294101871014       -3.87728283702114        0.48142280791580
C           -7.10361561595597       -2.61953933069239        0.73131698879155
C           -3.01040909909277        1.61414846528697       -0.22680140260257
C           -1.86155980284748        0.82566382736209       -0.48903495752572
C           -0.81899470045031        1.73829677540153       -0.87159462446997
C            0.46081626610918        1.60213207471008       -1.40428295479422
C            1.21579817634814        2.73510012694491       -1.62992133789642
C            0.72060700283556        4.00322803123422       -1.33929496584662
C           -0.57095673799323        4.17248767550063       -0.87981561659635
C           -1.34590739921319        3.03876689833316       -0.68885396533364
N           -2.66836155564942        2.94543587939959       -0.29885152826159
C           -3.38944360036642        4.02504170997513        0.23655267158850
C           -3.56910988506056        5.18870245184559       -0.50481179203551
C           -4.25117827762573        6.25694073636607        0.04980407574674
C           -4.75762847683802        6.17072309121154        1.33613652973582
C           -4.58150796389670        5.01048513551984        2.07243953541619
C           -3.89493334997761        3.94038682387221        1.53086420057989
C           -1.94176097372634       -0.55510144159270       -0.25460968330197
C            0.95493933686914       -0.35635741846576        0.77019774523513
C            2.31608076738716       -0.15550967452458        0.85598664054046
N            5.05349996126420        0.61538834108615        0.26782316979385
C            6.34396895998647        0.92980289230561        0.28651035419488
C            6.79421000972713        2.24165890615811        0.41169494238761
C            8.15729485523828        2.53375379722573        0.38594353991692
C            8.58854282086583        3.87072829612811        0.51179942056642
N            8.91906211684785        4.96447601711224        0.61529587624096
H            9.38811599986935       -0.61987001956410        0.00500294411598
H            6.70538692860526       -3.63701504852628       -1.30353788715696
H            6.12454851021364       -6.03485172349464       -1.29203795943336
H            4.28658403647220       -6.85238664575326        0.13854640615815
H            3.06762017939535       -5.27289469925578        1.59191266260022
H            3.65351455133826       -2.89019729931410        1.59250885739478
H            3.33285735816315       -2.28352823863687       -1.57481183981156
H            0.90267087438408       -2.62695275191571       -1.74072000092314
H            0.22739852812214       -4.00931646887955        0.21082587129249
H           -1.12432942969303       -5.94829159446610        0.93008606076259
H           -3.53070132714003       -5.70268879256464        1.34649014898782
H           -4.65710649310850       -3.56544717504508        1.02241895839193
H           -5.66682844042958        3.62951514961050       -0.35759643399621
H           -8.09643199879624        3.77342055754982       -0.31955320182446
H           -9.48697952413863        1.76257493193323       -0.09120936662584
H           -8.44315157531554       -0.46790124030998        0.07849116126538
H           -5.03396863181917       -2.35821161814766       -1.93333885580608
H           -5.95639869184709       -4.60668092870777       -2.36453527814052
H           -7.61619883132339       -5.57672479369356       -0.81834102431258
H           -8.34713082930518       -4.30081630267243        1.16130446651724
H           -7.40290665014482       -2.06474218839436        1.60820232892782
H            0.85687352783765        0.63600540450766       -1.66673363630068
H            2.21101634188867        2.63463140552676       -2.03558010350935
H            1.34577889001059        4.86878823689484       -1.49766918296668
H           -0.96192877798239        5.15775266116859       -0.67818107423014
H           -3.19755583972761        5.23946115641057       -1.51726411638855
H           -4.39391399040088        7.15727731163746       -0.52894244518231
H           -5.29134616874989        7.00607298841989        1.76301858456318
H           -4.97562618934411        4.94054352903760        3.07495710343826
H           -3.75069931233814        3.03315900604529        2.09816864674715
H            0.28046461425415        0.18222416582971        1.41826476342284
H            2.71920733618914        0.54472675632210        1.57096022057376
H            6.06917765405363        3.03313565380104        0.51935787457222

 projected vibrational frequencies (cm⁻¹)
eigval :       -0.00    -0.00    -0.00     0.00     0.00     0.00
eigval :        5.93     8.34    12.22    23.80    27.11    28.44
eigval :       31.01    38.20    42.67    48.52    52.70    55.18
eigval :       61.26    69.73    70.17    77.70    83.11    89.94
eigval :       97.03   100.50   103.39   110.11   117.51   122.78
eigval :      135.56   149.28   158.45   164.54   170.77   185.89
eigval :      194.60   201.47   217.23   221.80   228.36   228.90
eigval :      239.38   240.63   253.17   268.90   274.44   279.69
eigval :      292.55   301.62   306.46   335.84   351.69   354.77
eigval :      373.51   377.34   378.28   379.49   382.55   386.03
eigval :      389.72   389.95   399.72   407.02   408.80   418.91
eigval :      422.26   434.71   442.63   447.09   451.01   459.98
eigval :      473.22   477.51   487.92   511.92   521.03   533.46
eigval :      535.75   539.49   542.38   543.33   555.41   556.55
eigval :      574.05   581.17   582.77   584.97   591.32   593.78
eigval :      593.99   601.91   605.40   606.63   622.16   624.43
eigval :      631.41   638.51   641.73   648.70   650.89   666.82
eigval :      669.18   670.50   674.97   678.59   684.38   698.37
eigval :      699.43   702.46   704.32   712.66   729.50   731.37
eigval :      746.00   754.87   759.56   764.66   767.88   772.17
eigval :      774.78   776.80   801.64   810.90   816.64   842.73
eigval :      844.18   859.38   866.22   866.35   868.06   870.44
eigval :      873.45   875.83   878.86   880.32   899.85   901.68
eigval :      901.79   904.15   905.41   907.89   910.02   911.16
eigval :      914.93   921.15   921.82   923.92   925.22   927.95
eigval :      929.22   929.34   929.71   932.15   934.17   935.31
eigval :      944.41   986.19   986.65   994.98  1009.89  1021.79
eigval :     1077.17  1078.47  1078.93  1079.42  1081.29  1084.21
eigval :     1089.61  1090.40  1105.02  1115.68  1116.62  1117.08
eigval :     1121.20  1132.82  1137.60  1142.60  1142.93  1170.88
eigval :     1173.65  1180.63  1180.66  1180.76  1182.67  1183.18
eigval :     1185.19  1187.13  1189.35  1189.74  1196.77  1206.34
eigval :     1209.94  1211.32  1224.00  1227.57  1228.68  1244.27
eigval :     1261.01  1264.49  1266.03  1268.09  1272.08  1278.14
eigval :     1278.83  1279.59  1286.05  1294.46  1305.44  1314.67
eigval :     1315.22  1315.57  1319.49  1320.82  1323.64  1329.04
eigval :     1340.31  1343.10  1357.42  1360.24  1380.75  1381.61
eigval :     1385.99  1394.17  1405.32  1409.20  1417.05  1420.33
eigval :     1424.86  1430.01  1435.37  1435.95  1440.20  1460.67
eigval :     1468.61  1468.77  1473.57  1478.78  1479.90  1481.94
eigval :     1486.93  1490.63  1500.16  1523.48  1527.50  1552.01
eigval :     1573.93  1579.68  1580.27  1581.95  1582.85  1583.21
eigval :     1585.47  1589.39  1592.28  1593.09  1595.60  1596.48
eigval :     1598.08  2355.68  2361.54  3075.41  3079.98  3080.87
eigval :     3081.75  3082.32  3083.17  3084.86  3085.42  3085.45
eigval :     3086.13  3087.05  3087.68  3089.39  3091.67  3092.05
eigval :     3092.41  3093.11  3093.20  3096.32  3096.89  3097.04
eigval :     3097.78  3098.52  3098.95  3100.68  3102.37  3102.61
eigval :     3102.67  3103.43  3104.69  3128.50  3139.64  3151.70

   temp. (K)  partition function   enthalpy   heat capacity  entropy
                                   cal/mol     cal/K/mol   cal/K/mol   J/K/mol
 298.15  VIB  0.447E+24            29998.116    188.011    187.979
         ROT  0.199E+09              888.752      2.981     40.954
         INT  0.889E+32            30886.868    190.992    228.933
         TR   0.230E+29             1481.254      4.968     45.998
         TOT                       32368.1221   195.9602   274.9309  1150.3110

       T/K    H(0)-H(T)+PV         H(T)/Eh          T*S/Eh         G(T)/Eh
   ------------------------------------------------------------------------
    298.15    0.515819E-01    0.776389E+00    0.130629E+00    0.645761E+00
   ------------------------------------------------------------------------

         :::::::::::::::::::::::::::::::::::::::::::::::::::::
         ::                  THERMODYNAMIC                  ::
         :::::::::::::::::::::::::::::::::::::::::::::::::::::
         :: total free energy        -160.836578298632 Eh   ::
         ::.................................................::
         :: total energy             -161.482339216645 Eh   ::
         :: zero point energy           0.724807588068 Eh   ::
         :: G(RRHO) w/o ZPVE           -0.079046670055 Eh   ::
         :: G(RRHO) contrib.            0.645760918013 Eh   ::
         :::::::::::::::::::::::::::::::::::::::::::::::::::::

           -------------------------------------------------
          | TOTAL ENERGY             -161.482339216645 Eh   |
          | TOTAL ENTHALPY           -160.705949742657 Eh   |
          | TOTAL FREE ENERGY        -160.836578298632 Eh   |
          | GRADIENT NORM               0.000052668525 Eh/α |
           -------------------------------------------------

 * finished run on 2025/09/04 at 19:07:48.746
