   * xtb version 6.7.1 (edcfbbe) compiled by 'albert@albert-system' on 2024-07-22

   ID    Z sym.   atoms
    1    6 C      1-9, 11-20, 22-46
    2    7 N      10, 21
    3    1 H      47-82

          program call               : xtb data2507/gas/DPE-DDMAc/DPE-DDMAc_gas_S0_crest.xyz --gfn 2 --ohess vtight --parallel 40 --molden --ceasefiles --namespace data2507/gas/DPE-DDMAc/DPE-DDMAc_gas_S0_finalOpt
          :  Hamiltonian                  GFN2-xTB          :
 * total energy  :  -118.4297741 Eh     change       -0.6045042E-08 Eh
 * total energy  :  -118.4297755 Eh     change       -0.1408086E-05 Eh
 * total energy  :  -118.4297769 Eh     change       -0.1470298E-05 Eh
 * total energy  :  -118.4297808 Eh     change       -0.3891686E-05 Eh
 * total energy  :  -118.4297823 Eh     change       -0.1501690E-05 Eh
 * total energy  :  -118.4297834 Eh     change       -0.1025317E-05 Eh
 * total energy  :  -118.4297847 Eh     change       -0.1366307E-05 Eh
 * total energy  :  -118.4297863 Eh     change       -0.1525558E-05 Eh
 * total energy  :  -118.4297875 Eh     change       -0.1239664E-05 Eh
 * total energy  :  -118.4297885 Eh     change       -0.1016055E-05 Eh
 * total energy  :  -118.4298022 Eh     change       -0.2820706E-06 Eh
 * total energy  :  -118.4298025 Eh     change       -0.3562918E-06 Eh
 * total energy  :  -118.4298028 Eh     change       -0.3129396E-06 Eh
 * total energy  :  -118.4298031 Eh     change       -0.2705025E-06 Eh
 * total energy  :  -118.4298033 Eh     change       -0.2286581E-06 Eh
 * total energy  :  -118.4298035 Eh     change       -0.1601139E-06 Eh
 * total energy  :  -118.4298036 Eh     change       -0.1208485E-06 Eh
 * total energy  :  -118.4298037 Eh     change       -0.1302110E-06 Eh
 * total energy  :  -118.4298038 Eh     change       -0.7679378E-07 Eh
   *** GEOMETRY OPTIMIZATION CONVERGED AFTER 34 ITERATIONS ***

 final structure:
================
82
 xtb: 6.7.1 (edcfbbe)
C          -10.02311451878535       -0.00196680661954        1.22700329349525
C           -9.13356599967725        0.02151782574765       -0.02941784581464
C          -10.00448127153342        0.05851238218224       -1.29851767671390
C           -8.27504836525787        1.27169738764831        0.00452857469769
C           -8.88434249821309        2.51866359876965        0.02376311367753
C           -8.15472865438385        3.69298812030739        0.03646178479127
C           -6.77330431016372        3.63033204100491        0.01884276525070
C           -6.14177094711985        2.40478448349633        0.00038759048884
C           -6.87733502134895        1.21587741718953        0.00517553190494
N           -6.21422073277338       -0.00086597033649       -0.00711453323857
C           -4.79357897190518       -0.01106217504635        0.00012613493765
C           -4.10141996339841        0.19310292274131        1.18957749735950
C           -2.72190048425908        0.18889288704464        1.19784502776175
C           -2.01364481619526       -0.02349482859236        0.01249924365152
C           -0.60359755092787       -0.02556005238133        0.01679473318600
C            0.60432253980596       -0.02398339545921        0.01787544338552
C            2.01440579772682       -0.02000128553693        0.01634606150250
C            2.71964999758803        0.22969991949354        1.19620655438912
C            4.09922160727911        0.23515943143337        1.19093503963807
C            4.79398089249953       -0.00618976629125        0.01013530964429
N            6.21505929773016        0.00268025371674        0.00632023668871
C            6.87906267214045        1.21711194016388       -0.05438444447704
C            6.14404895062525        2.40386946878499       -0.13061210634331
C            6.77648283899538        3.62781570908050       -0.18684589746406
C            8.15797272095221        3.69033402942183       -0.17291463993450
C            8.88693178358595        2.51703681204197       -0.11219909690645
C            8.27682533457849        1.27166100615890       -0.05543301507440
C            9.13405617515694        0.02093202614967       -0.00842517633193
C           10.02001127120251        0.07540381649194        1.24956075716162
C           10.00868269936061       -0.02251300053973       -1.27475809943953
C            8.29304918542840       -1.24044029428011        0.04648162806602
C            8.91913598731871       -2.47815037678295        0.09643129231450
C            8.20544337982292       -3.66047099853285        0.16329633078846
C            6.82347395986652       -3.61519828627412        0.19073232423818
C            6.17534122723616       -2.39918369430826        0.14172988853809
C            6.89477763865976       -1.20334410601323        0.05918986409319
C            4.09641344233404       -0.25550615449880       -1.16735048024176
C            2.71690717461285       -0.26378484931820       -1.16643469860959
C           -2.71333939436839       -0.23149856364421       -1.17878120318514
C           -4.09277824242797       -0.22332181100628       -1.18284566207483
C           -6.89562439117824       -1.20719003903681       -0.03044243235014
C           -6.17831985559012       -2.40709842399936       -0.01532584295504
C           -6.82807994550731       -3.62287802704022       -0.04439022251998
C           -8.20989230933852       -3.66444443139689       -0.08305161225767
C           -8.92171381427931       -2.47917623986237       -0.08038757465862
C           -8.29387441917468       -1.24165244263059       -0.05103520556839
H          -10.65089863310065        0.88353471534114        1.27487837031129
H           -9.40116634037566       -0.03061278881054        2.11987903448186
H          -10.66769572096771       -0.87660005706828        1.23043039172201
H          -10.63548227470216        0.94290568829338       -1.31116138032548
H          -10.64504214815985       -0.81723479131475       -1.35557348398105
H           -9.36936496221970        0.07754222065938       -2.18233340563029
H           -9.96208283323781        2.58242654715948        0.02748864781345
H           -8.66130224489762        4.64593388162809        0.05342814617951
H           -6.18321357152974        4.53477697630689        0.01710767423398
H           -5.06340650091111        2.36493299529044       -0.02222321401437
H           -4.65597852660764        0.35793561398849        2.10167723859017
H           -2.18017756103667        0.34715644811849        2.11862233221621
H            2.17553072130932        0.41639771207747        2.11021884318121
H            4.65168896147251        0.42880270602330        2.09861341032285
H            5.06559682300203        2.36289248356330       -0.14941427501989
H            6.18716170872708        4.53098828407554       -0.24360255565582
H            8.66521772682067        4.64217486108361       -0.21447724865090
H            9.96471374849105        2.58035244253975       -0.11070273484716
H           10.66486634439064       -0.79704645210245        1.30866001271629
H            9.39552971436630        0.10152692573029        2.14074286916342
H           10.64736018387913        0.96249489362491        1.24457551587708
H            9.37616263928175       -0.05613921565357       -2.16000161392896
H           10.64220636941140        0.85777493034641       -1.33973030906631
H           10.64690184981200       -0.90182434561941       -1.27597459438765
H            9.99755930284710       -2.52803611898476        0.08444610372568
H            8.72488021515147       -4.60595079901731        0.19906484164295
H            6.24604341339704       -4.52570410820164        0.25233779045704
H            5.09669071667999       -2.37152001277892        0.17111253967359
H            4.64671084621004       -0.44351022345796       -2.07753102245770
H            2.17057221730202       -0.45571211461604       -2.07803493532562
H           -2.16477263646012       -0.39443027097851       -2.09467500445021
H           -4.64067002635751       -0.38293106768094       -2.09988858768126
H           -5.09992345292900       -2.38336045678449        0.02378266825842
H           -6.25200737593916       -4.53626291151943       -0.03430251923277
H           -8.73060735662067       -4.60955100635978       -0.10850752863184
H          -10.00012203259684       -2.52652812201582       -0.10050278776947

          :  Hamiltonian                  GFN2-xTB          :
         :: gradient norm              0.000046517971 Eh/a0 ::
         :: HOMO-LUMO gap              1.913775841379 eV    ::
         :: SCC energy              -120.671127526122 Eh    ::
         :: -> dispersion             -0.109817498976 Eh    ::
         :: repulsion energy           2.241323707498 Eh    ::

    * Orbital Energies and Occupations

         #    Occupation            Energy/Eh            Energy/eV
      -------------------------------------------------------------
         1        2.0000           -0.6685798             -18.1930
       ...           ...                  ...                  ...
        99        2.0000           -0.4074610             -11.0876
       100        2.0000           -0.4057128             -11.0400
       101        2.0000           -0.4040723             -10.9954
       102        2.0000           -0.4039063             -10.9908
       103        2.0000           -0.3998274             -10.8799
       104        2.0000           -0.3996784             -10.8758
       105        2.0000           -0.3945358             -10.7359
       106        2.0000           -0.3944130             -10.7325
       107        2.0000           -0.3893469             -10.5947
       108        2.0000           -0.3892031             -10.5908
       109        2.0000           -0.3840854             -10.4515
       110        2.0000           -0.3430077              -9.3337
       111        2.0000           -0.3427044              -9.3255 (HOMO)
       112                         -0.2723744              -7.4117 (LUMO)
       113                         -0.2371159              -6.4523
       114                         -0.2370396              -6.4502
       115                         -0.2260766              -6.1519
       116                         -0.2206040              -6.0029
       117                         -0.2204409              -5.9985
       118                         -0.2156418              -5.8679
       119                         -0.2154892              -5.8638
       120                         -0.2145714              -5.8388
       121                         -0.2144341              -5.8350
       122                         -0.1863177              -5.0700
       ...                                ...                  ...
       220                          1.4254810              38.7893
      -------------------------------------------------------------
                  HL-Gap            0.0703300 Eh            1.9138 eV

     #   Z          covCN         q      C6AA      α(0)
     1   6 C        3.761    -0.102    22.503     6.762
     2   6 C        3.909     0.022    20.155     6.381
     3   6 C        3.761    -0.102    22.503     6.762
     4   6 C        2.979    -0.015    28.373     8.737
     5   6 C        2.928    -0.036    28.903     8.817
     6   6 C        2.917    -0.045    29.121     8.849
     7   6 C        2.920    -0.033    28.829     8.805
     8   6 C        2.924    -0.059    29.472     8.903
     9   6 C        2.928     0.058    26.693     8.473
    10   7 N        2.754    -0.073    22.650     7.068
    11   6 C        2.928     0.070    26.428     8.431
    12   6 C        2.920    -0.037    28.919     8.819
    13   6 C        2.927    -0.029    28.714     8.788
    14   6 C        2.971     0.037    27.157     8.548
    15   6 C        1.982    -0.039    32.104     9.150
    16   6 C        1.982    -0.039    32.106     9.151
    17   6 C        2.971     0.038    27.154     8.547
    18   6 C        2.927    -0.029    28.714     8.788
    19   6 C        2.920    -0.037    28.917     8.818
    20   6 C        2.928     0.070    26.425     8.430
    21   7 N        2.755    -0.073    22.656     7.069
    22   6 C        2.928     0.058    26.692     8.473
    23   6 C        2.924    -0.059    29.472     8.903
    24   6 C        2.920    -0.033    28.829     8.805
    25   6 C        2.917    -0.045    29.123     8.850
    26   6 C        2.928    -0.036    28.903     8.817
    27   6 C        2.979    -0.015    28.374     8.738
    28   6 C        3.909     0.022    20.155     6.381
    29   6 C        3.761    -0.102    22.503     6.762
    30   6 C        3.761    -0.102    22.503     6.762
    31   6 C        2.979    -0.015    28.375     8.738
    32   6 C        2.928    -0.036    28.903     8.817
    33   6 C        2.917    -0.045    29.123     8.850
    34   6 C        2.920    -0.033    28.829     8.805
    35   6 C        2.924    -0.059    29.472     8.903
    36   6 C        2.928     0.058    26.692     8.473
    37   6 C        2.920    -0.037    28.916     8.818
    38   6 C        2.927    -0.029    28.714     8.788
    39   6 C        2.927    -0.029    28.714     8.788
    40   6 C        2.920    -0.037    28.919     8.819
    41   6 C        2.928     0.058    26.693     8.473
    42   6 C        2.924    -0.059    29.471     8.903
    43   6 C        2.920    -0.033    28.829     8.805
    44   6 C        2.917    -0.045    29.122     8.849
    45   6 C        2.928    -0.036    28.903     8.817
    46   6 C        2.979    -0.015    28.373     8.737
    47   1 H        0.925     0.039     2.468     2.457
    48   1 H        0.925     0.031     2.577     2.510
    49   1 H        0.925     0.039     2.469     2.457
    50   1 H        0.925     0.039     2.469     2.457
    51   1 H        0.925     0.039     2.468     2.457
    52   1 H        0.925     0.031     2.577     2.510
    53   1 H        0.926     0.029     2.604     2.523
    54   1 H        0.926     0.025     2.661     2.551
    55   1 H        0.926     0.026     2.646     2.544
    56   1 H        0.926     0.022     2.697     2.568
    57   1 H        0.926     0.041     2.438     2.442
    58   1 H        0.926     0.039     2.456     2.451
    59   1 H        0.926     0.039     2.456     2.451
    60   1 H        0.926     0.041     2.437     2.441
    61   1 H        0.926     0.022     2.701     2.570
    62   1 H        0.926     0.026     2.646     2.544
    63   1 H        0.926     0.025     2.662     2.551
    64   1 H        0.926     0.029     2.605     2.524
    65   1 H        0.925     0.038     2.469     2.457
    66   1 H        0.925     0.031     2.577     2.510
    67   1 H        0.925     0.038     2.469     2.457
    68   1 H        0.925     0.031     2.577     2.511
    69   1 H        0.925     0.038     2.469     2.457
    70   1 H        0.925     0.039     2.469     2.457
    71   1 H        0.926     0.029     2.605     2.524
    72   1 H        0.926     0.025     2.662     2.551
    73   1 H        0.926     0.026     2.646     2.544
    74   1 H        0.926     0.022     2.701     2.570
    75   1 H        0.926     0.041     2.438     2.442
    76   1 H        0.926     0.039     2.456     2.451
    77   1 H        0.926     0.039     2.457     2.451
    78   1 H        0.926     0.041     2.438     2.442
    79   1 H        0.926     0.022     2.697     2.568
    80   1 H        0.926     0.026     2.646     2.544
    81   1 H        0.926     0.025     2.661     2.551
    82   1 H        0.926     0.029     2.604     2.523

molecular dipole:
                 x           y           z       tot (Debye)
 q only:       -0.015      -0.002       0.002
   full:       -0.015      -0.002       0.000       0.039

 projected vibrational frequencies (cm⁻¹)
eigval :       -0.00    -0.00    -0.00     0.00     0.00     0.00
eigval :        2.74     8.30    10.92    17.62    19.81    24.26
eigval :       25.02    29.58    49.87    60.83    67.10    86.84
eigval :       97.57    97.94    98.20   102.79   113.38   119.73
eigval :      128.99   129.13   190.18   190.42   193.81   200.69
eigval :      205.75   209.15   219.48   220.14   232.19   239.67
eigval :      269.60   299.91   305.09   307.06   330.97   331.12
eigval :      342.98   343.48   359.83   370.40   371.02   376.21
eigval :      378.31   380.47   382.10   399.12   405.68   420.73
eigval :      427.23   430.08   450.81   451.09   455.05   464.73
eigval :      490.18   491.12   505.97   515.32   515.39   516.47
eigval :      529.95   547.37   547.39   557.10   579.19   580.60
eigval :      588.85   592.15   593.14   613.79   616.33   645.32
eigval :      660.79   682.29   682.38   689.74   692.58   693.27
eigval :      693.37   695.62   727.61   756.99   776.17   776.27
eigval :      777.50   777.58   807.67   812.17   826.57   827.12
eigval :      852.48   864.60   864.83   865.03   865.38   866.40
eigval :      866.67   910.87   911.36   912.68   912.72   913.54
eigval :      913.57   919.21   919.29   919.39   920.76   920.80
eigval :      920.80   920.88   924.71   925.25   934.49   938.83
eigval :      940.09   956.98   956.99  1013.26  1014.33  1014.35
eigval :     1022.76  1077.43  1077.45  1086.08  1086.18  1113.41
eigval :     1113.61  1119.48  1119.61  1124.42  1126.91  1141.06
eigval :     1141.11  1158.22  1160.39  1160.41  1172.03  1172.79
eigval :     1180.55  1184.22  1187.31  1187.52  1187.86  1187.99
eigval :     1204.72  1212.31  1244.22  1246.26  1249.87  1249.99
eigval :     1258.21  1260.96  1269.00  1269.18  1294.99  1295.07
eigval :     1301.91  1303.42  1304.94  1322.34  1326.33  1326.38
eigval :     1335.33  1336.17  1345.12  1345.68  1360.64  1397.97
eigval :     1401.81  1402.83  1402.92  1420.82  1420.85  1437.17
eigval :     1437.27  1444.54  1444.80  1469.71  1481.52  1481.85
eigval :     1490.34  1490.35  1491.24  1491.24  1494.08  1498.26
eigval :     1500.89  1500.99  1503.42  1505.68  1505.72  1547.75
eigval :     1551.15  1575.68  1575.69  1583.94  1590.16  1591.26
eigval :     1593.45  1593.55  1595.00  1603.16  1603.43  2321.12
eigval :     3025.87  3025.90  3028.10  3028.12  3038.69  3038.74
eigval :     3041.46  3041.51  3047.61  3047.68  3051.49  3051.57
eigval :     3076.84  3076.94  3076.97  3077.07  3081.54  3081.65
eigval :     3081.67  3081.79  3082.84  3083.15  3084.29  3084.75
eigval :     3092.11  3092.35  3092.44  3092.81  3094.24  3094.75
eigval :     3094.95  3095.79  3098.16  3098.46  3099.08  3099.38

   temp. (K)  partition function   enthalpy   heat capacity  entropy
                                   cal/mol     cal/K/mol   cal/K/mol   J/K/mol
 298.15  VIB  0.595E+20            23423.415    145.221    147.860
         ROT  0.115E+09              888.752      2.981     39.862
         INT  0.683E+28            24312.167    148.202    187.722
         TR   0.140E+29             1481.254      4.968     45.002
         TOT                       25793.4210   153.1705   232.7243   973.7184

       T/K    H(0)-H(T)+PV         H(T)/Eh          T*S/Eh         G(T)/Eh
   ------------------------------------------------------------------------
    298.15    0.411044E-01    0.695807E+00    0.110575E+00    0.585232E+00
   ------------------------------------------------------------------------

         :::::::::::::::::::::::::::::::::::::::::::::::::::::
         ::                  THERMODYNAMIC                  ::
         :::::::::::::::::::::::::::::::::::::::::::::::::::::
         :: total free energy        -117.844571688907 Eh   ::
         ::.................................................::
         :: total energy             -118.429803818618 Eh   ::
         :: zero point energy           0.654702512748 Eh   ::
         :: G(RRHO) w/o ZPVE           -0.069470383037 Eh   ::
         :: G(RRHO) contrib.            0.585232129711 Eh   ::
         :::::::::::::::::::::::::::::::::::::::::::::::::::::

           -------------------------------------------------
          | TOTAL ENERGY             -118.429803818618 Eh   |
          | TOTAL ENTHALPY           -117.733996873030 Eh   |
          | TOTAL FREE ENERGY        -117.844571688907 Eh   |
          | GRADIENT NORM               0.000046496753 Eh/α |
          | HOMO-LUMO GAP               1.913776106608 eV   |
           -------------------------------------------------

 * finished run on 2025/09/09 at 22:41:28.532
