   * xtb version 6.7.1 (edcfbbe) compiled by 'albert@albert-system' on 2024-07-22

   ID    Z sym.   atoms
    1    6 C      1-9, 11-20, 22-46
    2    7 N      10, 21
    3    1 H      47-82

          program call               : xtb data2507/gas/DPE-DDMAc/DPE-DDMAc.xyz --gfn 2 --ohess vtight --parallel 40 --molden --ceasefiles --namespace data2507/gas/DPE-DDMAc/DPE-DDMAc_gas_S0_preOpt
          :  Hamiltonian                  GFN2-xTB          :
 * total energy  :  -118.4031582 Eh     change       -0.1537330E-08 Eh
 * total energy  :  -118.4208093 Eh     change       -0.1765105E-01 Eh
 * total energy  :  -118.4264033 Eh     change       -0.5594012E-02 Eh
 * total energy  :  -118.4272923 Eh     change       -0.8890296E-03 Eh
 * total energy  :  -118.4279047 Eh     change       -0.6123865E-03 Eh
 * total energy  :  -118.4282304 Eh     change       -0.3256414E-03 Eh
 * total energy  :  -118.4284327 Eh     change       -0.2023254E-03 Eh
 * total energy  :  -118.4285693 Eh     change       -0.1366487E-03 Eh
 * total energy  :  -118.4286951 Eh     change       -0.1257467E-03 Eh
 * total energy  :  -118.4287538 Eh     change       -0.5874968E-04 Eh
 * total energy  :  -118.4288103 Eh     change       -0.4061066E-05 Eh
 * total energy  :  -118.4288125 Eh     change       -0.2171765E-05 Eh
 * total energy  :  -118.4288137 Eh     change       -0.1183922E-05 Eh
 * total energy  :  -118.4288143 Eh     change       -0.6500031E-06 Eh
 * total energy  :  -118.4288147 Eh     change       -0.3883187E-06 Eh
 * total energy  :  -118.4288149 Eh     change       -0.2096692E-06 Eh
 * total energy  :  -118.4288148 Eh     change        0.8699911E-07 Eh
 * total energy  :  -118.4288150 Eh     change       -0.1497969E-06 Eh
 * total energy  :  -118.4288150 Eh     change       -0.2031754E-08 Eh
   *** GEOMETRY OPTIMIZATION CONVERGED AFTER 22 ITERATIONS ***

 final structure:
================
82
 xtb: 6.7.1 (edcfbbe)
C          -10.01353499379862        0.87566220338497       -0.91235182585328
C           -9.13417911558916        0.00076185061790       -0.00041249446598
C          -10.01542807945789       -0.87294750621289        0.91083644597945
C           -8.28538605481458       -0.90729281457238       -0.87040341340579
C           -8.90261799672136       -1.80436263718917       -1.73087818677607
C           -8.18012050724640       -2.65602026002225       -2.54620600655319
C           -6.79815479865053       -2.61856738876960       -2.50812203143493
C           -6.15850126691023       -1.73706636564394       -1.66252135101171
C           -6.88732683459689       -0.87497467922693       -0.83803689441418
N           -6.21627312817735       -0.00082341917309        0.00030180566917
C           -4.79408619453937       -0.00102224977830        0.00013313752818
C           -4.09881815525886        0.82618023025612       -0.87490962182994
C           -2.71863027510467        0.82761747935448       -0.87689153670667
C           -2.01674045601675       -0.00092376302204        0.00013923656402
C           -0.60370120046069       -0.00068078591812        0.00037779642379
C            0.60369935872832       -0.00035277693531        0.00044399662160
C            2.01674018582559       -0.00002078575555        0.00042270886347
C            2.71878591547776       -0.82968811167479       -0.87540639128271
C            4.09897086304462       -0.82805000520177       -0.87337020815136
C            4.79408663903573        0.00044792092969        0.00056646823356
N            6.21627486858427        0.00059297350661        0.00059860028251
C            6.88712505335965       -0.87378197075408        0.83887174749436
C            6.15810878120182       -1.73482390183155        1.66428564480841
C            6.79756331287834       -2.61653194857877        2.50982113559247
C            8.17951992013007       -2.65523418553079        2.54692908453676
C            8.90220763685248       -1.80454376017182        1.73076107525219
C            8.28517702933312       -0.90726794470271        0.87035545084224
C            9.13417623561534       -0.00028721333101       -0.00055787854135
C           10.01366909473509       -0.87512027448036       -0.91242330318206
C           10.01530074328176        0.87383096604730        0.91041552490788
C            8.28503395085693        0.90737897383725       -0.87061715889216
C            8.90191969821374        1.80440414349702       -1.73138724760362
C            8.17909462406652        2.65570430536170       -2.54679790796292
C            6.79714454051896        2.61788292604032       -2.50854098136151
C            6.15783152526709        1.73638630646956       -1.66267875548044
C            6.88698812736734        0.87471907239257       -0.83804234381476
C            4.09861733544687        0.82872713852557        0.87442766388390
C            2.71842793080205        0.82987952658487        0.87632901266393
C           -2.71858276729586       -0.82959263954426        0.87707413867586
C           -4.09876898238471       -0.82825786329660        0.87510255576472
C           -6.88678692231076        0.87392798395990        0.83845253751844
C           -6.15743900821695        1.73515464560762        1.66338247256800
C           -6.79655555813392        2.61720627996400        2.50881331571562
C           -8.17849676988067        2.65610979854423        2.54626734493743
C           -8.90151106422875        1.80531805754068        1.73049447899585
C           -8.28482631310612        0.90770821427565        0.87019102815120
H          -10.64968266701968        0.26153202582088       -1.54376305961300
H           -9.38433632016054        1.49038551834431       -1.55352440136541
H          -10.64928743221929        1.53238148029064       -0.32493725668901
H          -10.65164147018328       -1.52879416613741        0.32294679103699
H          -10.65121360528599       -0.25796818610004        1.54177977536560
H           -9.38756813645580       -1.48854293389372        1.55247996172896
H           -9.98076155337458       -1.84499266424953       -1.77111269431466
H           -8.69291234422174       -3.34135218753003       -3.20378750005312
H           -6.21430084965303       -3.27511241953444       -3.13608463931435
H           -5.07956535236468       -1.71282284437871       -1.63713998367644
H           -4.64997416131769        1.46430343303726       -1.54979745964333
H           -2.17292685053102        1.46791192000556       -1.55406917758234
H            2.17319812137211       -1.47094899645209       -1.55175931094275
H            4.65023895713413       -1.46702085210276       -1.54736017247908
H            5.07917864113977       -1.70959597929816        1.63969608955466
H            6.21355773886697       -3.27223067599548        3.13852606583426
H            8.69215765602599       -3.34079017433371        3.20439567758038
H            9.98034112688218       -1.84615094081009        1.77022924118670
H           10.64956937688515       -0.26094551719887       -1.54404153622088
H            9.38456650770756       -1.49015331575349       -1.55338671210936
H           10.64967564596643       -1.53154977175489       -0.32495890288362
H            9.38733811434719        1.48937763683847        1.55200252986070
H           10.65133964069808        0.25915023308048        1.54139847676655
H           10.65125847187947        1.52973671662073        0.32231674381835
H            9.98004630756730        1.84529579760775       -1.77178241534576
H            8.69162219862477        3.34104955603385       -3.20457046611857
H            6.21303569034139        3.27410508965821       -3.13660349254202
H            5.07890613857626        1.71182515727747       -1.63720274594004
H            4.64959965600883        1.46785812841687        1.54849873192837
H            2.17256235231979        1.47092162662740        1.55266684698734
H           -2.17283396574281       -1.46979248513141        1.55429997508799
H           -4.64986309914485       -1.46641354166253        1.55000138353215
H           -5.07851879659977        1.70984024357911        1.63845749793723
H           -6.21229609221304        3.27306654677960        3.13711419480353
H           -8.69087221524684        3.34195758125369        3.20363387478908
H           -9.97962835833085        1.84711221566484        1.77020119928333

          :  Hamiltonian                  GFN2-xTB          :
         :: gradient norm              0.000032981799 Eh/a0 ::
         :: HOMO-LUMO gap              2.347945338351 eV    ::
         :: SCC energy              -120.670556275483 Eh    ::
         :: -> dispersion             -0.109738400097 Eh    ::
         :: repulsion energy           2.241741310973 Eh    ::

    * Orbital Energies and Occupations

         #    Occupation            Energy/Eh            Energy/eV
      -------------------------------------------------------------
         1        2.0000           -0.6688963             -18.2016
       ...           ...                  ...                  ...
        99        2.0000           -0.4074384             -11.0870
       100        2.0000           -0.4038951             -10.9905
       101        2.0000           -0.4037705             -10.9872
       102        2.0000           -0.3994928             -10.8708
       103        2.0000           -0.3994928             -10.8708
       104        2.0000           -0.3942948             -10.7293
       105        2.0000           -0.3942947             -10.7293
       106        2.0000           -0.3940166             -10.7217
       107        2.0000           -0.3928902             -10.6911
       108        2.0000           -0.3890648             -10.5870
       109        2.0000           -0.3890635             -10.5870
       110        2.0000           -0.3425415              -9.3210
       111        2.0000           -0.3425390              -9.3210 (HOMO)
       112                         -0.2562537              -6.9730 (LUMO)
       113                         -0.2539029              -6.9090
       114                         -0.2378624              -6.4726
       115                         -0.2378619              -6.4726
       116                         -0.2202242              -5.9926
       117                         -0.2202240              -5.9926
       118                         -0.2153459              -5.8599
       119                         -0.2153455              -5.8598
       120                         -0.2142854              -5.8310
       121                         -0.2142853              -5.8310
       122                         -0.1857971              -5.0558
       ...                                ...                  ...
       220                          1.4216358              38.6847
      -------------------------------------------------------------
                  HL-Gap            0.0862854 Eh            2.3479 eV

     #   Z          covCN         q      C6AA      α(0)
     1   6 C        3.761    -0.102    22.502     6.762
     2   6 C        3.909     0.022    20.155     6.381
     3   6 C        3.761    -0.102    22.502     6.762
     4   6 C        2.979    -0.015    28.378     8.738
     5   6 C        2.928    -0.036    28.903     8.817
     6   6 C        2.917    -0.045    29.127     8.850
     7   6 C        2.920    -0.033    28.830     8.805
     8   6 C        2.924    -0.059    29.475     8.903
     9   6 C        2.929     0.058    26.691     8.473
    10   7 N        2.755    -0.074    22.669     7.071
    11   6 C        2.928     0.070    26.424     8.430
    12   6 C        2.920    -0.037    28.909     8.817
    13   6 C        2.927    -0.029    28.718     8.788
    14   6 C        2.972     0.038    27.141     8.546
    15   6 C        1.982    -0.038    32.060     9.144
    16   6 C        1.982    -0.038    32.060     9.144
    17   6 C        2.972     0.038    27.141     8.546
    18   6 C        2.927    -0.029    28.718     8.788
    19   6 C        2.920    -0.037    28.909     8.817
    20   6 C        2.928     0.070    26.424     8.430
    21   7 N        2.755    -0.074    22.669     7.071
    22   6 C        2.929     0.058    26.691     8.473
    23   6 C        2.924    -0.059    29.475     8.903
    24   6 C        2.920    -0.033    28.830     8.805
    25   6 C        2.917    -0.045    29.127     8.850
    26   6 C        2.928    -0.036    28.903     8.817
    27   6 C        2.979    -0.015    28.378     8.738
    28   6 C        3.909     0.022    20.155     6.381
    29   6 C        3.761    -0.102    22.502     6.762
    30   6 C        3.761    -0.102    22.502     6.762
    31   6 C        2.979    -0.015    28.378     8.738
    32   6 C        2.928    -0.036    28.903     8.817
    33   6 C        2.917    -0.045    29.127     8.850
    34   6 C        2.920    -0.033    28.830     8.805
    35   6 C        2.924    -0.059    29.475     8.903
    36   6 C        2.929     0.058    26.691     8.473
    37   6 C        2.920    -0.037    28.909     8.817
    38   6 C        2.927    -0.029    28.718     8.788
    39   6 C        2.927    -0.029    28.718     8.788
    40   6 C        2.920    -0.037    28.909     8.817
    41   6 C        2.929     0.058    26.691     8.473
    42   6 C        2.924    -0.059    29.475     8.903
    43   6 C        2.920    -0.033    28.830     8.805
    44   6 C        2.917    -0.045    29.127     8.850
    45   6 C        2.928    -0.036    28.903     8.817
    46   6 C        2.979    -0.015    28.378     8.738
    47   1 H        0.925     0.038     2.470     2.458
    48   1 H        0.925     0.031     2.578     2.511
    49   1 H        0.925     0.038     2.470     2.458
    50   1 H        0.925     0.038     2.470     2.458
    51   1 H        0.925     0.038     2.470     2.458
    52   1 H        0.925     0.031     2.578     2.511
    53   1 H        0.926     0.029     2.606     2.525
    54   1 H        0.926     0.025     2.664     2.552
    55   1 H        0.926     0.026     2.650     2.546
    56   1 H        0.926     0.022     2.710     2.574
    57   1 H        0.926     0.041     2.432     2.439
    58   1 H        0.926     0.040     2.451     2.448
    59   1 H        0.926     0.040     2.451     2.448
    60   1 H        0.926     0.041     2.432     2.439
    61   1 H        0.926     0.022     2.710     2.574
    62   1 H        0.926     0.026     2.650     2.546
    63   1 H        0.926     0.025     2.664     2.552
    64   1 H        0.926     0.029     2.606     2.525
    65   1 H        0.925     0.038     2.470     2.458
    66   1 H        0.925     0.031     2.578     2.511
    67   1 H        0.925     0.038     2.470     2.458
    68   1 H        0.925     0.031     2.578     2.511
    69   1 H        0.925     0.038     2.470     2.458
    70   1 H        0.925     0.038     2.470     2.458
    71   1 H        0.926     0.029     2.606     2.525
    72   1 H        0.926     0.025     2.664     2.552
    73   1 H        0.926     0.026     2.650     2.546
    74   1 H        0.926     0.022     2.710     2.574
    75   1 H        0.926     0.041     2.432     2.439
    76   1 H        0.926     0.040     2.451     2.448
    77   1 H        0.926     0.040     2.451     2.448
    78   1 H        0.926     0.041     2.432     2.439
    79   1 H        0.926     0.022     2.710     2.574
    80   1 H        0.926     0.026     2.650     2.546
    81   1 H        0.926     0.025     2.664     2.552
    82   1 H        0.926     0.029     2.606     2.525

molecular dipole:
                 x           y           z       tot (Debye)
 q only:       -0.000      -0.000      -0.000
   full:       -0.000      -0.000      -0.000       0.001

 projected vibrational frequencies (cm⁻¹)
eigval :       -0.00    -0.00    -0.00     0.00     0.00     0.00
eigval :      -20.17    -9.05    -2.72     8.33     9.97    20.53
eigval :       21.13    40.23    41.46    59.24    61.55    86.80
eigval :       97.26    97.28   101.31   101.57   116.09   117.75
eigval :      129.35   129.37   190.68   190.69   193.05   199.83
eigval :      200.22   219.94   219.95   231.20   237.36   239.56
eigval :      240.66   299.49   305.14   305.24   330.66   330.66
eigval :      343.48   343.51   359.83   369.78   370.22   378.20
eigval :      378.81   379.05   382.10   401.92   402.40   423.05
eigval :      423.57   429.56   450.32   450.33   458.26   458.94
eigval :      489.47   489.57   512.25   512.80   515.50   515.50
eigval :      529.68   547.41   547.41   556.89   579.95   580.03
eigval :      588.87   592.79   592.84   614.51   614.65   645.28
eigval :      660.72   682.11   682.12   692.28   693.05   693.05
eigval :      693.74   695.13   727.38   756.64   775.91   775.91
eigval :      777.26   777.26   809.60   809.81   826.77   826.80
eigval :      852.30   863.91   863.91   864.21   864.25   867.87
eigval :      867.93   910.87   910.88   912.48   912.48   913.34
eigval :      913.34   919.36   919.44   919.45   920.56   920.56
eigval :      920.57   920.57   924.65   925.04   934.75   938.86
eigval :      940.35   957.06   957.06  1013.80  1014.26  1014.27
eigval :     1023.68  1077.52  1077.52  1086.53  1086.56  1112.85
eigval :     1112.85  1119.27  1119.27  1125.24  1125.36  1140.91
eigval :     1140.91  1160.53  1160.54  1161.28  1171.62  1173.12
eigval :     1180.76  1183.60  1187.25  1187.37  1187.65  1187.65
eigval :     1204.94  1212.37  1244.29  1246.46  1249.74  1249.75
eigval :     1259.20  1259.43  1268.77  1268.89  1294.92  1294.92
eigval :     1301.10  1301.27  1302.83  1323.55  1326.55  1326.56
eigval :     1335.48  1336.39  1347.19  1347.20  1356.85  1398.41
eigval :     1398.63  1402.82  1402.82  1420.85  1420.86  1437.45
eigval :     1437.53  1445.36  1445.37  1471.68  1482.45  1482.46
eigval :     1490.52  1490.52  1491.37  1491.37  1493.45  1498.88
eigval :     1500.86  1500.87  1502.70  1505.87  1505.88  1551.31
eigval :     1551.90  1575.72  1575.73  1588.37  1590.28  1591.98
eigval :     1593.56  1593.57  1594.54  1603.24  1603.61  2324.82
eigval :     3025.68  3025.70  3028.01  3028.04  3038.50  3038.51
eigval :     3041.27  3041.28  3047.51  3047.51  3051.91  3051.95
eigval :     3076.55  3076.55  3076.66  3076.69  3081.24  3081.24
eigval :     3081.40  3081.41  3083.52  3083.53  3084.85  3085.17
eigval :     3091.48  3091.48  3091.75  3091.99  3094.95  3094.97
eigval :     3095.50  3096.08  3097.49  3097.49  3098.46  3098.46

   temp. (K)  partition function   enthalpy   heat capacity  entropy
                                   cal/mol     cal/K/mol   cal/K/mol   J/K/mol
 298.15  VIB  0.153E+20            22897.331    144.100    144.389
         ROT  0.287E+08              888.752      2.981     37.107
         INT  0.438E+27            23786.084    147.081    181.497
         TR   0.140E+29             1481.254      4.968     45.002
         TOT                       25267.3374   152.0490   226.4989   947.6714

       T/K    H(0)-H(T)+PV         H(T)/Eh          T*S/Eh         G(T)/Eh
   ------------------------------------------------------------------------
    298.15    0.402661E-01    0.694849E+00    0.107617E+00    0.587232E+00
   ------------------------------------------------------------------------

         :::::::::::::::::::::::::::::::::::::::::::::::::::::
         ::                  THERMODYNAMIC                  ::
         :::::::::::::::::::::::::::::::::::::::::::::::::::::
         :: total free energy        -117.841582774578 Eh   ::
         ::.................................................::
         :: total energy             -118.428814964476 Eh   ::
         :: zero point energy           0.654583059822 Eh   ::
         :: G(RRHO) w/o ZPVE           -0.067350869924 Eh   ::
         :: G(RRHO) contrib.            0.587232189898 Eh   ::
         :::::::::::::::::::::::::::::::::::::::::::::::::::::

           -------------------------------------------------
          | TOTAL ENERGY             -118.428814964476 Eh   |
          | TOTAL ENTHALPY           -117.733965839410 Eh   |
          | TOTAL FREE ENERGY        -117.841582774578 Eh   |
          | GRADIENT NORM               0.000032974177 Eh/α |
          | HOMO-LUMO GAP               2.347945033256 eV   |
           -------------------------------------------------

 * finished run on 2025/09/09 at 22:36:25.969
