   * xtb version 6.7.1 (edcfbbe) compiled by 'albert@albert-system' on 2024-07-22

   ID    Z sym.   atoms
    1    6 C      1-9, 11-20, 22-46
    2    7 N      10, 21
    3    1 H      47-82

          program call               : xtb data2507/gas/DPE-DDMAc/DPE-DDMAc_gas_T1_crest.xyz --gfn 2 --spinpol --tblite --uhf 2 --ohess vtight --parallel 40 --molden --ceasefiles --namespace data2507/gas/DPE-DDMAc/DPE-DDMAc_gas_T1_finalOpt
 * total energy  :  -118.3468470 Eh     change       -0.8117084E-08 Eh
 * total energy  :  -118.3468533 Eh     change       -0.6218527E-05 Eh
 * total energy  :  -118.3468544 Eh     change       -0.1156858E-05 Eh
 * total energy  :  -118.3468550 Eh     change       -0.6219781E-06 Eh
 * total energy  :  -118.3468557 Eh     change       -0.6980003E-06 Eh
 * total energy  :  -118.3468569 Eh     change       -0.1214668E-05 Eh
 * total energy  :  -118.3468588 Eh     change       -0.1861376E-05 Eh
 * total energy  :  -118.3468600 Eh     change       -0.1150301E-05 Eh
 * total energy  :  -118.3468606 Eh     change       -0.6714369E-06 Eh
 * total energy  :  -118.3468614 Eh     change       -0.7846867E-06 Eh
 * total energy  :  -118.3468671 Eh     change       -0.9325545E-06 Eh
 * total energy  :  -118.3468680 Eh     change       -0.8989739E-06 Eh
 * total energy  :  -118.3468686 Eh     change       -0.5283425E-06 Eh
 * total energy  :  -118.3468689 Eh     change       -0.3666017E-06 Eh
 * total energy  :  -118.3468693 Eh     change       -0.3660536E-06 Eh
 * total energy  :  -118.3468696 Eh     change       -0.3298339E-06 Eh
 * total energy  :  -118.3468699 Eh     change       -0.2828667E-06 Eh
 * total energy  :  -118.3468699 Eh     change       -0.8207337E-09 Eh
 * total energy  :  -118.3468700 Eh     change       -0.9256024E-07 Eh
   *** GEOMETRY OPTIMIZATION CONVERGED AFTER 23 ITERATIONS ***

 final structure:
================
82
 xtb: 6.7.1 (edcfbbe)
C          -10.02680592105875        0.02869359088433        1.24847854691347
C           -9.13662550740257        0.02081885706003       -0.00834785863367
C          -10.00715894016401        0.02546457424413       -1.27892455369985
C           -8.27901462179561        1.26905243465160        0.00473695291070
C           -8.89110105129036        2.51506890064536        0.01440455821376
C           -8.16485024799895        3.68923218930575        0.08181300341624
C           -6.78492525162847        3.62614207786068        0.17673646878488
C           -6.15156295910389        2.40340478828692        0.16741259130981
C           -6.87945812018104        1.21223549204939        0.04535261084881
N           -6.20967969196100        0.00005584488041        0.01064540352131
C           -4.79729846070985       -0.00908286227863        0.01406275339049
C           -4.09082680015133       -0.57375719495890        1.09425400770621
C           -2.72822539129368       -0.57527915019864        1.10937571960937
C           -1.98244702892156       -0.02614876553487        0.01915259190005
C           -0.61900915376825       -0.03260397586403        0.02000709317244
C            0.61889118046341       -0.03499700406303        0.01762933578392
C            1.98231086906795       -0.03200042389147        0.01152621382357
C            2.73096139958256       -0.58097963437023        1.09987867778682
C            4.09350583911482       -0.57968929785560        1.08115417996915
C            4.79720513655727       -0.01605683409670       -0.00142593853888
N            6.20951566706120       -0.00362788390212       -0.00682226601995
C            6.89891686793602       -1.20462125808674       -0.04556393786924
C            6.18970122204950       -2.40822786825723       -0.15460897161578
C            6.84338963856966       -3.62019209016046       -0.16817498674596
C            8.22525772196227       -3.65980864943553       -0.09042248812228
C            8.93242876696664       -2.47341085342990       -0.03565584129639
C            8.29965660656946       -1.23780499804125       -0.02214589538946
C            9.13644361324184        0.02457867844956       -0.02511446450338
C           10.00811108007244        0.02731865297356       -1.29490781357980
C           10.02546433706813        0.03888374132456        1.23248974193659
C            8.27563119657228        1.27064480259675       -0.01661277481107
C            8.88459964088220        2.51821979893025       -0.01093813599077
C            8.15544742968917        3.69078727625354        0.05274418427703
C            6.77571842048958        3.62451686536868        0.14819737767078
C            6.14543466698185        2.40017078270318        0.14290710371579
C            6.87622299731783        1.21041668444110        0.02427792381844
C            4.07717733729292        0.53754019068247       -1.07852680597139
C            2.71477479739293        0.52290707489875       -1.08497035934232
C           -2.71773216095760        0.53192470534211       -1.07381441365862
C           -4.08012619398100        0.54711889826669       -1.06355383039585
C           -6.89596015678425       -1.20262857876627       -0.03161637617709
C           -6.18367618952708       -2.40413131347012       -0.14377515240659
C           -6.83429196525004       -3.61769426987361       -0.16124834544595
C           -8.21608712805745       -3.66103612222303       -0.08435385654982
C           -8.92625747787214       -2.47659266074893       -0.02629821943195
C           -8.29661449768511       -1.23943442249718       -0.00877916524105
H          -10.65999948490118        0.91114314691936        1.27040933822212
H           -9.40524944503835        0.02995095059116        2.14198847483999
H          -10.66593720389729       -0.84934095778863        1.27622626598206
H          -10.63346039921691        0.91235648928341       -1.31628549134596
H          -10.65206319031409       -0.84815395294434       -1.31106197330462
H           -9.37179523808934        0.01572752505069       -2.16262556202135
H           -9.96796065619460        2.57732560275610       -0.02738882794614
H           -8.67255213683144        4.64160734906449        0.08055641478832
H           -6.20040970712964        4.52945687372673        0.26547362738855
H           -5.07869414656789        2.36208998390212        0.26697673153856
H           -4.65131683590997       -0.98331760201175        1.92319920325269
H           -2.18581153051599       -0.98327714298443        1.94918794329568
H            2.19073860246149       -0.98791381947375        1.94161683378737
H            4.65610059442768       -0.98821334462351        1.90918189352419
H            5.11514068611331       -2.38522958726832       -0.24092104868307
H            6.27312442599881       -4.53348556394453       -0.24693669794822
H            8.74891136251646       -4.60350482186685       -0.09287445434208
H           10.01063116648267       -2.51744617483936       -0.00746914133939
H           10.63180587927935        0.91592910772842       -1.33485659735692
H            9.37360608510786        0.01254469519030       -2.17915334833672
H           10.65567803378223       -0.84445332454801       -1.32334194902192
H           10.66619115187126       -0.83785507783638        1.26416017931002
H           10.65697599497846        0.92260671464130        1.25161315015777
H            9.40309648936820        0.04239045991214        2.12543130750229
H            9.96129890288791        2.58303253628680       -0.05290714949759
H            8.66074780094145        4.64442561166082        0.04832093328680
H            6.18891220319481        4.52660204404115        0.23427110131356
H            5.07272456517489        2.35664034210851        0.24303900048401
H            4.62761013855642        0.95229195579975       -1.91161366959130
H            2.16210687662292        0.92286293206435       -1.92194544697690
H           -2.16723916654941        0.93354604056960       -1.91142715669045
H           -4.63270761534065        0.96393057361915       -1.89418436377822
H           -5.10914077969802       -2.37827618230482       -0.22944976739253
H           -6.26164345099339       -4.52928304483842       -0.24242708695671
H           -8.73735092107285       -4.60604008726041       -0.08995778752068
H          -10.00435697475855       -2.52342607257249        0.00125305933652

 projected vibrational frequencies (cm⁻¹)
eigval :       -0.00    -0.00     0.00     0.00     0.00     0.00
eigval :        7.98    10.83    11.05    19.28    23.97    28.76
eigval :       56.83    56.91    66.50    69.89    77.06    86.41
eigval :       96.22   106.15   109.85   111.24   113.71   121.91
eigval :      129.03   129.23   185.03   190.55   190.98   196.74
eigval :      209.37   214.37   216.24   222.50   237.04   240.45
eigval :      279.68   301.74   302.82   307.53   330.36   330.79
eigval :      337.13   341.61   346.90   357.33   370.74   372.19
eigval :      379.29   380.71   381.51   381.63   383.56   410.93
eigval :      411.06   433.51   447.87   456.35   456.56   457.16
eigval :      460.21   472.52   510.11   510.72   510.94   511.31
eigval :      524.98   545.96   545.97   556.91   572.45   573.46
eigval :      582.21   586.66   587.13   607.01   609.74   643.70
eigval :      647.36   649.39   657.98   686.33   686.37   686.98
eigval :      698.25   698.27   724.88   745.94   775.70   775.91
eigval :      778.06   778.12   786.37   787.18   814.04   817.05
eigval :      825.86   825.89   832.12   869.92   869.97   870.91
eigval :      871.00   894.34   901.59   901.74   902.83   910.69
eigval :      910.89   911.52   911.54   915.02   915.04   915.75
eigval :      915.85   922.97   922.98   923.05   923.23   937.85
eigval :      937.91   957.59   957.60   979.16   982.35  1013.90
eigval :     1013.98  1076.30  1076.33  1081.78  1083.30  1111.46
eigval :     1111.80  1117.16  1117.28  1122.28  1125.81  1139.59
eigval :     1139.61  1153.64  1156.12  1156.14  1157.04  1170.28
eigval :     1175.26  1185.47  1185.84  1185.98  1186.16  1188.56
eigval :     1206.91  1217.91  1235.84  1240.53  1242.44  1245.34
eigval :     1246.74  1248.25  1260.93  1261.43  1294.62  1295.06
eigval :     1299.69  1302.66  1303.57  1311.13  1321.69  1323.55
eigval :     1330.18  1330.26  1335.08  1335.15  1367.69  1370.60
eigval :     1382.40  1402.44  1402.47  1419.75  1420.05  1421.94
eigval :     1428.40  1428.56  1432.14  1432.65  1463.83  1463.99
eigval :     1474.05  1474.35  1483.13  1483.53  1487.00  1488.79
eigval :     1488.83  1489.50  1489.68  1499.25  1499.44  1503.31
eigval :     1503.33  1535.73  1562.94  1563.02  1575.54  1577.36
eigval :     1583.95  1584.02  1589.67  1594.76  1600.39  2135.69
eigval :     3027.69  3027.71  3029.61  3029.64  3040.96  3041.01
eigval :     3043.44  3043.50  3050.09  3050.19  3053.59  3053.75
eigval :     3066.92  3067.00  3068.37  3068.62  3081.02  3081.14
eigval :     3081.23  3081.31  3086.30  3086.35  3086.49  3086.56
eigval :     3087.00  3087.91  3088.30  3089.27  3096.93  3097.16
eigval :     3097.17  3098.01  3109.56  3109.74  3109.83  3110.12

   temp. (K)  partition function   enthalpy   heat capacity  entropy
                                   cal/mol     cal/K/mol   cal/K/mol   J/K/mol
 298.15  VIB  0.160E+19            23426.598    148.144    145.882
         ROT  0.115E+09              888.752      2.981     39.864
         INT  0.184E+27            24315.351    151.125    185.746
         TR   0.140E+29             1481.254      4.968     45.002
         TOT                       25796.6047   156.0933   230.7483   965.4508

       T/K    H(0)-H(T)+PV         H(T)/Eh          T*S/Eh         G(T)/Eh
   ------------------------------------------------------------------------
    298.15    0.411095E-01    0.692793E+00    0.109636E+00    0.583157E+00
   ------------------------------------------------------------------------

         :::::::::::::::::::::::::::::::::::::::::::::::::::::
         ::                  THERMODYNAMIC                  ::
         :::::::::::::::::::::::::::::::::::::::::::::::::::::
         :: total free energy        -117.763712781669 Eh   ::
         ::.................................................::
         :: total energy             -118.346870007146 Eh   ::
         :: zero point energy           0.651683675181 Eh   ::
         :: G(RRHO) w/o ZPVE           -0.068526449704 Eh   ::
         :: G(RRHO) contrib.            0.583157225477 Eh   ::
         :::::::::::::::::::::::::::::::::::::::::::::::::::::

           -------------------------------------------------
          | TOTAL ENERGY             -118.346870007146 Eh   |
          | TOTAL ENTHALPY           -117.654076825612 Eh   |
          | TOTAL FREE ENERGY        -117.763712781669 Eh   |
          | GRADIENT NORM               0.000067401844 Eh/α |
           -------------------------------------------------

 * finished run on 2025/09/09 at 22:46:49.787
