   * xtb version 6.7.1 (edcfbbe) compiled by 'albert@albert-system' on 2024-07-22

   ID    Z sym.   atoms
    1    6 C      1-9, 11-20, 22-46
    2    7 N      10, 21
    3    1 H      47-82

          program call               : xtb data2507/gas/DPE-DDMAc/DPE-DDMAc_gas_S0_finalOpt.xtbopt.xyz --gfn 2 --spinpol --tblite --uhf 2 --ohess vtight --parallel 40 --molden --ceasefiles --namespace data2507/gas/DPE-DDMAc/DPE-DDMAc_gas_T1_preOpt
 * total energy  :  -118.3361310 Eh     change       -0.8804719E-08 Eh
 * total energy  :  -118.3432410 Eh     change       -0.7109926E-02 Eh
 * total energy  :  -118.3446916 Eh     change       -0.1450593E-02 Eh
 * total energy  :  -118.3448585 Eh     change       -0.1669064E-03 Eh
 * total energy  :  -118.3451063 Eh     change       -0.2478757E-03 Eh
 * total energy  :  -118.3453338 Eh     change       -0.2274388E-03 Eh
 * total energy  :  -118.3455980 Eh     change       -0.2641850E-03 Eh
 * total energy  :  -118.3459120 Eh     change       -0.3140882E-03 Eh
 * total energy  :  -118.3461775 Eh     change       -0.2654999E-03 Eh
 * total energy  :  -118.3463566 Eh     change       -0.1790267E-03 Eh
 * total energy  :  -118.3468484 Eh     change       -0.2471783E-05 Eh
 * total energy  :  -118.3468482 Eh     change        0.2274550E-06 Eh
 * total energy  :  -118.3468498 Eh     change       -0.1604668E-05 Eh
 * total energy  :  -118.3468511 Eh     change       -0.1345191E-05 Eh
 * total energy  :  -118.3468523 Eh     change       -0.1239297E-05 Eh
 * total energy  :  -118.3468540 Eh     change       -0.1702469E-05 Eh
 * total energy  :  -118.3468552 Eh     change       -0.1141283E-05 Eh
 * total energy  :  -118.3468555 Eh     change       -0.3302102E-06 Eh
 * total energy  :  -118.3468556 Eh     change       -0.7044112E-07 Eh
   *** GEOMETRY OPTIMIZATION CONVERGED AFTER 27 ITERATIONS ***

 final structure:
================
82
 xtb: 6.7.1 (edcfbbe)
C          -10.02610961701739       -0.06282869488453        1.22774738577234
C           -9.13659205498861        0.01909960201727       -0.02692710795724
C          -10.00774554434937        0.11155523497505       -1.29371673934369
C           -8.28079709916233        1.26579268622805        0.05636503152781
C           -8.89522422577769        2.50889656294789        0.12370145119297
C           -8.17076558572885        3.68589872512788        0.14280619854724
C           -6.78993048244617        3.63091298047334        0.05679583940312
C           -6.15433832565613        2.41108031678927       -0.00920456801422
C           -6.88072280255273        1.21324682740162        0.02740313595962
N           -6.20911395478296        0.00179764409203       -0.00934122271428
C           -4.79719367209269       -0.00650384536220       -0.00351544602559
C           -4.08617320887106        0.49409645651671        1.10539168129538
C           -2.72389085092855        0.48250659211705        1.12135267892996
C           -1.98148890522024       -0.01820088561675        0.00544877698683
C           -0.61823302775496       -0.02081106525227        0.00832348722243
C            0.61967107636333       -0.02070756121629        0.00962262658280
C            1.98329013626002       -0.01791238511517        0.00971601625532
C            2.72251937381126        0.50893137942714        1.11515204128606
C            4.08515004513844        0.52337232580249        1.10051067803666
C            4.79764652695460       -0.00608919486659        0.00690710223262
N            6.21054276044516        0.00216313200127        0.00420385235563
C            6.88106242103821        1.21393866687061       -0.02289291263444
C            6.15288210771731        2.40708447469575       -0.12061182536963
C            6.78769334111170        3.62910942532462       -0.12695805663913
C            8.16899013232746        3.68954376907087       -0.05280127349514
C            8.89457361657373        2.51396238369736       -0.00602557584943
C            8.28106953415951        1.26862231878029        0.00085925471347
C            9.13721418649247        0.01921993375852       -0.00596606785563
C           10.02286925555767        0.01365756157969        1.25407712970129
C           10.01234800925945        0.03507105349731       -1.27326845940931
C            8.29568658719976       -1.24007947243262       -0.00600224137804
C            8.92358177264754       -2.47823237082485       -0.00300086564753
C            8.21194826645039       -3.66209070596003        0.04922926159403
C            6.83057758897751       -3.61762547727911        0.13292204406480
C            6.18164467232748       -2.40303029649152        0.13043330527383
C            6.89534192489001       -1.20162116658064        0.02726715086191
C            4.08746294295570       -0.54309273662304       -1.08453266170469
C            2.72474048979573       -0.54040614398541       -1.09629687576487
C           -2.72093588091501       -0.51479080103712       -1.11425329046301
C           -4.08332723322929       -0.51474383540411       -1.10712378919945
C           -6.89455128857001       -1.20157445124352       -0.05327795099924
C           -6.18267037927080       -2.40776610896350       -0.00736196502789
C           -6.83167697142351       -3.62011797187185       -0.08021300849881
C           -8.21194657356969       -3.65896119186667       -0.18275719655413
C           -8.92278376978733       -2.47356020365965       -0.17298289944920
C           -8.29469177716369       -1.23770553393336       -0.09880440802143
H          -10.65418379613469        0.81917623726920        1.31591900353429
H           -9.40409757949869       -0.13246762444170        2.11822497414547
H          -10.67028766414813       -0.93677840451559        1.19067964962901
H          -10.64185349030277        0.99317352839207       -1.26540758611163
H          -10.64498424624650       -0.76294337852074       -1.39057498488490
H           -9.37276391884653        0.17371267418483       -2.17555685779558
H           -9.97258906824419        2.56675334561228        0.15780798351878
H           -8.68030202463300        4.63537544775094        0.20300814216472
H           -6.20624648060142        4.53881032516922        0.03370066905565
H           -5.08062072900166        2.37855637040825       -0.10206548783842
H           -4.64360353878352        0.86499564534469        1.95439141461901
H           -2.17870160635600        0.84198608647650        1.98131280281974
H            2.17529031134932        0.88943245434628        1.96468203093401
H            4.64110200943765        0.91889723778304        1.93924282591183
H            5.07852065013645        2.36791117180671       -0.20365790770273
H            6.20312831181847        4.53400274590734       -0.19746648251934
H            8.67799171876783        4.64122848160053       -0.05090078506159
H            9.97199509906487        2.57459362002927        0.02132471210796
H           10.66812690043965       -0.86010314024905        1.27160271066627
H            9.39814192998145       -0.00302297409566        2.14522139385082
H           10.64965656468157        0.90022694335141        1.29095527292794
H            9.38015230528531        0.04443020035958       -2.15924147352873
H           10.64716391914471        0.91633435417021       -1.29604789830644
H           10.64908419358437       -0.84415480505271       -1.31533763487399
H           10.00141229591608       -2.52642237542342       -0.03798636952705
H            8.73189513799217       -4.60782847068331        0.04409604842231
H            6.25705981371331       -4.52921057219209        0.20781297655768
H            5.10747867891166       -2.37606666684414        0.22076508749724
H            4.64503104407960       -0.93433037119667       -1.92420192206649
H            2.17903360366977       -0.92609627114898       -1.94446618868090
H           -2.17328125683977       -0.87949101466134       -1.97043918375124
H           -4.63838992588132       -0.88149353253074       -1.95946813149175
H           -5.10980379368070       -2.38754401129475        0.09818547070138
H           -6.25903375385844       -4.53479861406843       -0.04962006654967
H           -8.73180838716991       -4.60244578606142       -0.24863342072431
H          -10.00025662765747       -2.51881496084580       -0.22025368577129

 projected vibrational frequencies (cm⁻¹)
eigval :       -0.00    -0.00    -0.00     0.00     0.00     0.00
eigval :        8.01    10.94    11.27    19.41    23.94    28.80
eigval :       56.98    57.01    66.56    69.91    75.87    86.53
eigval :       96.30   106.14   109.36   111.27   113.73   121.91
eigval :      129.09   129.17   185.03   190.48   190.93   196.64
eigval :      209.27   214.44   216.31   222.35   237.21   240.45
eigval :      279.70   302.23   302.86   307.56   330.42   330.86
eigval :      337.15   341.62   346.90   357.52   370.74   372.08
eigval :      379.40   380.68   380.95   381.66   384.29   410.83
eigval :      411.07   432.55   447.89   456.11   456.60   457.12
eigval :      460.21   472.50   510.15   510.68   510.75   511.58
eigval :      525.01   545.91   546.02   556.92   572.42   573.45
eigval :      582.30   586.57   587.05   606.92   609.64   643.41
eigval :      647.27   649.47   657.98   686.33   686.36   687.04
eigval :      698.23   698.32   725.12   746.34   775.71   775.92
eigval :      778.02   778.16   786.31   787.30   815.17   817.03
eigval :      825.79   825.89   832.83   869.82   870.11   870.76
eigval :      871.16   894.27   901.20   902.16   903.03   910.38
eigval :      911.03   911.44   911.61   914.92   915.21   915.61
eigval :      915.98   922.85   922.87   923.15   923.32   937.77
eigval :      937.81   957.53   957.57   978.66   982.37  1013.95
eigval :     1013.96  1076.27  1076.33  1081.81  1083.29  1111.59
eigval :     1111.92  1117.26  1117.35  1122.22  1125.77  1139.60
eigval :     1139.62  1154.41  1156.08  1156.15  1156.96  1170.36
eigval :     1175.40  1185.62  1185.66  1185.95  1186.05  1189.12
eigval :     1206.84  1217.87  1235.85  1240.57  1242.37  1245.73
eigval :     1246.78  1248.29  1260.93  1261.51  1294.63  1295.04
eigval :     1299.62  1302.64  1303.51  1311.03  1321.61  1323.47
eigval :     1330.00  1330.47  1335.12  1335.29  1367.44  1370.67
eigval :     1382.09  1402.39  1402.44  1419.57  1419.97  1421.75
eigval :     1428.10  1428.69  1432.18  1432.70  1463.68  1463.95
eigval :     1473.49  1474.91  1482.43  1483.22  1486.98  1488.79
eigval :     1488.85  1489.60  1489.67  1499.40  1499.44  1503.30
eigval :     1503.36  1535.72  1562.77  1563.24  1575.19  1577.46
eigval :     1583.80  1584.16  1589.34  1594.65  1600.39  2135.64
eigval :     3027.63  3027.70  3029.53  3029.58  3040.97  3041.08
eigval :     3043.45  3043.57  3050.12  3050.19  3053.63  3053.78
eigval :     3066.58  3067.07  3068.02  3068.58  3080.92  3081.09
eigval :     3081.15  3081.32  3086.24  3086.44  3086.44  3086.63
eigval :     3086.71  3087.70  3087.87  3089.67  3096.83  3097.01
eigval :     3097.07  3098.04  3109.25  3109.63  3109.79  3110.74

   temp. (K)  partition function   enthalpy   heat capacity  entropy
                                   cal/mol     cal/K/mol   cal/K/mol   J/K/mol
 298.15  VIB  0.155E+19            23427.047    148.141    145.866
         ROT  0.115E+09              888.752      2.981     39.864
         INT  0.179E+27            24315.799    151.122    185.730
         TR   0.140E+29             1481.254      4.968     45.002
         TOT                       25797.0528   156.0899   230.7320   965.3827

       T/K    H(0)-H(T)+PV         H(T)/Eh          T*S/Eh         G(T)/Eh
   ------------------------------------------------------------------------
    298.15    0.411102E-01    0.692789E+00    0.109628E+00    0.583161E+00
   ------------------------------------------------------------------------

         :::::::::::::::::::::::::::::::::::::::::::::::::::::
         ::                  THERMODYNAMIC                  ::
         :::::::::::::::::::::::::::::::::::::::::::::::::::::
         :: total free energy        -117.763694575901 Eh   ::
         ::.................................................::
         :: total energy             -118.346855594812 Eh   ::
         :: zero point energy           0.651679018480 Eh   ::
         :: G(RRHO) w/o ZPVE           -0.068517999569 Eh   ::
         :: G(RRHO) contrib.            0.583161018911 Eh   ::
         :::::::::::::::::::::::::::::::::::::::::::::::::::::

           -------------------------------------------------
          | TOTAL ENERGY             -118.346855594812 Eh   |
          | TOTAL ENTHALPY           -117.654066355916 Eh   |
          | TOTAL FREE ENERGY        -117.763694575901 Eh   |
          | GRADIENT NORM               0.000077298619 Eh/α |
           -------------------------------------------------

 * finished run on 2025/09/09 at 22:41:37.505
