   * xtb version 6.7.1 (edcfbbe) compiled by 'albert@albert-system' on 2024-07-22

   ID    Z sym.   atoms
    1    6 C      1-5, 7-12, 14-34, 36-50, 52-60
    2    7 N      6, 13, 35, 51
    3    1 H      61-96

          program call               : xtb data2507/gas/BDQPCz/BDQPCz_gas_T1_crest.xyz --gfn 2 --spinpol --tblite --uhf 2 --ohess vtight --parallel 40 --molden --ceasefiles --namespace data2507/gas/BDQPCz/BDQPCz_gas_T1_finalOpt
 * total energy  :  -149.9913028 Eh     change       -0.8147651E-09 Eh
 * total energy  :  -149.9913761 Eh     change       -0.7330721E-04 Eh
 * total energy  :  -149.9914108 Eh     change       -0.3461760E-04 Eh
 * total energy  :  -149.9914213 Eh     change       -0.1053489E-04 Eh
 * total energy  :  -149.9914306 Eh     change       -0.9261378E-05 Eh
 * total energy  :  -149.9914367 Eh     change       -0.6109577E-05 Eh
 * total energy  :  -149.9914436 Eh     change       -0.6903058E-05 Eh
 * total energy  :  -149.9914483 Eh     change       -0.4700060E-05 Eh
 * total energy  :  -149.9914514 Eh     change       -0.3181835E-05 Eh
 * total energy  :  -149.9914547 Eh     change       -0.3260134E-05 Eh
 * total energy  :  -149.9915112 Eh     change       -0.7044578E-06 Eh
 * total energy  :  -149.9915121 Eh     change       -0.9054530E-06 Eh
 * total energy  :  -149.9915132 Eh     change       -0.1100002E-05 Eh
 * total energy  :  -149.9915145 Eh     change       -0.1283168E-05 Eh
 * total energy  :  -149.9915154 Eh     change       -0.9168518E-06 Eh
 * total energy  :  -149.9915159 Eh     change       -0.4778202E-06 Eh
 * total energy  :  -149.9915170 Eh     change       -0.1122457E-05 Eh
 * total energy  :  -149.9915170 Eh     change        0.2119049E-07 Eh
 * total energy  :  -149.9915170 Eh     change       -0.2563900E-07 Eh
   *** GEOMETRY OPTIMIZATION CONVERGED AFTER 45 ITERATIONS ***

 final structure:
================
96
 xtb: 6.7.1 (edcfbbe)
C           -3.17040489208740       -5.51100544961381        0.85204510253741
C           -1.87699049428548       -5.48387172468324        1.35001955474691
C           -1.05452030489704       -4.40242018968071        1.10194659435735
C           -1.51650732317950       -3.33185899634015        0.33659242142380
C           -0.70272275995406       -2.14375035430320        0.09215883061716
N           -1.33392279785082       -0.97718697083380        0.07873045967138
C           -0.72271574815816        0.20000462882769        0.01997110224415
C           -1.42108983500156        1.41597952940966        0.00869710517839
C           -2.88205721429550        1.42331067702460        0.04683260437308
C           -3.60206068305060        0.44122898397583        0.73035508199867
C           -4.97991758386329        0.42892537524690        0.72161197661819
C           -5.68561959004579        1.40301956255638        0.01967239972894
N           -7.08500032621875        1.37314465852371       -0.01438202660924
C           -7.92633760736849        2.43396880948774        0.25246529183882
C           -7.61915823512265        3.72575319691515        0.65592411391081
C           -8.66729832302232        4.59692233111060        0.88272534180036
C           -9.99259021586657        4.19810497612982        0.72313103917330
C          -10.30522136152351        2.90717234340597        0.34585060769626
C           -9.26916555942544        2.01312205809983        0.11204617976563
C           -9.22483370107620        0.62720998591394       -0.26259165998083
C          -10.20161813580533       -0.31519168635087       -0.55489548462713
C           -9.80618134097195       -1.58905600258137       -0.91161541852631
C           -8.45623310234224       -1.92353072502965       -0.99314868726581
C           -7.46587704344594       -1.00353036009425       -0.70737366612968
C           -7.85754206239361        0.27189557272980       -0.32511747468723
C           -4.98058892090758        2.39939012766941       -0.65168433757660
C           -3.60238878839031        2.41330467041783       -0.62836831532946
C           -0.68233614162487        2.60906675831643       -0.01407572009806
C            0.69005409020183        2.60707590873409        0.00408246140452
C            1.42582102180719        1.41194681763643       -0.01380720588578
C            2.88686153267697        1.41687072008149       -0.04983125260748
C            3.60703798238256        0.43229754379307       -0.72948532436207
C            4.98496677948024        0.42025022304680       -0.72042135493061
C            5.69047888140430        1.39658390282731       -0.02134661400965
N            7.08990088946452        1.36843163242943        0.01206895339899
C            7.86445506816524        0.26874061451569        0.32342936299832
C            7.47524515286247       -1.00695868828168        0.70725343743800
C            8.46734843908430       -1.92501977447887        0.99325023987956
C            9.81668207116551       -1.58840428712556        0.91044144059168
C           10.20971007715064       -0.31417853717740        0.55239747366874
C            9.23112411066060        0.62629304412986        0.25993278028716
C            9.27299573388375        2.01202310541896       -0.11558114111048
C           10.30756276836393        2.90766707163100       -0.34988158571200
C            9.99278079653346        4.19799832696101       -0.72740056079438
C            8.66680531710097        4.59450871821019       -0.88697518057677
C            7.62013865396986        3.72165251705470       -0.65982528517947
C            7.92942578533341        2.43053053616796       -0.25579871427692
C            4.98511439426276        2.39424453853734        0.64776046890304
C            3.60698550406649        2.40823668789282        0.62361823028585
C            0.72447761034066        0.19769025900030       -0.02208020236676
N            1.33199304625794       -0.98177067414146       -0.07760997361886
C            0.69666413715655       -2.14612774242995       -0.08746289045979
C            1.50526954932584       -3.33873438287960       -0.32741002051351
C            2.81442605435584       -3.37015427863912        0.15682594672730
C            3.62466716186199       -4.46036303985037       -0.09189239918621
C            3.14676174845705       -5.52940757721295       -0.83248886178246
C            1.85585417420073       -5.49441388687054       -1.33645240131727
C            1.03949929212505       -4.40723985778396       -1.09334871857010
C           -2.82803290952526       -3.35554786294763       -0.14193465492972
C           -3.64447498464209       -4.43983851549762        0.11204575890845
H           -3.80850168911504       -6.35962348835433        1.04855936882648
H           -1.50947605064501       -6.30830128331204        1.94317858415390
H           -0.05599708856176       -4.37890315051526        1.51235000590780
H           -3.07169132710138       -0.31463705355076        1.28879862217675
H           -5.51991156649032       -0.32619779092908        1.27332226129723
H           -6.59606172788495        4.03824900749903        0.80099630513280
H           -8.45446175395478        5.60881634338508        1.19482910440965
H          -10.78348342291407        4.90981950456521        0.90775051787052
H          -11.33266537632033        2.59362418319688        0.23801700257753
H          -11.24737799789012       -0.05123919595241       -0.50744362780996
H          -10.55006973863363       -2.33762504448192       -1.14065216662572
H           -8.17790226990739       -2.92396400031399       -1.29062486257084
H           -6.42232788080831       -1.26720854966786       -0.79033757107247
H           -5.52140239520761        3.14481944178086       -1.21588134891025
H           -3.07487580056558        3.17464318617261       -1.18297152024799
H           -1.21083786812624        3.54984467559050       -0.00714969084122
H            1.22118429513392        3.54633640159503       -0.00656317953727
H            3.07670553190472       -0.32555748910143       -1.28529377785481
H            5.52512321011161       -0.33634909706263       -1.26993768276353
H            6.43222733345293       -1.27234413549856        0.79136265341041
H            8.19086708732504       -2.92560739761439        1.29191274416810
H           10.56198184544511       -2.33554055184524        1.13956656449502
H           11.25498013099736       -0.04845633325574        0.50399531410568
H           11.33552663262809        2.59581413817439       -0.24208751659492
H           10.78246211489569        4.91101617189916       -0.91218125981143
H            8.45221464971098        5.60597078644594       -1.19928467797004
H            6.59657083310812        4.03250143071770       -0.80504821018520
H            5.52563280289313        3.14088172259520        1.21063212591853
H            3.07926759506821        3.17095030420811        1.17612866196454
H            3.17888814759307       -2.53113303449554        0.73083919070164
H            4.63444087066643       -4.47628464370430        0.29166734334683
H            3.78000236365276       -6.38263101802001       -1.02473290632685
H            1.48553241594714       -6.31722815545893       -1.93010801810476
H            0.04275229727001       -4.37765874545524       -1.50770301358607
H           -3.18948718127630       -2.51492135263458       -0.71550125455167
H           -4.65613711856371       -4.44937192991026       -0.26674044764808

 projected vibrational frequencies (cm⁻¹)
eigval :       -0.00    -0.00    -0.00    -0.00     0.00     0.00
eigval :        7.96     8.90    11.73    13.37    16.52    19.67
eigval :       32.07    40.83    42.13    45.03    47.68    59.42
eigval :       59.69    74.96    78.42    88.43    94.67    98.21
eigval :      102.09   107.36   108.10   142.53   145.18   148.85
eigval :      158.93   164.02   178.54   199.25   201.88   216.47
eigval :      219.73   222.11   243.83   267.02   269.96   271.72
eigval :      271.75   280.23   301.72   303.36   334.08   348.76
eigval :      370.58   371.12   379.36   379.49   383.05   383.75
eigval :      387.44   392.12   395.46   409.05   417.49   420.72
eigval :      424.21   434.55   438.09   447.81   457.16   468.15
eigval :      495.66   499.35   516.47   518.40   519.50   534.84
eigval :      535.20   540.65   540.66   549.39   551.01   563.13
eigval :      571.85   582.00   582.29   585.22   586.44   592.01
eigval :      596.29   599.79   603.42   616.53   620.57   626.39
eigval :      652.79   664.69   666.26   674.08   674.22   676.19
eigval :      678.30   680.73   693.41   698.78   708.39   708.70
eigval :      718.24   736.55   749.32   757.32   757.35   759.55
eigval :      764.17   768.91   768.95   779.76   779.89   802.96
eigval :      813.05   823.82   859.60   860.40   870.78   871.37
eigval :      872.80   873.46   873.85   875.59   886.76   896.47
eigval :      897.77   898.16   898.72   900.89   901.12   901.92
eigval :      902.13   902.35   906.56   915.08   915.15   919.09
eigval :      919.22   920.34   923.82   923.86   926.91   927.51
eigval :      929.26   929.40   929.54   931.20   950.18   954.01
eigval :      975.59  1005.03  1012.07  1012.08  1018.03  1019.89
eigval :     1069.98  1070.02  1073.55  1073.63  1080.75  1082.83
eigval :     1105.94  1114.93  1118.12  1119.16  1120.40  1122.55
eigval :     1139.55  1141.89  1151.72  1151.87  1157.20  1176.33
eigval :     1176.39  1179.91  1180.00  1181.05  1181.11  1183.57
eigval :     1183.66  1192.76  1194.39  1198.31  1206.82  1217.92
eigval :     1230.21  1236.21  1236.23  1245.14  1245.52  1255.47
eigval :     1265.02  1267.93  1268.49  1278.49  1280.35  1292.80
eigval :     1292.98  1300.30  1300.85  1301.92  1303.21  1314.07
eigval :     1317.88  1320.60  1323.22  1334.12  1356.33  1358.21
eigval :     1360.67  1360.89  1361.55  1368.84  1370.93  1394.17
eigval :     1403.31  1412.58  1420.06  1426.17  1426.45  1427.74
eigval :     1430.14  1430.80  1437.07  1444.69  1469.39  1471.99
eigval :     1474.62  1475.03  1482.22  1485.45  1488.25  1488.44
eigval :     1494.39  1518.44  1548.14  1548.49  1572.13  1572.40
eigval :     1573.86  1573.87  1585.66  1588.03  1588.29  1588.81
eigval :     1589.98  1590.11  1596.71  1596.73  1612.57  1612.85
eigval :     3074.81  3074.92  3075.51  3075.57  3076.37  3076.42
eigval :     3077.77  3078.35  3080.60  3080.87  3081.46  3081.67
eigval :     3082.55  3082.68  3084.60  3084.87  3086.88  3087.43
eigval :     3087.69  3088.73  3088.79  3090.29  3090.50  3090.79
eigval :     3091.91  3092.91  3093.90  3094.71  3094.72  3095.68
eigval :     3095.78  3095.84  3096.18  3096.41  3096.77  3100.70

   temp. (K)  partition function   enthalpy   heat capacity  entropy
                                   cal/mol     cal/K/mol   cal/K/mol   J/K/mol
 298.15  VIB  0.214E+23            27533.751    174.646    172.468
         ROT  0.101E+09              888.752      2.981     39.615
         INT  0.217E+31            28422.503    177.627    212.083
         TR   0.205E+29             1481.254      4.968     45.762
         TOT                       29903.7571   182.5949   257.8452  1078.8242

       T/K    H(0)-H(T)+PV         H(T)/Eh          T*S/Eh         G(T)/Eh
   ------------------------------------------------------------------------
    298.15    0.476547E-01    0.780675E+00    0.122511E+00    0.658164E+00
   ------------------------------------------------------------------------

         :::::::::::::::::::::::::::::::::::::::::::::::::::::
         ::                  THERMODYNAMIC                  ::
         :::::::::::::::::::::::::::::::::::::::::::::::::::::
         :: total free energy        -149.333352992986 Eh   ::
         ::.................................................::
         :: total energy             -149.991516930168 Eh   ::
         :: zero point energy           0.733019831636 Eh   ::
         :: G(RRHO) w/o ZPVE           -0.074855894455 Eh   ::
         :: G(RRHO) contrib.            0.658163937182 Eh   ::
         :::::::::::::::::::::::::::::::::::::::::::::::::::::

           -------------------------------------------------
          | TOTAL ENERGY             -149.991516930168 Eh   |
          | TOTAL ENTHALPY           -149.210842428226 Eh   |
          | TOTAL FREE ENERGY        -149.333352992986 Eh   |
          | GRADIENT NORM               0.000128540406 Eh/α |
           -------------------------------------------------

 * finished run on 2025/07/21 at 04:56:29.674
