   * xtb version 6.7.1 (edcfbbe) compiled by 'albert@albert-system' on 2024-07-22

   ID    Z sym.   atoms
    1    6 C      1-5, 7-12, 14-34, 36-50, 52-60
    2    7 N      6, 13, 35, 51
    3    1 H      61-96

          program call               : xtb data2507/gas/BDQPCz/BDQPCz_gas_S0_crest.xyz --gfn 2 --ohess vtight --parallel 40 --molden --ceasefiles --namespace data2507/gas/BDQPCz/BDQPCz_gas_S0_finalOpt
          :  Hamiltonian                  GFN2-xTB          :
 * total energy  :  -150.0413854 Eh     change       -0.3814762E-08 Eh
 * total energy  :  -150.0413871 Eh     change       -0.1727098E-05 Eh
 * total energy  :  -150.0413871 Eh     change        0.6153743E-07 Eh
 * total energy  :  -150.0413897 Eh     change       -0.2614022E-05 Eh
 * total energy  :  -150.0413931 Eh     change       -0.3469226E-05 Eh
 * total energy  :  -150.0413952 Eh     change       -0.2041364E-05 Eh
 * total energy  :  -150.0413974 Eh     change       -0.2225010E-05 Eh
 * total energy  :  -150.0414003 Eh     change       -0.2932641E-05 Eh
 * total energy  :  -150.0414037 Eh     change       -0.3396429E-05 Eh
 * total energy  :  -150.0414074 Eh     change       -0.3668645E-05 Eh
 * total energy  :  -150.0414616 Eh     change       -0.3918116E-06 Eh
 * total energy  :  -150.0414621 Eh     change       -0.4857946E-06 Eh
 * total energy  :  -150.0414627 Eh     change       -0.5999480E-06 Eh
 * total energy  :  -150.0414633 Eh     change       -0.6369230E-06 Eh
 * total energy  :  -150.0414639 Eh     change       -0.5997701E-06 Eh
 * total energy  :  -150.0414645 Eh     change       -0.5400295E-06 Eh
 * total energy  :  -150.0414650 Eh     change       -0.5110953E-06 Eh
 * total energy  :  -150.0414655 Eh     change       -0.4763571E-06 Eh
 * total energy  :  -150.0414655 Eh     change       -0.9234782E-08 Eh
   *** GEOMETRY OPTIMIZATION CONVERGED AFTER 44 ITERATIONS ***

 final structure:
================
96
 xtb: 6.7.1 (edcfbbe)
C           -3.05075324666238       -5.49676862114627        1.01451987172787
C           -1.74272129176756       -5.42759919767896        1.46638337063694
C           -0.96099583513805       -4.32569041573336        1.17510711342426
C           -1.48564083093365       -3.27835622786045        0.42105896647176
C           -0.70153497525046       -2.07444851802864        0.12496583580292
N           -1.36298929550038       -0.94293641569906        0.15720487415882
C           -0.70851796734355        0.22402582187716        0.04342879159076
C           -1.42663955473472        1.44883809020283        0.04552129094342
C           -2.89281021841394        1.44721332225366        0.06418685883941
C           -3.60256712468054        0.58719053841679        0.90083370525253
C           -4.98137932915860        0.56867010136097        0.88518418560572
C           -5.68581933840887        1.40299492783571        0.02102559143880
N           -7.08478786044809        1.35310639147806       -0.02032827586165
C           -7.94051665802811        2.43367107386596        0.05196701103504
C           -7.65256511095495        3.77870549829257        0.23475758504311
C           -8.71268820430355        4.66225124660489        0.30023440207876
C          -10.03159621726495        4.22561315894636        0.19601460705261
C          -10.32534890556211        2.88600999750727        0.03845116614449
C           -9.27673527005015        1.97834457238543       -0.03013955150387
C           -9.21334496890302        0.54997184964570       -0.16459710707462
C          -10.17685730696774       -0.44020750067500       -0.30477579395300
C           -9.76410400722454       -1.75084990731593       -0.43633502655546
C           -8.40980927147793       -2.07782320318953       -0.44427818525216
C           -7.43250467453872       -1.11106118671100       -0.30662102079616
C           -7.84212923830257        0.20564185182283       -0.14987564027117
C           -4.98525820154158        2.27581098730779       -0.80709734669699
C           -3.60569003609569        2.30031620608828       -0.77681893595947
C           -0.69907078089418        2.61854166652368        0.01341784580564
C            0.69863001054052        2.61906093462657       -0.00473028169144
C            1.42728025651122        1.45017317000215       -0.04316311582231
C            2.89347049364758        1.45048177054750       -0.05940330329670
C            3.60617617144879        0.59622108690705       -0.89939670996450
C            4.98502136968643        0.58000227241453       -0.88140578672051
C            5.68661797230550        1.41025158825518       -0.01097746783777
N            7.08552627928100        1.36264603985782        0.03275646560031
C            7.84515127889594        0.21559165988907        0.15314804351589
C            7.43836190916080       -1.10351809306958        0.29657844165248
C            8.41762535152466       -2.06934563551917        0.42678073003921
C            9.77118007306017       -1.73929652331792        0.42450404577182
C           10.18109984655487       -0.42645292674886        0.30687706702835
C            9.21554780164330        0.56281508980352        0.17459297116623
C            9.27609942498048        1.99260766798243        0.05490109440962
C           10.32298040536636        2.90315295786326       -0.00065089308964
C           10.02686539465225        4.24375446760713       -0.14464621841708
C            8.70736140032496        4.67855369781888       -0.24881916719614
C            7.64896560589623        3.79206547490578       -0.19635781948584
C            7.93912121515526        2.44580496142666       -0.02636405832200
C            4.98297406736167        2.27697778971493        0.82099392210161
C            3.60348164483042        2.29980403788399        0.78785828901773
C            0.71029289029619        0.22468130857653       -0.04859871853670
N            1.36544333565242       -0.94135713739663       -0.16850492845692
C            0.70464082301228       -2.07345064210238       -0.14129179510808
C            1.48857806216917       -3.27637122787687       -0.44160050003096
C            2.81359856771429       -3.34153135926112       -0.01438193064845
C            3.58697103052533       -4.44822913464939       -0.30665102930993
C            3.05139112470139       -5.49544606352254       -1.03900168127401
C            1.74282271879663       -5.42497655056282       -1.48909325193768
C            0.96233337926260       -4.32267687009723       -1.19601618063277
C           -2.80998259798234       -3.34240239343951       -0.00835207477268
C           -3.58448334817778       -4.44884473884255        0.28185584401516
H           -3.65519229750556       -6.36273196715476        1.24068394024097
H           -1.33006943481341       -6.23550152255676        2.05256708676260
H            0.05179784010443       -4.26888739357593        1.54643539471492
H           -3.06659903306609       -0.06325257054045        1.57247210955433
H           -5.52343374138228       -0.08608736093424        1.55108629059578
H           -6.63479135874879        4.12453486293374        0.33542872746928
H           -8.51460828316256        5.71495763172297        0.43933962904921
H          -10.83224936352282        4.94831013734356        0.24942283979677
H          -11.34788036811906        2.54553709916294       -0.02590990623837
H          -11.22571603493778       -0.18450341841473       -0.31464821771632
H          -10.49726892868701       -2.53642300447437       -0.54409027622869
H           -8.11765346713120       -3.11083731774080       -0.56446968021640
H           -6.38538002554869       -1.37272866906762       -0.33095779323623
H           -5.52721106371337        2.91376666248640       -1.48936893456788
H           -3.07031873096348        2.96266251168375       -1.44165236935291
H           -1.22027016083095        3.56490300481109        0.03061428750823
H            1.21908173422568        3.56592011924409       -0.01612595134400
H            3.07247468576571       -0.05136511665749       -1.57560001892289
H            5.52927644724852       -0.06972476599116       -1.55041617834996
H            6.39186197058046       -1.36796627612876        0.31674520593000
H            8.12755907983808       -3.10410780246515        0.53653237964503
H           10.50595914152288       -2.52422954376575        0.52572129830764
H           11.22933039611789       -0.16840854588385        0.32133144977475
H           11.34601565940212        2.56415573997124        0.06345858666666
H           10.82608317860258        4.96874736431160       -0.18732514050462
H            8.50738613013957        5.73223971305024       -0.37739911053270
H            6.63089343244498        4.13692120515730       -0.29719396949329
H            5.52236947143636        2.91145326798756        1.50849638616645
H            3.06589013815001        2.95764140513899        1.45536958887333
H            3.21726682466181       -2.51363124587737        0.54892888282058
H            4.61084025169535       -4.49496610144778        0.03448959870576
H            3.65473193280154       -6.36188349900357       -1.26629234556250
H            1.32869994847323       -6.23226995644045       -2.07508460919430
H           -0.05085926000761       -4.26488464705757       -1.56607902290650
H           -3.21226358860260       -2.51375474150743       -0.57155293204650
H           -4.60784506931861       -4.49470995328021       -0.06090951577386

          :  Hamiltonian                  GFN2-xTB          :
         :: gradient norm              0.000057192786 Eh/a0 ::
         :: HOMO-LUMO gap              1.496452414676 eV    ::
         :: SCC energy              -152.883336039078 Eh    ::
         :: -> dispersion             -0.139980806465 Eh    ::
         :: repulsion energy           2.841870567778 Eh    ::

    * Orbital Energies and Occupations

         #    Occupation            Energy/Eh            Energy/eV
      -------------------------------------------------------------
         1        2.0000           -0.6772477             -18.4288
       ...           ...                  ...                  ...
       128        2.0000           -0.4099974             -11.1566
       129        2.0000           -0.4099820             -11.1562
       130        2.0000           -0.4087494             -11.1226
       131        2.0000           -0.4049985             -11.0206
       132        2.0000           -0.4021654             -10.9435
       133        2.0000           -0.4021256             -10.9424
       134        2.0000           -0.3908364             -10.6352
       135        2.0000           -0.3848448             -10.4722
       136        2.0000           -0.3756514             -10.2220
       137        2.0000           -0.3756150             -10.2210
       138        2.0000           -0.3598377              -9.7917
       139        2.0000           -0.3576616              -9.7325
       140        2.0000           -0.3504832              -9.5371 (HOMO)
       141                         -0.2954896              -8.0407 (LUMO)
       142                         -0.2669073              -7.2629
       143                         -0.2505451              -6.8177
       144                         -0.2431143              -6.6155
       145                         -0.2407568              -6.5513
       146                         -0.2322122              -6.3188
       147                         -0.2320662              -6.3148
       148                         -0.2287080              -6.2235
       149                         -0.2286494              -6.2219
       150                         -0.2262046              -6.1553
       151                         -0.2200611              -5.9882
       ...                                ...                  ...
       276                          0.7491028              20.3841
      -------------------------------------------------------------
                  HL-Gap            0.0549936 Eh            1.4965 eV

     #   Z          covCN         q      C6AA      α(0)
     1   6 C        2.920    -0.027    28.684     8.783
     2   6 C        2.919    -0.028    28.701     8.785
     3   6 C        2.922    -0.029    28.734     8.791
     4   6 C        2.983     0.007    27.859     8.658
     5   6 C        2.944     0.084    26.121     8.382
     6   7 N        1.855    -0.235    26.997     7.701
     7   6 C        2.960     0.075    26.332     8.417
     8   6 C        2.974    -0.001    28.038     8.686
     9   6 C        2.976     0.014    27.691     8.632
    10   6 C        2.924    -0.026    28.656     8.779
    11   6 C        2.921    -0.043    29.060     8.840
    12   6 C        2.913     0.063    26.586     8.455
    13   7 N        2.803    -0.043    22.063     6.976
    14   6 C        3.076     0.047    26.876     8.500
    15   6 C        2.910    -0.051    29.265     8.871
    16   6 C        2.924    -0.034    28.839     8.807
    17   6 C        2.920    -0.041    29.022     8.834
    18   6 C        2.912    -0.033    28.820     8.803
    19   6 C        3.068    -0.017    28.368     8.733
    20   6 C        3.068    -0.017    28.366     8.733
    21   6 C        2.913    -0.033    28.822     8.803
    22   6 C        2.920    -0.041    29.024     8.835
    23   6 C        2.924    -0.034    28.835     8.806
    24   6 C        2.910    -0.051    29.260     8.870
    25   6 C        3.077     0.047    26.873     8.499
    26   6 C        2.920    -0.044    29.093     8.845
    27   6 C        2.925    -0.034    28.837     8.806
    28   6 C        2.920    -0.037    28.918     8.818
    29   6 C        2.920    -0.037    28.918     8.819
    30   6 C        2.974    -0.001    28.038     8.686
    31   6 C        2.976     0.014    27.692     8.632
    32   6 C        2.924    -0.026    28.657     8.779
    33   6 C        2.921    -0.043    29.062     8.840
    34   6 C        2.913     0.063    26.586     8.455
    35   7 N        2.803    -0.043    22.062     6.976
    36   6 C        3.076     0.047    26.874     8.499
    37   6 C        2.910    -0.051    29.260     8.870
    38   6 C        2.924    -0.034    28.835     8.806
    39   6 C        2.920    -0.041    29.024     8.835
    40   6 C        2.913    -0.033    28.822     8.803
    41   6 C        3.068    -0.017    28.366     8.733
    42   6 C        3.068    -0.017    28.368     8.733
    43   6 C        2.912    -0.033    28.820     8.803
    44   6 C        2.920    -0.041    29.022     8.834
    45   6 C        2.924    -0.034    28.839     8.807
    46   6 C        2.910    -0.051    29.265     8.871
    47   6 C        3.076     0.047    26.876     8.500
    48   6 C        2.920    -0.044    29.094     8.845
    49   6 C        2.925    -0.034    28.837     8.806
    50   6 C        2.960     0.075    26.332     8.417
    51   7 N        1.855    -0.235    26.997     7.701
    52   6 C        2.944     0.084    26.121     8.382
    53   6 C        2.983     0.007    27.859     8.658
    54   6 C        2.926    -0.026    28.644     8.777
    55   6 C        2.918    -0.027    28.683     8.783
    56   6 C        2.920    -0.027    28.683     8.783
    57   6 C        2.919    -0.028    28.701     8.785
    58   6 C        2.922    -0.029    28.735     8.791
    59   6 C        2.926    -0.026    28.643     8.777
    60   6 C        2.918    -0.027    28.683     8.782
    61   1 H        0.926     0.034     2.525     2.485
    62   1 H        0.926     0.033     2.539     2.492
    63   1 H        0.926     0.030     2.587     2.515
    64   1 H        0.926     0.053     2.282     2.363
    65   1 H        0.926     0.042     2.424     2.435
    66   1 H        0.926     0.027     2.631     2.537
    67   1 H        0.926     0.028     2.614     2.528
    68   1 H        0.926     0.027     2.627     2.534
    69   1 H        0.926     0.030     2.583     2.513
    70   1 H        0.926     0.030     2.584     2.514
    71   1 H        0.926     0.027     2.630     2.536
    72   1 H        0.926     0.027     2.629     2.536
    73   1 H        0.926     0.029     2.607     2.525
    74   1 H        0.926     0.040     2.444     2.445
    75   1 H        0.926     0.036     2.506     2.476
    76   1 H        0.926     0.039     2.461     2.453
    77   1 H        0.926     0.039     2.460     2.453
    78   1 H        0.926     0.053     2.282     2.362
    79   1 H        0.926     0.042     2.424     2.435
    80   1 H        0.926     0.029     2.606     2.525
    81   1 H        0.926     0.027     2.629     2.535
    82   1 H        0.926     0.027     2.630     2.536
    83   1 H        0.926     0.030     2.584     2.514
    84   1 H        0.926     0.030     2.583     2.513
    85   1 H        0.926     0.027     2.627     2.534
    86   1 H        0.926     0.028     2.614     2.528
    87   1 H        0.926     0.027     2.630     2.536
    88   1 H        0.926     0.040     2.444     2.445
    89   1 H        0.926     0.036     2.507     2.476
    90   1 H        0.926     0.046     2.367     2.406
    91   1 H        0.926     0.035     2.516     2.480
    92   1 H        0.926     0.034     2.525     2.485
    93   1 H        0.926     0.033     2.539     2.492
    94   1 H        0.926     0.030     2.586     2.515
    95   1 H        0.926     0.046     2.368     2.406
    96   1 H        0.926     0.035     2.515     2.480

molecular dipole:
                 x           y           z       tot (Debye)
 q only:        0.004      -0.377      -0.001
   full:        0.004      -0.365      -0.001       0.928

 projected vibrational frequencies (cm⁻¹)
eigval :       -0.00    -0.00     0.00     0.00     0.00     0.00
eigval :        7.69     8.53    10.59    12.83    14.54    19.08
eigval :       32.75    39.71    41.05    46.65    49.87    56.63
eigval :       61.26    72.73    79.62    88.73    90.30    99.64
eigval :      102.59   107.26   109.94   143.14   145.95   149.37
eigval :      160.15   162.40   181.02   192.77   199.68   219.04
eigval :      220.64   230.44   247.12   267.89   268.62   271.86
eigval :      272.00   280.55   303.81   310.06   346.42   363.13
eigval :      370.20   370.40   377.36   381.23   384.83   386.51
eigval :      387.46   394.64   397.31   412.84   420.96   424.57
eigval :      431.19   434.90   438.30   448.42   454.69   463.79
eigval :      503.26   503.67   516.66   519.00   519.94   534.86
eigval :      535.21   541.22   541.23   558.84   561.71   562.62
eigval :      577.01   583.31   586.03   587.49   592.38   596.30
eigval :      601.91   605.74   605.97   618.63   635.73   657.05
eigval :      660.59   670.01   674.20   674.27   678.24   685.28
eigval :      689.36   700.22   707.13   708.42   708.64   718.06
eigval :      737.89   748.44   756.83   758.01   762.98   764.20
eigval :      769.54   769.58   777.66   780.67   780.68   816.28
eigval :      819.19   847.52   865.23   865.37   873.18   873.37
eigval :      875.90   877.26   877.88   878.85   892.79   898.07
eigval :      898.21   901.77   901.86   902.40   902.57   902.97
eigval :      906.78   910.57   914.75   918.00   918.79   920.53
eigval :      921.07   925.78   926.26   928.64   929.07   930.57
eigval :      932.24   932.54   932.74   933.44   957.87   966.65
eigval :      977.92  1011.79  1012.13  1012.26  1025.40  1031.89
eigval :     1070.35  1070.43  1073.95  1074.04  1080.32  1082.79
eigval :     1102.85  1118.16  1118.31  1120.48  1120.97  1135.90
eigval :     1138.00  1143.27  1145.18  1153.00  1153.09  1176.84
eigval :     1176.89  1180.97  1180.98  1182.01  1182.07  1184.21
eigval :     1184.54  1195.25  1197.16  1202.34  1205.00  1237.05
eigval :     1237.08  1238.59  1244.64  1250.48  1259.58  1260.15
eigval :     1267.73  1269.76  1276.63  1279.80  1280.47  1299.67
eigval :     1300.67  1303.77  1304.05  1311.52  1316.83  1317.89
eigval :     1322.62  1326.37  1336.43  1349.00  1357.92  1358.10
eigval :     1362.34  1362.50  1370.12  1372.18  1394.42  1403.83
eigval :     1407.62  1428.15  1428.28  1428.85  1429.41  1431.61
eigval :     1433.34  1447.14  1464.03  1476.44  1476.64  1476.71
eigval :     1477.19  1488.62  1488.63  1495.91  1496.90  1522.12
eigval :     1537.82  1556.15  1559.42  1574.03  1575.10  1576.36
eigval :     1580.22  1581.71  1588.92  1589.11  1593.71  1594.64
eigval :     1594.78  1597.62  1598.96  1598.98  1615.28  1615.41
eigval :     3074.59  3074.62  3074.64  3074.98  3075.22  3075.47
eigval :     3075.55  3077.43  3077.80  3078.43  3078.61  3080.54
eigval :     3080.58  3081.72  3081.78  3085.47  3086.12  3086.77
eigval :     3087.60  3087.68  3089.02  3089.14  3090.06  3090.16
eigval :     3092.20  3092.33  3092.37  3093.10  3094.44  3094.49
eigval :     3096.03  3096.10  3096.80  3096.81  3115.95  3116.04

   temp. (K)  partition function   enthalpy   heat capacity  entropy
                                   cal/mol     cal/K/mol   cal/K/mol   J/K/mol
 298.15  VIB  0.261E+23            27373.996    173.465    171.962
         ROT  0.101E+09              888.752      2.981     39.601
         INT  0.263E+31            28262.748    176.446    211.563
         TR   0.205E+29             1481.254      4.968     45.762
         TOT                       29744.0020   181.4139   257.3247  1076.6465

       T/K    H(0)-H(T)+PV         H(T)/Eh          T*S/Eh         G(T)/Eh
   ------------------------------------------------------------------------
    298.15    0.474001E-01    0.783067E+00    0.122263E+00    0.660804E+00
   ------------------------------------------------------------------------

         :::::::::::::::::::::::::::::::::::::::::::::::::::::
         ::                  THERMODYNAMIC                  ::
         :::::::::::::::::::::::::::::::::::::::::::::::::::::
         :: total free energy        -149.380661428078 Eh   ::
         ::.................................................::
         :: total energy             -150.041465471297 Eh   ::
         :: zero point energy           0.735667227893 Eh   ::
         :: G(RRHO) w/o ZPVE           -0.074863184674 Eh   ::
         :: G(RRHO) contrib.            0.660804043219 Eh   ::
         :::::::::::::::::::::::::::::::::::::::::::::::::::::

           -------------------------------------------------
          | TOTAL ENERGY             -150.041465471297 Eh   |
          | TOTAL ENTHALPY           -149.258398159096 Eh   |
          | TOTAL FREE ENERGY        -149.380661428078 Eh   |
          | GRADIENT NORM               0.000057188397 Eh/α |
          | HOMO-LUMO GAP               1.496452567199 eV   |
           -------------------------------------------------

 * finished run on 2025/07/21 at 04:48:34.709
