   * xtb version 6.7.1 (edcfbbe) compiled by 'albert@albert-system' on 2024-07-22

   ID    Z sym.   atoms
    1    6 C      1-5, 7-12, 14-34, 36-50, 52-60
    2    7 N      6, 13, 35, 51
    3    1 H      61-96

          program call               : xtb data2507/gas/BDQPCz/BDQPCz.xyz --gfn 2 --ohess vtight --parallel 40 --molden --ceasefiles --namespace data2507/gas/BDQPCz/BDQPCz_gas_S0_preOpt
          :  Hamiltonian                  GFN2-xTB          :
 * total energy  :  -150.0088881 Eh     change       -0.4478238E-08 Eh
 * total energy  :  -150.0285624 Eh     change       -0.1967436E-01 Eh
 * total energy  :  -150.0337061 Eh     change       -0.5143666E-02 Eh
 * total energy  :  -150.0348904 Eh     change       -0.1184335E-02 Eh
 * total energy  :  -150.0360645 Eh     change       -0.1174068E-02 Eh
 * total energy  :  -150.0367534 Eh     change       -0.6889058E-03 Eh
 * total energy  :  -150.0373365 Eh     change       -0.5830640E-03 Eh
 * total energy  :  -150.0377917 Eh     change       -0.4552214E-03 Eh
 * total energy  :  -150.0380524 Eh     change       -0.2606752E-03 Eh
 * total energy  :  -150.0382006 Eh     change       -0.1481832E-03 Eh
 * total energy  :  -150.0409692 Eh     change       -0.2658747E-05 Eh
 * total energy  :  -150.0409713 Eh     change       -0.2006155E-05 Eh
 * total energy  :  -150.0409726 Eh     change       -0.1377907E-05 Eh
 * total energy  :  -150.0409738 Eh     change       -0.1170494E-05 Eh
 * total energy  :  -150.0409748 Eh     change       -0.9919253E-06 Eh
 * total energy  :  -150.0409757 Eh     change       -0.9351147E-06 Eh
 * total energy  :  -150.0409767 Eh     change       -0.9562480E-06 Eh
 * total energy  :  -150.0409775 Eh     change       -0.8345311E-06 Eh
 * total energy  :  -150.0409775 Eh     change       -0.1077501E-07 Eh
   *** GEOMETRY OPTIMIZATION CONVERGED AFTER 68 ITERATIONS ***

 final structure:
================
96
 xtb: 6.7.1 (edcfbbe)
C           -2.75640100825798       -5.55349003195785        1.32036207073368
C           -1.44126853553561       -5.39249054304669        1.72615580471874
C           -0.73335675436103       -4.26251352995670        1.36379929390966
C           -1.33974117437246       -3.27852366978493        0.58519915587134
C           -0.62431001732555       -2.05617021972818        0.20798965898291
N           -1.33112629788468       -0.95294145852220        0.17933160181496
C           -0.72367264867539        0.23359921353466        0.01545172204151
C           -1.47909430795486        1.43108481133854       -0.08512582590866
C           -2.94569769484889        1.40708615080951       -0.10104303406702
C           -3.66870264618788        0.57520986052001        0.75242342748483
C           -5.04851074609944        0.57534152162229        0.73528601132918
C           -5.74077298380647        1.41411253209841       -0.13388976520979
N           -7.14196826734483        1.42678040277311       -0.14163222775438
C           -7.95243099512467        1.58020758429763        0.96564969881438
C           -7.60550671527338        1.77914196806300        2.29440082727138
C           -8.62724495369976        1.93411394068138        3.21137475188115
C           -9.96498096061151        1.90135913721212        2.82340506344212
C          -10.31585665774172        1.72690759124868        1.49979800710543
C           -9.30662991021365        1.56933817267168        0.55902402822550
C           -9.30314862546958        1.39497176912865       -0.86631052242581
C          -10.30824198978319        1.29165684454243       -1.81890553560097
C           -9.95161116723895        1.10264962142593       -3.13900360614630
C           -8.61301852254358        1.00106112734820       -3.51186033929029
C           -7.59531200711656        1.10088666905649       -2.58282321144273
C           -7.94671064679420        1.31582558987027       -1.25770354492377
C           -5.02676391516435        2.24527932414279       -0.99270114340944
C           -3.64714522255003        2.23768194696013       -0.97448112554299
C           -0.78538662289260        2.62095033430051       -0.16234519462691
C            0.61018313610820        2.67337233283637       -0.11609633736710
C            1.37471973011040        1.53115387965450       -0.02746751829156
C            2.83691771395367        1.55696313892386        0.02686890092711
C            3.57206484549085        2.41400898179226       -0.78967634370494
C            4.95186971152957        2.39176502647835       -0.77747673877274
C            5.62894282351248        1.51615259466666        0.06718432571866
N            7.02789735764599        1.46523417243511        0.06886438504878
C            7.88363151445718        2.54228075420448        0.18243779521243
C            7.59293377755873        3.88791887370744        0.35554031651389
C            8.65254224913794        4.76738961548355        0.46813202326510
C            9.97300298788966        4.32582002172105        0.42014467395750
C           10.26833392567440        2.98526143499799        0.27364514890054
C            9.22036320472281        2.08166972929180        0.15793133104658
C            9.15751922981390        0.65381997792313        0.01626061261435
C           10.12198509408980       -0.34038873157199       -0.08321364435537
C            9.70962341294226       -1.64834523935029       -0.24074117881701
C            8.35578843187063       -1.96857879421250       -0.31699798654750
C            7.37738499226968       -0.99799814731474       -0.21955091555807
C            7.78582700261588        0.31523978198774       -0.03317126011556
C            4.90156448993885        0.67959852554745        0.91010945113345
C            3.52359716360513        0.69865130741788        0.88457465467838
C            0.69785234401894        0.28331196486870       -0.01422578985984
N            1.39528234499586       -0.85732979050561       -0.12900248597837
C            0.77758047728695       -2.01228365587523       -0.08827439761843
C            1.58633260523985       -3.19321626242814       -0.40514094079807
C            2.92982074574871       -3.21417259787091       -0.03454926589500
C            3.72054710764737       -4.30576799180037       -0.33647899820862
C            3.18402819517512       -5.38295333551819       -1.02308880685470
C            1.85611846509852       -5.35714155564949       -1.41792942840800
C            1.05841638541909       -4.27036043414115       -1.11415203070553
C           -2.67091516616300       -3.43375649329456        0.20315861911986
C           -3.37113738425378       -4.56880293410028        0.56388060100545
H           -3.30300965360778       -6.44186779525998        1.60036824589168
H           -0.96530295311802       -6.15073678691737        2.33039230899375
H            0.28622179480903       -4.13443216645727        1.69702343611444
H           -3.14168956641356       -0.07573567076706        1.43078803596947
H           -5.59968732353902       -0.08390959163178        1.38933536050484
H           -6.57174556556382        1.82351130803494        2.60253798565904
H           -8.38310861071206        2.08800545872661        4.25228321964286
H          -10.73431538091947        2.02399752326077        3.57127732784443
H          -11.35194433615181        1.71749792680434        1.19636544209091
H          -11.34587230377696        1.35436161191505       -1.52732008340034
H          -10.71758329808896        1.02251131698511       -3.89602956429249
H           -8.36534508644830        0.83702840142833       -4.55039576390661
H           -6.56164539668324        1.00321876847384       -2.87894573170962
H           -5.55985115208024        2.90466775901082       -1.66155231242169
H           -3.10389465460732        2.87580032231748       -1.65623509289749
H           -1.33693874341016        3.54838322341959       -0.21756880810241
H            1.09717591579805        3.63774501440099       -0.12885116616773
H            3.05553062346141        3.07611470786872       -1.46907549446951
H            5.51355918368382        3.03243606850876       -1.44089954448995
H            6.57306029171544        4.23746707623569        0.41257901392286
H            8.45256428967433        5.82068083909916        0.59978620107604
H           10.77329014374285        5.04546559558461        0.50850858061449
H           11.29142910779913        2.64109892151569        0.25291416773354
H           11.17135024701505       -0.08988453377958       -0.04259429484392
H           10.44347606757784       -2.43691688670252       -0.31747224922599
H            8.06499110914263       -2.99895740488305       -0.46073665606241
H            6.33150809009326       -1.25337607240417       -0.30159531063393
H            5.42729069819969        0.02631535444360        1.59079787983359
H            2.96649140295245        0.05813511387704        1.55031395556184
H            3.33640246023240       -2.36415462855283        0.49159753476317
H            4.75879324580775       -4.31724529267857       -0.03824666270226
H            3.80102278919926       -6.23761080445599       -1.25818908389187
H            1.44008218675434       -6.18775862100972       -1.96894014102336
H            0.02925551994761       -4.24858307725147       -1.44149734080290
H           -3.13762807771586       -2.65466274050711       -0.38052965542749
H           -4.39993798503003       -4.68624404962738        0.25647744171819

          :  Hamiltonian                  GFN2-xTB          :
         :: gradient norm              0.000072677985 Eh/a0 ::
         :: HOMO-LUMO gap              1.527435690082 eV    ::
         :: SCC energy              -152.883144853006 Eh    ::
         :: -> dispersion             -0.139301320317 Eh    ::
         :: repulsion energy           2.842167319701 Eh    ::

    * Orbital Energies and Occupations

         #    Occupation            Energy/Eh            Energy/eV
      -------------------------------------------------------------
         1        2.0000           -0.6774338             -18.4339
       ...           ...                  ...                  ...
       128        2.0000           -0.4103583             -11.1664
       129        2.0000           -0.4098576             -11.1528
       130        2.0000           -0.4082304             -11.1085
       131        2.0000           -0.4070970             -11.0777
       132        2.0000           -0.4025101             -10.9529
       133        2.0000           -0.4017939             -10.9334
       134        2.0000           -0.3899269             -10.6105
       135        2.0000           -0.3841075             -10.4521
       136        2.0000           -0.3760136             -10.2318
       137        2.0000           -0.3751918             -10.2095
       138        2.0000           -0.3600655              -9.7979
       139        2.0000           -0.3577020              -9.7336
       140        2.0000           -0.3516268              -9.5683 (HOMO)
       141                         -0.2954946              -8.0408 (LUMO)
       142                         -0.2670821              -7.2677
       143                         -0.2510170              -6.8305
       144                         -0.2431857              -6.6174
       145                         -0.2408380              -6.5535
       146                         -0.2326662              -6.3312
       147                         -0.2317269              -6.3056
       148                         -0.2300860              -6.2610
       149                         -0.2288915              -6.2285
       150                         -0.2257327              -6.1425
       151                         -0.2192371              -5.9657
       ...                                ...                  ...
       276                          0.7494798              20.3944
      -------------------------------------------------------------
                  HL-Gap            0.0561322 Eh            1.5274 eV

     #   Z          covCN         q      C6AA      α(0)
     1   6 C        2.920    -0.027    28.682     8.782
     2   6 C        2.919    -0.028    28.702     8.785
     3   6 C        2.923    -0.030    28.739     8.791
     4   6 C        2.982     0.007    27.860     8.658
     5   6 C        2.945     0.084    26.119     8.382
     6   7 N        1.854    -0.233    26.948     7.694
     7   6 C        2.959     0.074    26.347     8.419
     8   6 C        2.972    -0.001    28.043     8.686
     9   6 C        2.976     0.014    27.693     8.632
    10   6 C        2.924    -0.028    28.694     8.785
    11   6 C        2.921    -0.043    29.060     8.840
    12   6 C        2.913     0.063    26.587     8.455
    13   7 N        2.802    -0.043    22.076     6.978
    14   6 C        3.077     0.047    26.874     8.499
    15   6 C        2.910    -0.051    29.266     8.871
    16   6 C        2.924    -0.034    28.838     8.806
    17   6 C        2.920    -0.041    29.023     8.834
    18   6 C        2.912    -0.033    28.823     8.804
    19   6 C        3.068    -0.017    28.369     8.734
    20   6 C        3.068    -0.017    28.371     8.734
    21   6 C        2.912    -0.033    28.823     8.803
    22   6 C        2.920    -0.041    29.024     8.835
    23   6 C        2.924    -0.034    28.841     8.807
    24   6 C        2.910    -0.051    29.264     8.870
    25   6 C        3.076     0.047    26.873     8.499
    26   6 C        2.920    -0.044    29.088     8.844
    27   6 C        2.925    -0.034    28.843     8.807
    28   6 C        2.922    -0.037    28.927     8.820
    29   6 C        2.919    -0.037    28.920     8.819
    30   6 C        2.975    -0.000    28.034     8.685
    31   6 C        2.977     0.016    27.657     8.627
    32   6 C        2.924    -0.032    28.802     8.801
    33   6 C        2.920    -0.043    29.070     8.842
    34   6 C        2.914     0.064    26.571     8.453
    35   7 N        2.803    -0.042    22.059     6.976
    36   6 C        3.075     0.047    26.877     8.500
    37   6 C        2.910    -0.051    29.266     8.871
    38   6 C        2.924    -0.034    28.837     8.806
    39   6 C        2.920    -0.041    29.020     8.834
    40   6 C        2.912    -0.033    28.819     8.803
    41   6 C        3.068    -0.017    28.365     8.733
    42   6 C        3.068    -0.017    28.365     8.733
    43   6 C        2.913    -0.033    28.822     8.803
    44   6 C        2.920    -0.041    29.022     8.834
    45   6 C        2.924    -0.033    28.832     8.806
    46   6 C        2.909    -0.051    29.259     8.870
    47   6 C        3.077     0.047    26.873     8.499
    48   6 C        2.921    -0.042    29.053     8.839
    49   6 C        2.925    -0.024    28.592     8.769
    50   6 C        2.963     0.074    26.342     8.419
    51   7 N        1.855    -0.232    26.930     7.691
    52   6 C        2.946     0.083    26.144     8.386
    53   6 C        2.982     0.007    27.858     8.658
    54   6 C        2.926    -0.026    28.664     8.780
    55   6 C        2.918    -0.027    28.687     8.783
    56   6 C        2.920    -0.027    28.686     8.783
    57   6 C        2.919    -0.028    28.700     8.785
    58   6 C        2.922    -0.029    28.737     8.791
    59   6 C        2.925    -0.026    28.659     8.779
    60   6 C        2.918    -0.028    28.689     8.783
    61   1 H        0.926     0.034     2.526     2.485
    62   1 H        0.926     0.033     2.539     2.492
    63   1 H        0.926     0.030     2.591     2.517
    64   1 H        0.926     0.054     2.265     2.353
    65   1 H        0.926     0.042     2.427     2.436
    66   1 H        0.926     0.027     2.626     2.534
    67   1 H        0.926     0.028     2.614     2.528
    68   1 H        0.926     0.027     2.628     2.535
    69   1 H        0.926     0.030     2.584     2.514
    70   1 H        0.926     0.030     2.585     2.514
    71   1 H        0.926     0.027     2.629     2.536
    72   1 H        0.926     0.028     2.615     2.529
    73   1 H        0.926     0.027     2.629     2.536
    74   1 H        0.926     0.040     2.446     2.446
    75   1 H        0.926     0.036     2.505     2.475
    76   1 H        0.926     0.039     2.456     2.451
    77   1 H        0.926     0.039     2.462     2.454
    78   1 H        0.926     0.037     2.487     2.466
    79   1 H        0.926     0.041     2.431     2.438
    80   1 H        0.926     0.027     2.631     2.537
    81   1 H        0.926     0.028     2.612     2.527
    82   1 H        0.926     0.027     2.624     2.533
    83   1 H        0.926     0.030     2.581     2.512
    84   1 H        0.926     0.030     2.583     2.513
    85   1 H        0.926     0.027     2.628     2.535
    86   1 H        0.926     0.027     2.626     2.534
    87   1 H        0.926     0.029     2.595     2.519
    88   1 H        0.926     0.041     2.437     2.441
    89   1 H        0.926     0.043     2.413     2.429
    90   1 H        0.926     0.047     2.361     2.403
    91   1 H        0.926     0.035     2.519     2.482
    92   1 H        0.926     0.034     2.528     2.486
    93   1 H        0.926     0.033     2.542     2.493
    94   1 H        0.926     0.030     2.590     2.517
    95   1 H        0.926     0.048     2.345     2.395
    96   1 H        0.926     0.035     2.512     2.478

molecular dipole:
                 x           y           z       tot (Debye)
 q only:        0.075      -0.365       0.110
   full:        0.072      -0.363       0.066       0.955

 projected vibrational frequencies (cm⁻¹)
eigval :       -0.00    -0.00    -0.00     0.00     0.00     0.00
eigval :        7.07    10.34    11.57    14.66    15.46    17.85
eigval :       32.63    40.45    43.37    46.40    51.48    55.38
eigval :       61.36    72.26    83.61    89.51    94.30    96.89
eigval :      100.22   104.82   112.33   143.65   145.27   151.98
eigval :      153.21   165.83   174.76   186.65   205.28   220.27
eigval :      224.65   231.43   250.06   260.64   271.32   271.92
eigval :      276.50   284.57   293.95   310.46   347.21   364.93
eigval :      369.97   371.59   376.18   376.99   382.15   387.32
eigval :      392.91   395.40   408.50   409.56   420.95   423.57
eigval :      424.41   434.36   438.28   448.52   454.48   470.86
eigval :      494.51   502.22   517.49   519.01   522.43   534.05
eigval :      535.26   541.17   541.28   558.05   561.86   562.48
eigval :      579.28   581.07   586.26   587.45   592.87   593.46
eigval :      601.45   605.19   610.80   619.83   632.44   656.93
eigval :      659.32   669.49   673.97   674.25   677.39   680.93
eigval :      694.35   697.13   707.37   708.07   708.56   716.92
eigval :      738.05   749.62   756.08   758.03   762.41   763.06
eigval :      769.65   769.85   775.85   780.83   780.95   814.14
eigval :      821.86   847.02   865.85   866.13   873.43   873.94
eigval :      875.17   877.58   877.95   878.75   892.48   897.94
eigval :      898.19   902.08   902.21   902.27   902.69   902.77
eigval :      906.37   910.75   914.41   918.30   919.21   920.70
eigval :      921.20   925.75   926.14   927.94   929.09   930.61
eigval :      932.20   932.34   932.64   933.30   958.20   966.16
eigval :      977.92  1011.56  1012.09  1012.17  1025.51  1031.28
eigval :     1070.13  1070.33  1073.68  1073.87  1080.37  1082.73
eigval :     1102.59  1117.99  1118.20  1120.34  1121.29  1135.06
eigval :     1137.92  1142.99  1145.88  1152.82  1152.96  1176.69
eigval :     1176.88  1181.13  1181.29  1181.50  1182.01  1184.15
eigval :     1184.56  1195.07  1197.29  1202.07  1205.02  1236.97
eigval :     1237.04  1238.73  1244.72  1250.86  1259.18  1262.38
eigval :     1268.01  1270.93  1277.00  1279.71  1280.45  1299.66
eigval :     1300.60  1303.75  1304.20  1311.82  1318.21  1318.65
eigval :     1323.09  1326.66  1336.48  1348.46  1357.82  1357.98
eigval :     1362.25  1362.42  1370.17  1372.52  1392.44  1404.04
eigval :     1406.95  1428.13  1428.34  1428.72  1429.36  1431.74
eigval :     1433.41  1447.46  1458.74  1476.38  1476.58  1476.65
eigval :     1477.70  1488.50  1488.65  1495.88  1497.19  1523.27
eigval :     1534.75  1556.77  1559.69  1573.67  1575.03  1575.90
eigval :     1579.99  1581.45  1588.98  1589.17  1594.43  1594.48
eigval :     1595.60  1597.60  1598.91  1599.06  1615.15  1615.50
eigval :     3074.51  3074.83  3075.13  3075.21  3075.42  3075.61
eigval :     3075.74  3077.88  3078.52  3078.53  3080.12  3080.51
eigval :     3080.70  3081.66  3081.76  3084.94  3085.52  3086.22
eigval :     3087.29  3087.62  3087.88  3088.59  3089.33  3089.60
eigval :     3092.02  3092.81  3093.33  3093.70  3094.43  3094.52
eigval :     3096.06  3096.13  3098.06  3099.82  3101.87  3116.02

   temp. (K)  partition function   enthalpy   heat capacity  entropy
                                   cal/mol     cal/K/mol   cal/K/mol   J/K/mol
 298.15  VIB  0.175E+23            27365.808    173.574    171.635
         ROT  0.204E+09              888.752      2.981     41.003
         INT  0.356E+31            28254.561    176.555    212.638
         TR   0.205E+29             1481.254      4.968     45.762
         TOT                       29735.8144   181.5235   258.3998  1081.1448

       T/K    H(0)-H(T)+PV         H(T)/Eh          T*S/Eh         G(T)/Eh
   ------------------------------------------------------------------------
    298.15    0.473870E-01    0.783020E+00    0.122774E+00    0.660246E+00
   ------------------------------------------------------------------------

         :::::::::::::::::::::::::::::::::::::::::::::::::::::
         ::                  THERMODYNAMIC                  ::
         :::::::::::::::::::::::::::::::::::::::::::::::::::::
         :: total free energy        -149.380731894297 Eh   ::
         ::.................................................::
         :: total energy             -150.040977533302 Eh   ::
         :: zero point energy           0.735632684813 Eh   ::
         :: G(RRHO) w/o ZPVE           -0.075387045807 Eh   ::
         :: G(RRHO) contrib.            0.660245639005 Eh   ::
         :::::::::::::::::::::::::::::::::::::::::::::::::::::

           -------------------------------------------------
          | TOTAL ENERGY             -150.040977533302 Eh   |
          | TOTAL ENTHALPY           -149.257957811887 Eh   |
          | TOTAL FREE ENERGY        -149.380731894297 Eh   |
          | GRADIENT NORM               0.000072644164 Eh/α |
          | HOMO-LUMO GAP               1.527435592691 eV   |
           -------------------------------------------------

 * finished run on 2025/07/21 at 04:42:48.024
