   * xtb version 6.7.1 (edcfbbe) compiled by 'albert@albert-system' on 2024-07-22

   ID    Z sym.   atoms
    1    6 C      1-5, 7-12, 14-34, 36-50, 52-60
    2    7 N      6, 13, 35, 51
    3    1 H      61-96

          program call               : xtb data2507/gas/BDQPCz/BDQPCz_gas_S0_finalOpt.xtbopt.xyz --gfn 2 --spinpol --tblite --uhf 2 --ohess vtight --parallel 40 --molden --ceasefiles --namespace data2507/gas/BDQPCz/BDQPCz_gas_T1_preOpt
 * total energy  :  -149.9861038 Eh     change       -0.5350216E-08 Eh
 * total energy  :  -149.9893774 Eh     change       -0.3273607E-02 Eh
 * total energy  :  -149.9904280 Eh     change       -0.1050611E-02 Eh
 * total energy  :  -149.9906040 Eh     change       -0.1759856E-03 Eh
 * total energy  :  -149.9907159 Eh     change       -0.1118480E-03 Eh
 * total energy  :  -149.9907583 Eh     change       -0.4240654E-04 Eh
 * total energy  :  -149.9908041 Eh     change       -0.4580547E-04 Eh
 * total energy  :  -149.9908559 Eh     change       -0.5177213E-04 Eh
 * total energy  :  -149.9908951 Eh     change       -0.3924209E-04 Eh
 * total energy  :  -149.9909293 Eh     change       -0.3417206E-04 Eh
 * total energy  :  -149.9914762 Eh     change       -0.7879042E-06 Eh
 * total energy  :  -149.9914770 Eh     change       -0.7852031E-06 Eh
 * total energy  :  -149.9914778 Eh     change       -0.8039565E-06 Eh
 * total energy  :  -149.9914785 Eh     change       -0.6966623E-06 Eh
 * total energy  :  -149.9914794 Eh     change       -0.8905882E-06 Eh
 * total energy  :  -149.9914802 Eh     change       -0.7332456E-06 Eh
 * total energy  :  -149.9914810 Eh     change       -0.8825160E-06 Eh
 * total energy  :  -149.9914818 Eh     change       -0.7676807E-06 Eh
 * total energy  :  -149.9914818 Eh     change       -0.4216602E-07 Eh
   *** GEOMETRY OPTIMIZATION CONVERGED AFTER 185 ITERATIONS ***

 final structure:
================
96
 xtb: 6.7.1 (edcfbbe)
C           -3.13918621804604       -5.49345035295626        0.89091767326957
C           -1.83759498414344       -5.46196766328640        1.36689289638093
C           -1.02350107953611       -4.37735331313031        1.10565848362474
C           -1.50243508547804       -3.30776744779199        0.34925538314583
C           -0.69696263529544       -2.11647296274178        0.09411342076019
N           -1.33149951549834       -0.95163729856601        0.09209794310686
C           -0.72267030324065        0.22684449709920        0.02947238032144
C           -1.42186180439158        1.44178614354842        0.02395234069891
C           -2.88318564580619        1.44254855911284        0.06378564250141
C           -3.59552650457418        0.47303343309173        0.77204584973731
C           -4.97332615305079        0.45110037727154        0.76274244893185
C           -5.68523096315702        1.39845747709082        0.03078670676744
N           -7.08390399628717        1.35305360330036       -0.00862064646108
C           -7.93820943002090        2.41555251492183        0.20679200533622
C           -7.64831617723000        3.72714150216968        0.55565692905763
C           -8.70733681579511        4.59623731851692        0.73507521399787
C          -10.02705520462376        4.17671162849213        0.58296258165212
C          -10.32291412503109        2.86672236082533        0.26223943922980
C           -9.27557887756835        1.97457963743469        0.07639081071113
C           -9.21447889603438        0.57405068500221       -0.23610291026376
C          -10.18022595075504       -0.39050911150230       -0.49033885725275
C           -9.77019026759168       -1.67476984769787       -0.78826118214286
C           -8.41646355174730       -1.99774657981697       -0.85045901970156
C           -7.43699513906725       -1.05555734583671       -0.60182445921571
C           -7.84324308118928        0.23105034724521       -0.27613864117364
C           -4.98675568563589        2.38210309468519       -0.66592593743946
C           -3.60867306537834        2.40946414812030       -0.63771416294450
C           -0.68724993620469        2.63698479562556        0.00242891718500
C            0.68564035401763        2.63761742596233        0.01871652944413
C            1.42150061860682        1.44335366619989       -0.01079790687210
C            2.88283379611455        1.44601089652568       -0.05037628854109
C            3.59644330575207        0.48221067457669       -0.76511981289101
C            4.97427773137727        0.46191129268176       -0.75579802778683
C            5.68493693568608        1.40509797489894       -0.01727188997680
N            7.08366329097919        1.36127100840176        0.02198534966991
C            7.84453202117081        0.23849047045330        0.28180028726548
C            7.44006059135176       -1.05098414719784        0.59823209607990
C            8.42081809967599       -1.99349617251228        0.84048128913873
C            9.77409542649686       -1.66813334158810        0.78100226970280
C           10.18235610127677       -0.38119505520593        0.49233827003438
C            9.21528707309685        0.58374123571897        0.24464686396952
C            9.27447393148900        1.98654113130605       -0.05786103735777
C           10.32058922441018        2.88149309206727       -0.23695204938387
C           10.02295853656060        4.19330988564633       -0.54843576932985
C            8.70269107604411        4.61199556753567       -0.69808017884043
C            7.64486438470350        3.74011591351067       -0.52525876369631
C            7.93651474205701        2.42650015849743       -0.18559369250186
C            4.98515762801875        2.38304053195991        0.68613617582108
C            3.60705382837559        2.40893458575880        0.65789318891437
C            0.72360074242663        0.22773188836176       -0.02458543477141
N            1.33359785814074       -0.94971391667801       -0.09515062471111
C            0.70017760875514       -2.11512026915814       -0.10495410673112
C            1.50669637432789       -3.30401676754852       -0.36785472557054
C            2.82604844001979       -3.33400733390770        0.08825347915595
C            3.63481921001006       -4.41923957396816       -0.18553557723030
C            3.14523445667558       -5.48485750787267       -0.92347080322731
C            1.84365551050580       -5.45134290161801       -1.39934401234376
C            1.02867717971967       -4.36908566633888       -1.13118249316671
C           -2.82179035845245       -3.33588192448282       -0.10696257664357
C           -3.62967503588196       -4.42349794114502        0.15988698592124
H           -3.77073079198647       -6.34454175428994        1.09764710587982
H           -1.45704784590740       -6.28540856863366        1.95318208348150
H           -0.01815690067112       -4.35040448820479        1.49887541523950
H           -3.05961730036133       -0.26393546596513        1.35011124983439
H           -5.50838164765573       -0.29132380950874        1.33596367234675
H           -6.63013267713857        4.05731957844583        0.69569803065452
H           -8.50749306197982        5.62328485365260        1.00318668480509
H          -10.82679610395972        4.88755897571496        0.72869206730288
H          -11.34604154737753        2.53729639028159        0.16092707915182
H          -11.22881485415410       -0.13558116793974       -0.45878088786313
H          -10.50521955981886       -2.44078607837790       -0.98605813938504
H           -8.12628867251463       -3.00720579382656       -1.10269919103621
H           -6.39067028437252       -1.31204716901257       -0.67055889870911
H           -5.53170513651538        3.10594821537146       -1.25364505203261
H           -3.08445861881918        3.16084702607488       -1.20898520312949
H           -1.21950291794803        3.57572493892332        0.01311900408158
H            1.21693783370664        3.57695144962215        0.01432953031758
H            3.06149485382822       -0.25146433304244       -1.34824607535347
H            5.51030311160224       -0.27590041614255       -1.33404483709959
H            6.39409159727153       -1.30947963680781        0.66483448067982
H            8.13202823875697       -3.00513901421490        1.08545830450910
H           10.51017391024043       -2.43446888886504        0.97358486524841
H           11.23058213656856       -0.12452521748725        0.46292775279580
H           11.34415325170574        2.55283026543098       -0.13759652210936
H           10.82172267117969        4.90633574686032       -0.68876987455022
H            8.50146037931851        5.64063486661082       -0.95895597288117
H            6.62626147298595        4.06981776815215       -0.66336062612133
H            5.52913755957904        3.10346113635580        1.27893850181061
H            3.08184721958572        3.15573092285087        1.23424504700777
H            3.19948815280211       -2.49740841220027        0.66004207824392
H            4.65269424518981       -4.43391377052448        0.17606386475426
H            3.77746479077378       -6.33410641598534       -1.13561074265264
H            1.46380709362511       -6.27129108759029       -1.99095629671037
H            0.02333666434418       -4.34041462430384       -1.52428971713758
H           -3.19594435724169       -2.49591532103279       -0.67332157651999
H           -4.64756798712146       -4.43664765707934       -0.20171761856367

 projected vibrational frequencies (cm⁻¹)
eigval :       -0.00    -0.00    -0.00    -0.00     0.00     0.00
eigval :        8.44     9.03    11.98    14.00    16.84    19.63
eigval :       32.80    40.73    42.25    45.25    48.07    59.26
eigval :       60.06    75.56    78.93    89.25    94.22    98.57
eigval :      102.50   107.62   108.46   143.12   145.94   149.93
eigval :      159.35   164.14   178.52   198.80   201.97   216.58
eigval :      219.79   222.58   244.07   267.27   269.60   271.95
eigval :      272.02   280.01   302.02   303.76   333.69   348.50
eigval :      370.65   370.88   379.04   379.45   383.66   384.22
eigval :      387.77   392.47   395.84   409.13   417.24   420.87
eigval :      424.53   434.81   438.29   447.59   457.03   467.19
eigval :      496.83   499.66   516.36   518.44   519.55   535.17
eigval :      535.54   540.77   540.78   549.50   550.63   562.75
eigval :      571.91   581.90   582.29   585.17   586.40   591.78
eigval :      596.09   600.04   603.56   616.17   620.98   626.06
eigval :      652.57   664.82   666.22   674.17   674.33   675.77
eigval :      678.20   680.47   693.78   698.42   708.46   708.81
eigval :      717.83   736.29   749.40   757.42   757.46   759.66
eigval :      764.53   769.34   769.38   780.29   780.32   804.23
eigval :      813.85   824.74   860.41   861.16   871.29   872.05
eigval :      873.36   874.34   874.62   875.90   887.01   896.95
eigval :      897.82   898.36   899.12   901.29   901.56   902.40
eigval :      902.55   902.70   906.77   915.98   916.04   919.58
eigval :      919.74   920.17   924.88   924.90   927.16   927.76
eigval :      929.63   930.50   930.61   931.52   950.27   953.93
eigval :      975.62  1004.86  1012.10  1012.11  1018.38  1020.47
eigval :     1070.60  1070.61  1074.13  1074.19  1080.92  1083.06
eigval :     1105.94  1115.40  1118.46  1119.19  1120.77  1122.96
eigval :     1139.74  1141.93  1152.33  1152.51  1156.15  1176.48
eigval :     1176.55  1180.32  1180.36  1181.36  1181.42  1183.92
eigval :     1183.94  1193.32  1195.20  1199.07  1206.94  1217.34
eigval :     1229.54  1236.46  1236.46  1245.07  1245.71  1256.53
eigval :     1265.41  1267.85  1268.42  1278.19  1280.82  1293.07
eigval :     1293.63  1300.29  1301.01  1301.85  1303.29  1314.39
eigval :     1317.92  1320.67  1323.34  1334.11  1356.26  1358.29
eigval :     1360.50  1360.91  1361.34  1368.94  1370.37  1394.73
eigval :     1403.59  1412.42  1420.40  1426.17  1426.43  1428.04
eigval :     1430.29  1431.00  1437.25  1444.73  1469.50  1472.26
eigval :     1474.48  1474.91  1482.56  1485.92  1488.22  1488.46
eigval :     1494.98  1518.23  1548.90  1549.19  1572.05  1572.30
eigval :     1573.97  1573.98  1585.97  1587.93  1588.20  1588.80
eigval :     1589.91  1590.15  1596.66  1596.67  1612.50  1612.80
eigval :     3074.76  3074.82  3075.31  3075.34  3076.17  3076.18
eigval :     3077.85  3078.45  3080.58  3080.86  3081.35  3081.66
eigval :     3082.53  3082.63  3085.28  3085.45  3086.69  3086.92
eigval :     3087.51  3088.72  3088.74  3090.34  3090.49  3090.87
eigval :     3091.92  3092.85  3093.59  3094.44  3094.45  3095.73
eigval :     3095.95  3096.16  3096.60  3096.64  3097.16  3099.08

   temp. (K)  partition function   enthalpy   heat capacity  entropy
                                   cal/mol     cal/K/mol   cal/K/mol   J/K/mol
 298.15  VIB  0.169E+23            27516.761    174.636    172.189
         ROT  0.101E+09              888.752      2.981     39.603
         INT  0.170E+31            28405.513    177.616    211.792
         TR   0.205E+29             1481.254      4.968     45.762
         TOT                       29886.7672   182.5846   257.5542  1077.6067

       T/K    H(0)-H(T)+PV         H(T)/Eh          T*S/Eh         G(T)/Eh
   ------------------------------------------------------------------------
    298.15    0.476276E-01    0.780758E+00    0.122372E+00    0.658386E+00
   ------------------------------------------------------------------------

         :::::::::::::::::::::::::::::::::::::::::::::::::::::
         ::                  THERMODYNAMIC                  ::
         :::::::::::::::::::::::::::::::::::::::::::::::::::::
         :: total free energy        -149.333096252354 Eh   ::
         ::.................................................::
         :: total energy             -149.991481839262 Eh   ::
         :: zero point energy           0.733130293999 Eh   ::
         :: G(RRHO) w/o ZPVE           -0.074744707091 Eh   ::
         :: G(RRHO) contrib.            0.658385586907 Eh   ::
         :::::::::::::::::::::::::::::::::::::::::::::::::::::

           -------------------------------------------------
          | TOTAL ENERGY             -149.991481839262 Eh   |
          | TOTAL ENTHALPY           -149.210723950154 Eh   |
          | TOTAL FREE ENERGY        -149.333096252354 Eh   |
          | GRADIENT NORM               0.000091025109 Eh/α |
           -------------------------------------------------

 * finished run on 2025/07/21 at 04:49:06.766
