   * xtb version 6.7.1 (edcfbbe) compiled by 'albert@albert-system' on 2024-07-22

   ID    Z sym.   atoms
    1    6 C      1-9, 11-20, 22-34, 36-45, 47-50
    2    7 N      10, 21, 35, 46
    3    1 H      51-80

          program call               : xtb data2507/toluene/m-CzCNDMT/m-CzCNDMT_toluene_S0_finalOpt.xtbopt.xyz --gfn 2 --uhf 2 --gbsa toluene --ohess vtight --parallel 40 --molden --ceasefiles --namespace data2507/toluene/m-CzCNDMT/m-CzCNDMT_toluene_T1_preOpt
      * Solvation model:               GBSA
        Solvent                        toluene
        Solvent mass                       9.2140E+01 g/mol
          :  Hamiltonian                  GFN2-xTB          :
 * total energy  :  -125.4561825 Eh     change       -0.5042637E-08 Eh
 * total energy  :  -125.4578254 Eh     change       -0.1642861E-02 Eh
 * total energy  :  -125.4584017 Eh     change       -0.5763063E-03 Eh
 * total energy  :  -125.4585326 Eh     change       -0.1309275E-03 Eh
 * total energy  :  -125.4586016 Eh     change       -0.6897252E-04 Eh
 * total energy  :  -125.4586380 Eh     change       -0.3646146E-04 Eh
 * total energy  :  -125.4586674 Eh     change       -0.2935882E-04 Eh
 * total energy  :  -125.4587000 Eh     change       -0.3265355E-04 Eh
 * total energy  :  -125.4587160 Eh     change       -0.1595232E-04 Eh
 * total energy  :  -125.4587254 Eh     change       -0.9454335E-05 Eh
 * total energy  :  -125.4588600 Eh     change       -0.3294649E-06 Eh
 * total energy  :  -125.4588603 Eh     change       -0.2683126E-06 Eh
 * total energy  :  -125.4588606 Eh     change       -0.3131082E-06 Eh
 * total energy  :  -125.4588610 Eh     change       -0.4411833E-06 Eh
 * total energy  :  -125.4588614 Eh     change       -0.4278415E-06 Eh
 * total energy  :  -125.4588618 Eh     change       -0.3580879E-06 Eh
 * total energy  :  -125.4588620 Eh     change       -0.1825051E-06 Eh
 * total energy  :  -125.4588621 Eh     change       -0.1589334E-06 Eh
 * total energy  :  -125.4588621 Eh     change       -0.1440085E-08 Eh
   *** GEOMETRY OPTIMIZATION CONVERGED AFTER 68 ITERATIONS ***

 final structure:
================
80
 xtb: 6.7.1 (edcfbbe)
C            1.25399403771706        4.39067184980535       -0.82014738224358
C            0.56281904023459        3.34240567523240        0.00060770412949
C           -0.82164383643877        3.30122349480652        0.01781656503269
C           -1.53786695004835        2.33349102023725        0.71819673432582
C           -3.00931910958095        2.38217171019479        0.66517678264808
C           -3.67586199082038        3.57116409156424        0.97972197166426
C           -5.05597245641629        3.64489526683824        0.89966214184254
C           -5.79504506551490        2.55198519151615        0.49119055331678
C           -5.13901387527261        1.36176776772415        0.15641102873398
N           -5.87478959495654        0.26063692039836       -0.28601551556251
C           -6.85108720690763        0.29156845815833       -1.26323274555084
C           -7.28917559136774        1.35708580858538       -2.04055505699798
C           -8.27351350590745        1.10701933247923       -2.98515717878019
C           -8.80024610335937       -0.16566241903088       -3.16239163202042
C           -8.34196771545331       -1.24181798440798       -2.41036561934643
C           -7.35985450262054       -1.01434561757201       -1.46262828816408
C           -6.64676001337904       -1.87622707718756       -0.55072652096982
C           -6.71412054773240       -3.22087652799733       -0.28124573607563
C           -5.86617829670431       -3.75148170540555        0.71834700544737
C           -5.90528243243189       -5.11269607979175        1.01181399022216
N           -5.93657098203473       -6.24496423846295        1.25414229070133
C           -4.98974278923493       -2.89747977655563        1.44180141803425
C           -4.92536673072282       -1.55346760240154        1.17391681162386
C           -5.73426064487643       -1.03840351615389        0.15622825846114
C           -3.75106243003035        1.28209586562331        0.25752939162636
C           -0.83745604258466        1.36390634970309        1.44555974467188
C           -1.53029394256299        0.31762244845170        2.26732938550187
C            0.54664496833618        1.40592564078114        1.42958867343756
C            1.26334758556876        2.37552534460774        0.73227380640268
C            2.73350725396754        2.34341044625564        0.80853459097607
C            3.46782741481880        3.47069167371719        1.19139925456815
C            4.84876654212348        3.41138139892798        1.27593519439101
C            5.52304024594446        2.24165600841343        0.98588128538458
C            4.79915325459764        1.10317070783759        0.61097288429986
N            5.46767037994189       -0.08741688574385        0.32460782555484
C            5.13861435154960       -1.33391814337592        0.82230885240858
C            4.13290401200618       -1.69298218704556        1.71145075337026
C            4.03923173778832       -3.02719286372601        2.07927599126540
C            4.92675600906126       -3.97630861035770        1.59006104958894
C            5.95624866641709       -3.61686343217932        0.72669367970005
C            6.06664765423604       -2.29103813072568        0.34672629879760
C            7.00420628149348       -1.57565348336620       -0.48562550223842
C            8.09894177892478       -1.96545448839827       -1.21585327338430
C            8.80054604470756       -0.98421091115289       -1.95559087220062
C            9.92025399972561       -1.34422320249783       -2.70122745614681
N           10.85347190532031       -1.64339398103677       -3.31923213742302
C            8.35440723613148        0.36615541313382       -1.95756357997235
C            7.25707994537327        0.75404979876415       -1.23159478811601
C            6.59109277946309       -0.21025553121506       -0.46686776858044
C            3.40918898610163        1.16321836950232        0.52946085811690
H            1.34502461314393        5.31898621925888       -0.25547476512230
H            2.25032433180439        4.07028869887214       -1.11398348056338
H            0.67492010186825        4.60628025887620       -1.71610237752110
H           -1.37180393898735        4.03524162400852       -0.55455305414942
H           -3.10430596737717        4.42834706873266        1.30173006230490
H           -5.56173358015177        4.56183060687741        1.16394733951552
H           -6.87262713667275        2.59569232218619        0.45695638159504
H           -6.86992632589578        2.34457385049725       -1.92875001583482
H           -8.63317374060890        1.92010462847043       -3.59762547416594
H           -9.56826332347074       -0.32451856632920       -3.90432870120143
H           -8.73877447558499       -2.23342496835491       -2.56479370068542
H           -7.39807037790839       -3.87237019885704       -0.80394686577787
H           -4.37823677831113       -3.33049507862185        2.21938362136034
H           -4.27693262070078       -0.91087520782667        1.74713263665381
H           -3.24974866872829        0.37438781866172       -0.04134701533130
H           -1.66274429020546       -0.59754419090877        1.68896899405008
H           -2.50664307782679        0.66453049079921        2.59803420242311
H           -0.93267643802442        0.07023124394875        3.14256951549985
H            1.09437750502627        0.67393582882742        2.00643798505542
H            2.95061867618197        4.38265226863655        1.44332816407163
H            5.40578954093319        4.28435916646654        1.58229752146423
H            6.59596712727430        2.18354732277310        1.08481830516041
H            3.45530277838529       -0.95971044604085        2.11830397639423
H            3.26215183692133       -3.33122551940989        2.76434462776114
H            4.82400162343651       -5.00698267551830        1.89452087292035
H            6.65794809580558       -4.35302589400022        0.36596206436156
H            8.42770790282761       -2.99334360727262       -1.24351978490239
H            8.89538952411231        1.08332419805972       -2.55667437077134
H            6.91156326432425        1.77571778948475       -1.26422672957658
H            2.85786371772554        0.29623594460552        0.19708919103647

          :  Hamiltonian                  GFN2-xTB          :
         :: gradient norm              0.000138363210 Eh/a0 ::
         :: HOMO-LUMO gap              0.014483134084 eV    ::
         :: SCC energy              -127.855652057937 Eh    ::
         :: -> dispersion             -0.110232071609 Eh    ::
         :: -> Gsolv                  -0.066400966481 Eh    ::
         :: repulsion energy           2.396789921557 Eh    ::

    * Orbital Energies and Occupations

         #    Occupation            Energy/Eh            Energy/eV
      -------------------------------------------------------------
         1        2.0000           -0.6931065             -18.8604
       ...           ...                  ...                  ...
       106        2.0000           -0.4174456             -11.3593
       107        2.0000           -0.4156701             -11.3110
       108        2.0000           -0.4144283             -11.2772
       109        2.0000           -0.4131110             -11.2413
       110        2.0000           -0.4096590             -11.1474
       111        2.0000           -0.4093853             -11.1399
       112        2.0000           -0.3968210             -10.7980
       113        2.0000           -0.3937640             -10.7149
       114        2.0000           -0.3937260             -10.7138
       115        1.9999           -0.3853395             -10.4856
       116        1.5670           -0.3762013             -10.2370
       117        1.4330           -0.3756891             -10.2230
       118        0.5526           -0.2627629              -7.1501 (HOMO)
       119        0.4137           -0.2622307              -7.1357 (LUMO)
       120        0.0187           -0.2588006              -7.0423
       121        0.0132           -0.2584608              -7.0331
       122        0.0018           -0.2565759              -6.9818
       123                         -0.2428465              -6.6082
       124                         -0.2415452              -6.5728
       125                         -0.2365428              -6.4367
       126                         -0.2223304              -6.0499
       127                         -0.2206915              -6.0053
       128                         -0.2192317              -5.9656
       129                         -0.2052715              -5.5857
       ...                                ...                  ...
       230                          1.1545955              31.4181
      -------------------------------------------------------------
                  HL-Gap            0.0005322 Eh            0.0145 eV

     #   Z          covCN         q      C6AA      α(0)
     1   6 C        3.758    -0.109    22.638     6.783
     2   6 C        2.965     0.011    27.757     8.642
     3   6 C        2.932    -0.047    29.168     8.857
     4   6 C        2.979    -0.003    28.089     8.694
     5   6 C        2.976     0.018    27.594     8.617
     6   6 C        2.924    -0.036    28.889     8.814
     7   6 C        2.916    -0.027    28.667     8.780
     8   6 C        2.920    -0.044    29.093     8.845
     9   6 C        2.912     0.057    26.727     8.477
    10   7 N        2.798    -0.001    21.290     6.853
    11   6 C        3.067     0.047    26.869     8.500
    12   6 C        2.909    -0.043    29.059     8.839
    13   6 C        2.921    -0.031    28.771     8.796
    14   6 C        2.919    -0.031    28.770     8.796
    15   6 C        2.912    -0.030    28.742     8.791
    16   6 C        3.059    -0.010    28.211     8.710
    17   6 C        3.054    -0.010    28.213     8.711
    18   6 C        2.916    -0.029    28.733     8.790
    19   6 C        2.969    -0.005    28.132     8.700
    20   6 C        1.912     0.101    28.596     8.636
    21   7 N        0.911    -0.333    28.573     7.731
    22   6 C        2.925    -0.036    28.899     8.816
    23   6 C        2.905    -0.041    29.015     8.832
    24   6 C        3.063     0.031    27.237     8.558
    25   6 C        2.925    -0.044    29.093     8.845
    26   6 C        2.965     0.010    27.794     8.647
    27   6 C        3.757    -0.106    22.576     6.774
    28   6 C        2.932    -0.047    29.165     8.857
    29   6 C        2.979    -0.003    28.090     8.694
    30   6 C        2.976     0.019    27.589     8.616
    31   6 C        2.922    -0.034    28.851     8.808
    32   6 C        2.916    -0.027    28.675     8.781
    33   6 C        2.920    -0.043    29.078     8.843
    34   6 C        2.911     0.057    26.718     8.476
    35   7 N        2.798    -0.000    21.268     6.849
    36   6 C        3.066     0.047    26.871     8.500
    37   6 C        2.910    -0.042    29.045     8.837
    38   6 C        2.921    -0.031    28.768     8.796
    39   6 C        2.919    -0.031    28.762     8.795
    40   6 C        2.912    -0.030    28.737     8.790
    41   6 C        3.058    -0.010    28.203     8.709
    42   6 C        3.054    -0.010    28.202     8.709
    43   6 C        2.916    -0.029    28.736     8.790
    44   6 C        2.968    -0.004    28.124     8.699
    45   6 C        1.912     0.101    28.601     8.637
    46   7 N        0.911    -0.333    28.568     7.730
    47   6 C        2.925    -0.036    28.896     8.815
    48   6 C        2.905    -0.039    28.971     8.826
    49   6 C        3.062     0.031    27.255     8.561
    50   6 C        2.926    -0.046    29.149     8.854
    51   1 H        0.924     0.051     2.303     2.373
    52   1 H        0.925     0.045     2.385     2.415
    53   1 H        0.925     0.046     2.366     2.406
    54   1 H        0.925     0.036     2.502     2.474
    55   1 H        0.926     0.044     2.392     2.419
    56   1 H        0.926     0.044     2.390     2.418
    57   1 H        0.926     0.046     2.374     2.409
    58   1 H        0.926     0.047     2.361     2.403
    59   1 H        0.926     0.044     2.401     2.423
    60   1 H        0.926     0.042     2.426     2.436
    61   1 H        0.926     0.040     2.450     2.448
    62   1 H        0.926     0.032     2.562     2.503
    63   1 H        0.926     0.031     2.571     2.507
    64   1 H        0.926     0.047     2.356     2.400
    65   1 H        0.926     0.049     2.331     2.387
    66   1 H        0.924     0.049     2.333     2.388
    67   1 H        0.925     0.042     2.423     2.434
    68   1 H        0.925     0.045     2.378     2.412
    69   1 H        0.926     0.033     2.541     2.493
    70   1 H        0.926     0.049     2.335     2.390
    71   1 H        0.926     0.045     2.388     2.417
    72   1 H        0.926     0.044     2.391     2.418
    73   1 H        0.926     0.047     2.362     2.403
    74   1 H        0.926     0.044     2.395     2.420
    75   1 H        0.926     0.042     2.422     2.434
    76   1 H        0.926     0.040     2.445     2.445
    77   1 H        0.926     0.033     2.550     2.497
    78   1 H        0.926     0.031     2.579     2.511
    79   1 H        0.926     0.044     2.401     2.423
    80   1 H        0.926     0.048     2.346     2.395

molecular dipole:
                 x           y           z       tot (Debye)
 q only:       -2.811       4.765       1.263
   full:       -3.095       5.245       1.383      15.874

 projected vibrational frequencies (cm⁻¹)
eigval :       -0.00    -0.00    -0.00     0.00     0.00     0.00
eigval :        7.22    11.24    12.06    18.24    22.78    29.15
eigval :       42.36    57.48    59.16    70.55    73.07    82.91
eigval :       87.52    96.93   102.67   108.07   111.22   118.02
eigval :      122.13   139.19   142.91   160.07   160.12   164.74
eigval :      180.95   203.06   216.34   225.12   230.67   236.81
eigval :      259.16   267.33   268.06   270.38   279.06   283.48
eigval :      290.18   308.28   317.97   347.55   354.12   376.83
eigval :      380.42   385.31   388.89   392.48   401.96   404.61
eigval :      411.17   423.07   430.80   434.58   443.97   447.43
eigval :      455.45   456.96   458.54   496.90   506.56   524.98
eigval :      536.83   540.57   549.09   556.91   561.47   564.83
eigval :      570.38   587.18   590.55   594.34   599.65   611.42
eigval :      627.29   634.56   646.55   650.04   652.56   660.97
eigval :      664.14   671.62   672.70   690.88   699.11   699.40
eigval :      712.66   722.43   753.25   764.88   765.71   787.73
eigval :      792.53   794.03   796.01   812.44   822.75   837.03
eigval :      838.47   844.75   853.30   859.21   861.78   865.84
eigval :      879.03   881.88   884.44   886.66   892.31   894.45
eigval :      899.46   899.91   902.10   906.90   909.77   915.54
eigval :      916.43   924.68   925.46   939.05   984.84   986.99
eigval :     1000.62  1007.68  1008.86  1020.17  1025.19  1027.30
eigval :     1030.53  1038.60  1049.21  1056.65  1070.34  1072.68
eigval :     1095.41  1117.39  1118.19  1125.74  1128.32  1132.23
eigval :     1150.44  1166.11  1170.32  1171.50  1175.31  1182.08
eigval :     1184.98  1187.00  1192.39  1199.00  1214.66  1224.45
eigval :     1227.79  1236.35  1240.90  1249.11  1255.12  1257.91
eigval :     1258.90  1266.23  1268.61  1283.53  1311.64  1316.45
eigval :     1319.04  1320.51  1323.05  1325.11  1332.74  1336.58
eigval :     1349.16  1358.53  1387.57  1391.33  1397.45  1400.68
eigval :     1401.72  1403.60  1411.00  1416.22  1419.56  1425.16
eigval :     1432.52  1446.16  1449.82  1453.57  1456.31  1473.61
eigval :     1478.99  1481.40  1482.99  1485.16  1487.13  1489.91
eigval :     1493.32  1503.80  1523.62  1525.34  1539.31  1551.53
eigval :     1555.27  1558.80  1562.08  1582.64  2171.61  2229.23
eigval :     2988.56  2993.05  3027.60  3027.64  3032.05  3042.27
eigval :     3070.37  3070.97  3081.35  3081.54  3082.36  3082.89
eigval :     3084.20  3085.58  3088.26  3088.40  3089.62  3090.10
eigval :     3090.79  3093.86  3096.22  3096.91  3098.18  3098.29
eigval :     3099.06  3100.66  3102.57  3106.72  3108.21  3109.14

   temp. (K)  partition function   enthalpy   heat capacity  entropy
                                   cal/mol     cal/K/mol   cal/K/mol   J/K/mol
 298.15  VIB  0.141E+20            24437.134    153.074    152.768
         ROT  0.135E+09              888.752      2.981     40.188
         INT  0.191E+28            25325.887    156.055    192.956
         TR   0.156E+29             1481.254      4.968     45.225
         TOT                       26807.1407   161.0230   238.1805   996.5474

       T/K    H(0)-H(T)+PV         H(T)/Eh          T*S/Eh         G(T)/Eh
   ------------------------------------------------------------------------
    298.15    0.427199E-01    0.642934E+00    0.113167E+00    0.529766E+00
   ------------------------------------------------------------------------

         :::::::::::::::::::::::::::::::::::::::::::::::::::::
         ::                  THERMODYNAMIC                  ::
         :::::::::::::::::::::::::::::::::::::::::::::::::::::
         :: total free energy        -124.929095711155 Eh   ::
         ::.................................................::
         :: total energy             -125.458862150660 Eh   ::
         :: zero point energy           0.600213801823 Eh   ::
         :: G(RRHO) w/o ZPVE           -0.070447362318 Eh   ::
         :: G(RRHO) contrib.            0.529766439506 Eh   ::
         :::::::::::::::::::::::::::::::::::::::::::::::::::::

           -------------------------------------------------
          | TOTAL ENERGY             -125.458862150660 Eh   |
          | TOTAL ENTHALPY           -124.815928450883 Eh   |
          | TOTAL FREE ENERGY        -124.929095711155 Eh   |
          | GRADIENT NORM               0.000132788976 Eh/α |
          | HOMO-LUMO GAP               0.014481572983 eV   |
           -------------------------------------------------

 * finished run on 2025/08/26 at 00:50:31.979
