   * xtb version 6.7.1 (edcfbbe) compiled by 'albert@albert-system' on 2024-07-22

   ID    Z sym.   atoms
    1    6 C      1-9, 11-20, 22-34, 36-45, 47-50
    2    7 N      10, 21, 35, 46
    3    1 H      51-80

          program call               : xtb data2507/toluene/m-CzCNDMT/m-CzCNDMT_toluene_T1_crest.xyz --gfn 2 --uhf 2 --gbsa toluene --ohess vtight --parallel 40 --molden --ceasefiles --namespace data2507/toluene/m-CzCNDMT/m-CzCNDMT_toluene_T1_finalOpt
      * Solvation model:               GBSA
        Solvent                        toluene
        Solvent mass                       9.2140E+01 g/mol
          :  Hamiltonian                  GFN2-xTB          :
 * total energy  :  -125.4599046 Eh     change       -0.1963571E-08 Eh
 * total energy  :  -125.4599479 Eh     change       -0.4327753E-04 Eh
 * total energy  :  -125.4599588 Eh     change       -0.1091792E-04 Eh
 * total energy  :  -125.4599589 Eh     change       -0.4658568E-07 Eh
 * total energy  :  -125.4599649 Eh     change       -0.6052431E-05 Eh
 * total energy  :  -125.4599681 Eh     change       -0.3231591E-05 Eh
 * total energy  :  -125.4599701 Eh     change       -0.1996810E-05 Eh
 * total energy  :  -125.4599727 Eh     change       -0.2557459E-05 Eh
 * total energy  :  -125.4599742 Eh     change       -0.1457566E-05 Eh
 * total energy  :  -125.4599756 Eh     change       -0.1436135E-05 Eh
 * total energy  :  -125.4599943 Eh     change       -0.2071850E-06 Eh
 * total energy  :  -125.4599947 Eh     change       -0.3760437E-06 Eh
 * total energy  :  -125.4599953 Eh     change       -0.6846696E-06 Eh
 * total energy  :  -125.4599961 Eh     change       -0.7115930E-06 Eh
 * total energy  :  -125.4599964 Eh     change       -0.3548983E-06 Eh
 * total energy  :  -125.4599963 Eh     change        0.7516536E-07 Eh
 * total energy  :  -125.4599966 Eh     change       -0.2824353E-06 Eh
 * total energy  :  -125.4599967 Eh     change       -0.1138610E-06 Eh
 * total energy  :  -125.4599968 Eh     change       -0.9592225E-07 Eh
   *** GEOMETRY OPTIMIZATION CONVERGED AFTER 47 ITERATIONS ***

 final structure:
================
80
 xtb: 6.7.1 (edcfbbe)
C            1.21763019158466        4.73096387321468       -0.23120723171727
C            0.56432864279060        3.51623837983514        0.35630950161088
C           -0.79469132520802        3.47312955215587        0.42740974365055
C           -1.54363946511368        2.31126030945732        0.77553618004620
C           -2.96626505073570        2.35965672296643        0.69741800228599
C           -3.66162129804678        3.56489193325999        1.00102103582627
C           -5.02863108520975        3.64525416489286        0.91330784689618
C           -5.78339255868411        2.55403509642493        0.49309630507073
C           -5.11884084901456        1.36495460561196        0.15778551751043
N           -5.86982418911854        0.27051143213889       -0.31563540755339
C           -6.75994480970079        0.31142053535237       -1.37142330090852
C           -7.08915247180505        1.37049195349712       -2.20634352695776
C           -8.00704687400181        1.13513410607825       -3.21234946680648
C           -8.58055037674288       -0.12198731181373       -3.39566301677405
C           -8.24040986369089       -1.18547764315662       -2.58178612566172
C           -7.32076914288516       -0.97235612821949       -1.56341857004151
C           -6.73272027954216       -1.82298425807346       -0.56506150453881
C           -6.88600274158843       -3.15936059982185       -0.24520604251838
C           -6.15096998845535       -3.67233392427003        0.82411396874961
C           -6.27709232871127       -5.03223597406366        1.16776043992826
N           -6.37982941498572       -6.14271447458454        1.44725302903456
C           -5.28871857186189       -2.85056655163043        1.57309547098460
C           -5.13038018623617       -1.51922483132543        1.26172011470138
C           -5.84007990827457       -1.00674351520058        0.17986954647446
C           -3.75006088314589        1.26239930493036        0.26892272897574
C           -0.77759362640852        1.13729877397152        1.13416001803099
C           -1.43272720300997       -0.08356948120018        1.70601859434785
C            0.58145350518210        1.18165494644566        1.06857810387538
C            1.33078837113728        2.34829157778701        0.73557344089469
C            2.74984367831803        2.31987459118288        0.85013428062507
C            3.51724395049672        3.44589250857708        1.26043593993647
C            4.88504332072202        3.38216194491212        1.35497641927948
C            5.57218660645994        2.20914627981274        1.05508854789003
C            4.83691917603848        1.07973369752110        0.66171956836816
N            5.51493974456962       -0.11673755450055        0.36196680633382
C            5.23197812330051       -1.35867002001581        0.89819359718545
C            4.28639954448149       -1.71471408466212        1.84991039369154
C            4.22841665933581       -3.04040037222842        2.23622161934876
C            5.09074001032258       -3.99378722736453        1.69776819920324
C            6.04901583421415       -3.64183720611667        0.76667788618120
C            6.12595672411389       -2.31503342720284        0.36425679442493
C            6.98583833253089       -1.60306317877962       -0.54168482367338
C            8.03470219317663       -1.98792975681288       -1.35584390856176
C            8.65663112682173       -1.01342142237802       -2.13753470768602
C            9.73290687610544       -1.37202737329602       -2.97184600558675
N           10.61317968013419       -1.66466276718926       -3.65105274713986
C            8.22102136646334        0.32410660863124       -2.11400042887571
C            7.17562619967102        0.71601346725899       -1.30851012745292
C            6.56736939018057       -0.24611807151559       -0.50683940216848
C            3.46459441860097        1.12729873432725        0.57509325226840
H            1.40080323963988        5.48483924047726        0.53587673447931
H            2.16322245868320        4.48084219646448       -0.70494434518254
H            0.56175369133406        5.18115844912508       -0.97467158702912
H           -1.34899731783489        4.33742658873892        0.09095301304997
H           -3.10266252053798        4.41365743986436        1.36289930606356
H           -5.53133345860040        4.56452702468804        1.17751591363529
H           -6.85881108690578        2.60797258658154        0.43461613958573
H           -6.63730103136561        2.34244182237790       -2.07988311071233
H           -8.28349177991613        1.94245126999313       -3.87433083957640
H           -9.29459031925807       -0.26510849917896       -4.19302711463461
H           -8.67501745939259       -2.16208794458130       -2.73282452492372
H           -7.55718364623973       -3.79649225967939       -0.80141543203014
H           -4.74987977567586       -3.28198488315041        2.40373485217878
H           -4.48023849084702       -0.88962763490336        1.84749184225546
H           -3.26804113404257        0.35597743378195       -0.05781464623446
H           -1.67958411178216       -0.80234250836835        0.92339328893567
H           -2.34343207434404        0.18059344454192        2.23765825170508
H           -0.75567912474831       -0.58037966776749        2.39874899554463
H            1.13247090979149        0.31229846785487        1.39639180936089
H            3.00851713338622        4.34431563887228        1.56562099825953
H            5.44082785425126        4.24774298239294        1.68536710303936
H            6.64374184932250        2.14887667176275        1.15987562752757
H            3.62735899672785       -0.97862199928236        2.28372190429863
H            3.50059607536680       -3.34476091591866        2.97383406029814
H            5.01158424246733       -5.02057740093275        2.02249251149808
H            6.72699900880253       -4.37796545576610        0.36201958666842
H            8.36964009485935       -3.01360251341711       -1.39401456704460
H            8.71949419733896        1.04454472513163       -2.74566759931909
H            6.83505700294888        1.73979445045566       -1.30657427564842
H            2.93362145549768        0.25764564982153        0.21981811434483

          :  Hamiltonian                  GFN2-xTB          :
         :: gradient norm              0.000073588765 Eh/a0 ::
         :: HOMO-LUMO gap              0.234137714547 eV    ::
         :: SCC energy              -127.861514195923 Eh    ::
         :: -> dispersion             -0.110334569157 Eh    ::
         :: -> Gsolv                  -0.060380830432 Eh    ::
         :: repulsion energy           2.401517367982 Eh    ::

    * Orbital Energies and Occupations

         #    Occupation            Energy/Eh            Energy/eV
      -------------------------------------------------------------
         1        2.0000           -0.6907221             -18.7955
       ...           ...                  ...                  ...
       106        2.0000           -0.4185708             -11.3899
       107        2.0000           -0.4183994             -11.3852
       108        2.0000           -0.4147103             -11.2848
       109        2.0000           -0.4141013             -11.2683
       110        2.0000           -0.4132458             -11.2450
       111        2.0000           -0.4047512             -11.0138
       112        2.0000           -0.3952212             -10.7545
       113        2.0000           -0.3937919             -10.7156
       114        2.0000           -0.3931754             -10.6988
       115        1.9958           -0.3764430             -10.2435
       116        1.9780           -0.3748626             -10.2005
       117        1.0263           -0.3678259             -10.0091
       118        0.9867           -0.2740268              -7.4566 (HOMO)
       119        0.0086           -0.2654225              -7.2225 (LUMO)
       120        0.0047           -0.2648583              -7.2072
       121        0.0000           -0.2598717              -7.0715
       122        0.0000           -0.2592654              -7.0550
       123                         -0.2358173              -6.4169
       124                         -0.2321059              -6.3159
       125                         -0.2302085              -6.2643
       126                         -0.2176216              -5.9218
       127                         -0.2171554              -5.9091
       128                         -0.2157420              -5.8706
       129                         -0.2079550              -5.6587
       ...                                ...                  ...
       230                          1.1611200              31.5957
      -------------------------------------------------------------
                  HL-Gap            0.0086043 Eh            0.2341 eV

     #   Z          covCN         q      C6AA      α(0)
     1   6 C        3.759    -0.109    22.639     6.783
     2   6 C        2.955     0.014    27.699     8.632
     3   6 C        2.922    -0.052    29.293     8.876
     4   6 C        2.969    -0.002    28.079     8.692
     5   6 C        2.969     0.010    27.797     8.648
     6   6 C        2.921    -0.039    28.969     8.826
     7   6 C        2.912    -0.030    28.748     8.792
     8   6 C        2.919    -0.050    29.236     8.867
     9   6 C        2.907     0.057    26.719     8.476
    10   7 N        2.803    -0.029    21.799     6.934
    11   6 C        3.082     0.049    26.818     8.490
    12   6 C        2.909    -0.046    29.148     8.853
    13   6 C        2.924    -0.031    28.774     8.797
    14   6 C        2.920    -0.037    28.929     8.820
    15   6 C        2.912    -0.031    28.777     8.796
    16   6 C        3.065    -0.016    28.344     8.730
    17   6 C        3.068    -0.013    28.274     8.719
    18   6 C        2.920    -0.023    28.587     8.768
    19   6 C        2.973     0.001    27.993     8.679
    20   6 C        1.914     0.116    28.240     8.582
    21   7 N        0.911    -0.292    27.530     7.589
    22   6 C        2.930    -0.026    28.648     8.778
    23   6 C        2.908    -0.046    29.149     8.853
    24   6 C        3.077     0.053    26.722     8.475
    25   6 C        2.922    -0.053    29.315     8.879
    26   6 C        2.955     0.013    27.727     8.637
    27   6 C        3.759    -0.106    22.572     6.773
    28   6 C        2.922    -0.052    29.289     8.875
    29   6 C        2.969    -0.002    28.064     8.690
    30   6 C        2.969     0.010    27.797     8.648
    31   6 C        2.918    -0.038    28.954     8.824
    32   6 C        2.912    -0.031    28.767     8.795
    33   6 C        2.918    -0.050    29.250     8.869
    34   6 C        2.907     0.058    26.701     8.473
    35   7 N        2.803    -0.028    21.776     6.931
    36   6 C        3.080     0.048    26.827     8.491
    37   6 C        2.910    -0.046    29.143     8.852
    38   6 C        2.924    -0.031    28.770     8.796
    39   6 C        2.920    -0.037    28.923     8.819
    40   6 C        2.912    -0.031    28.768     8.795
    41   6 C        3.065    -0.016    28.334     8.729
    42   6 C        3.067    -0.013    28.260     8.717
    43   6 C        2.920    -0.023    28.587     8.768
    44   6 C        2.973     0.002    27.976     8.676
    45   6 C        1.914     0.116    28.238     8.582
    46   7 N        0.911    -0.291    27.502     7.585
    47   6 C        2.930    -0.025    28.639     8.776
    48   6 C        2.908    -0.045    29.118     8.848
    49   6 C        3.076     0.054    26.716     8.474
    50   6 C        2.925    -0.053    29.323     8.880
    51   1 H        0.924     0.056     2.251     2.346
    52   1 H        0.925     0.050     2.319     2.381
    53   1 H        0.925     0.049     2.339     2.391
    54   1 H        0.926     0.036     2.500     2.473
    55   1 H        0.926     0.040     2.445     2.445
    56   1 H        0.926     0.036     2.505     2.475
    57   1 H        0.926     0.037     2.495     2.470
    58   1 H        0.926     0.039     2.457     2.451
    59   1 H        0.926     0.038     2.473     2.459
    60   1 H        0.926     0.036     2.507     2.476
    61   1 H        0.926     0.036     2.503     2.474
    62   1 H        0.926     0.039     2.460     2.453
    63   1 H        0.926     0.040     2.446     2.446
    64   1 H        0.926     0.047     2.352     2.398
    65   1 H        0.926     0.045     2.382     2.413
    66   1 H        0.924     0.053     2.286     2.364
    67   1 H        0.925     0.047     2.355     2.400
    68   1 H        0.925     0.047     2.363     2.404
    69   1 H        0.926     0.034     2.530     2.487
    70   1 H        0.926     0.048     2.350     2.397
    71   1 H        0.926     0.037     2.495     2.470
    72   1 H        0.926     0.036     2.506     2.475
    73   1 H        0.926     0.039     2.457     2.451
    74   1 H        0.926     0.039     2.464     2.455
    75   1 H        0.926     0.036     2.499     2.472
    76   1 H        0.926     0.037     2.496     2.470
    77   1 H        0.926     0.040     2.445     2.445
    78   1 H        0.926     0.040     2.453     2.449
    79   1 H        0.926     0.046     2.365     2.405
    80   1 H        0.926     0.041     2.435     2.440

molecular dipole:
                 x           y           z       tot (Debye)
 q only:       -1.447       3.365       0.960
   full:       -1.689       3.857       1.100      11.062

 projected vibrational frequencies (cm⁻¹)
eigval :       -0.00    -0.00     0.00     0.00     0.00     0.00
eigval :        3.98     6.71    12.03    21.51    26.99    35.37
eigval :       38.86    59.36    62.78    72.43    76.09    84.85
eigval :       93.38   100.79   105.43   108.41   111.36   117.36
eigval :      125.39   146.92   161.28   166.33   178.34   191.24
eigval :      196.10   207.20   213.01   217.29   225.75   230.74
eigval :      253.45   267.96   273.27   274.76   286.77   294.20
eigval :      299.14   310.98   326.33   351.86   372.46   377.28
eigval :      388.36   389.17   389.92   403.99   404.12   410.37
eigval :      415.58   420.09   420.42   433.58   444.77   465.99
eigval :      466.59   474.99   479.78   499.04   501.45   530.52
eigval :      538.61   541.97   547.50   554.51   562.92   570.66
eigval :      584.71   591.91   595.05   595.68   597.74   600.36
eigval :      621.36   627.27   632.72   643.71   649.00   658.43
eigval :      666.87   677.88   677.92   695.10   707.72   709.20
eigval :      709.95   735.01   738.61   759.13   759.24   773.97
eigval :      777.49   798.44   815.01   818.94   839.45   843.36
eigval :      846.41   849.95   850.89   855.95   860.19   862.95
eigval :      865.64   867.33   873.80   877.00   899.10   901.99
eigval :      904.22   906.10   906.77   907.01   911.54   920.57
eigval :      922.73   925.63   926.73   930.87   969.53   972.17
eigval :     1004.18  1009.84  1013.45  1015.59  1021.46  1022.85
eigval :     1027.62  1039.41  1067.80  1067.97  1110.61  1111.89
eigval :     1120.86  1125.04  1143.48  1144.14  1155.30  1162.53
eigval :     1171.42  1172.88  1173.88  1178.53  1180.29  1182.19
eigval :     1183.31  1185.77  1215.87  1226.63  1229.69  1233.69
eigval :     1238.98  1242.56  1248.41  1262.08  1270.98  1273.81
eigval :     1291.22  1299.93  1304.62  1321.20  1325.20  1333.17
eigval :     1337.29  1344.88  1345.90  1349.65  1352.10  1355.36
eigval :     1364.06  1370.52  1379.90  1385.66  1396.95  1399.56
eigval :     1410.24  1416.31  1418.01  1429.07  1433.46  1436.30
eigval :     1453.29  1458.30  1474.11  1475.11  1478.12  1479.91
eigval :     1480.62  1481.22  1483.27  1485.58  1515.55  1525.64
eigval :     1541.21  1543.21  1550.05  1559.06  1569.30  1574.84
eigval :     1583.62  1584.69  1598.07  1603.18  2320.87  2334.82
eigval :     2978.99  2980.12  3021.19  3023.49  3035.89  3043.79
eigval :     3074.36  3075.09  3076.17  3077.36  3077.60  3078.63
eigval :     3082.73  3084.11  3086.58  3087.36  3089.53  3090.91
eigval :     3091.29  3092.71  3095.85  3096.43  3096.95  3098.12
eigval :     3098.83  3101.64  3103.29  3108.30  3120.96  3125.01

   temp. (K)  partition function   enthalpy   heat capacity  entropy
                                   cal/mol     cal/K/mol   cal/K/mol   J/K/mol
 298.15  VIB  0.131E+20            24181.321    152.296    151.444
         ROT  0.138E+09              888.752      2.981     40.222
         INT  0.180E+28            25070.073    155.277    191.666
         TR   0.156E+29             1481.254      4.968     45.225
         TOT                       26551.3269   160.2447   236.8912   991.1528

       T/K    H(0)-H(T)+PV         H(T)/Eh          T*S/Eh         G(T)/Eh
   ------------------------------------------------------------------------
    298.15    0.423122E-01    0.646572E+00    0.112555E+00    0.534017E+00
   ------------------------------------------------------------------------

         :::::::::::::::::::::::::::::::::::::::::::::::::::::
         ::                  THERMODYNAMIC                  ::
         :::::::::::::::::::::::::::::::::::::::::::::::::::::
         :: total free energy        -124.925979483214 Eh   ::
         ::.................................................::
         :: total energy             -125.459996834222 Eh   ::
         :: zero point energy           0.604259774636 Eh   ::
         :: G(RRHO) w/o ZPVE           -0.070242423628 Eh   ::
         :: G(RRHO) contrib.            0.534017351008 Eh   ::
         :::::::::::::::::::::::::::::::::::::::::::::::::::::

           -------------------------------------------------
          | TOTAL ENERGY             -125.459996834222 Eh   |
          | TOTAL ENTHALPY           -124.813424826853 Eh   |
          | TOTAL FREE ENERGY        -124.925979483214 Eh   |
          | GRADIENT NORM               0.000073616779 Eh/α |
          | HOMO-LUMO GAP               0.234133691790 eV   |
           -------------------------------------------------

 * finished run on 2025/08/26 at 00:57:45.293
