   * xtb version 6.7.1 (edcfbbe) compiled by 'albert@albert-system' on 2024-07-22

   ID    Z sym.   atoms
    1    6 C      1-9, 11-20, 22-34, 36-45, 47-50
    2    7 N      10, 21, 35, 46
    3    1 H      51-80

          program call               : xtb data2507/toluene/m-CzCNDMT/m-CzCNDMT_toluene_S0_crest.xyz --gfn 2 --gbsa toluene --ohess vtight --parallel 40 --molden --ceasefiles --namespace data2507/toluene/m-CzCNDMT/m-CzCNDMT_toluene_S0_finalOpt
      * Solvation model:               GBSA
        Solvent                        toluene
        Solvent mass                       9.2140E+01 g/mol
          :  Hamiltonian                  GFN2-xTB          :
 * total energy  :  -125.5687233 Eh     change       -0.3340432E-08 Eh
 * total energy  :  -125.5687603 Eh     change       -0.3699535E-04 Eh
 * total energy  :  -125.5687698 Eh     change       -0.9501649E-05 Eh
 * total energy  :  -125.5687728 Eh     change       -0.3023509E-05 Eh
 * total energy  :  -125.5687748 Eh     change       -0.1973666E-05 Eh
 * total energy  :  -125.5687771 Eh     change       -0.2369750E-05 Eh
 * total energy  :  -125.5687793 Eh     change       -0.2135210E-05 Eh
 * total energy  :  -125.5687812 Eh     change       -0.1914417E-05 Eh
 * total energy  :  -125.5687833 Eh     change       -0.2156610E-05 Eh
 * total energy  :  -125.5687836 Eh     change       -0.2577076E-06 Eh
 * total energy  :  -125.5688372 Eh     change       -0.8456397E-06 Eh
 * total energy  :  -125.5688378 Eh     change       -0.6129255E-06 Eh
 * total energy  :  -125.5688381 Eh     change       -0.2960554E-06 Eh
 * total energy  :  -125.5688383 Eh     change       -0.1864783E-06 Eh
 * total energy  :  -125.5688385 Eh     change       -0.1672337E-06 Eh
 * total energy  :  -125.5688387 Eh     change       -0.1909711E-06 Eh
 * total energy  :  -125.5688389 Eh     change       -0.2439716E-06 Eh
 * total energy  :  -125.5688392 Eh     change       -0.2391890E-06 Eh
 * total energy  :  -125.5688392 Eh     change       -0.3079705E-08 Eh
   *** GEOMETRY OPTIMIZATION CONVERGED AFTER 44 ITERATIONS ***

 final structure:
================
80
 xtb: 6.7.1 (edcfbbe)
C            1.28721817158852        4.31245580974910       -0.87429805103950
C            0.58031941564082        3.31090162720718       -0.00956040980044
C           -0.80590585132431        3.27256894913424       -0.00624141542730
C           -1.52576628815475        2.34993124052810        0.74431468376310
C           -3.00075306319821        2.38996654717508        0.67761788538390
C           -3.67982241956940        3.55568897213453        1.02243894115188
C           -5.05971765063744        3.61327082208631        0.94436550773835
C           -5.78256230356763        2.51589782902404        0.51144776309914
C           -5.11133950964732        1.35407493121483        0.14446059495225
N           -5.83887045412828        0.24298384886859       -0.32475840529455
C           -6.76597804503798        0.26794219706940       -1.35058960537736
C           -7.15852064217089        1.32458118192764       -2.16014497176773
C           -8.10089235531951        1.07021056538324       -3.13819818814593
C           -8.64017740298187       -0.20272409265164       -3.31753659053865
C           -8.23781645886321       -1.26262054333403       -2.52963322299439
C           -7.29016530229686       -1.03089902877735       -1.54027200504416
C           -6.64046233610247       -1.87394794576625       -0.57521238248338
C           -6.73841608861298       -3.21976146324002       -0.27044828767124
C           -5.94993292769971       -3.72250211286591        0.76361480915922
C           -6.02242094755911       -5.09009046519389        1.09322337895922
N           -6.08122429487625       -6.20606516428212        1.36212805690770
C           -5.08800401375743       -2.88399251236568        1.49343367121342
C           -4.98565158644188       -1.54318922882985        1.19903596888711
C           -5.75038637817729       -1.03920129357171        0.15122639709258
C           -3.72618217604261        1.29132348687483        0.23168613756301
C           -0.83813483561691        1.42666154556776        1.53578116833780
C           -1.55084409637752        0.42352511628136        2.39396591639816
C            0.54744645548979        1.46557332290734        1.53373376104679
C            1.26831586306366        2.38975951148159        0.78501873592934
C            2.74207222536370        2.35758614602807        0.86353043444393
C            3.47230409672920        3.47913574974743        1.24794268679584
C            4.85157399212928        3.42092543338746        1.33692321617314
C            5.52509304173035        2.24743122765703        1.04720047372424
C            4.80415930831583        1.12122343248670        0.66454912871413
N            5.47617453838154       -0.08093949346050        0.36874892589778
C            5.20907421840354       -1.31242684526390        0.93716898849508
C            4.28485589674382       -1.65109488681297        1.91518759709465
C            4.23783610169363       -2.96882463424184        2.32801517926887
C            5.09099495702704       -3.93135983927565        1.79040179676924
C            6.02589567809771       -3.59689532292446        0.83108657400560
C            6.09086823476057       -2.27758030027675        0.40006483091485
C            6.92496881739451       -1.58339503606241       -0.54154013933555
C            7.95193973355948       -1.98397972777200       -1.37716461120910
C            8.55012995273058       -1.02625252521209       -2.19489544600655
C            9.60333641627433       -1.40184848335664       -3.05155559977438
N           10.46514061072750       -1.70821366788156       -3.74766095415242
C            8.11467552958050        0.31131357538809       -2.18613831008647
C            7.09342954077154        0.71967530193025       -1.35837101302638
C            6.50666036235711       -0.22631426803334       -0.52286839600668
C            3.41915599715368        1.17761787880050        0.57618467317760
H            1.39519522896241        5.26140053271235       -0.34839385992539
H            2.27849865073112        3.96311858009753       -1.15241907466280
H            0.71187376840631        4.49984521386177       -1.77880806427483
H           -1.35079301134253        3.97393087211779       -0.62313343414887
H           -3.11903668990129        4.41288707379674        1.36448471183859
H           -5.57877701103870        4.51727115446310        1.22680953300470
H           -6.86044573396118        2.55031396331112        0.46245352078912
H           -6.73628350054336        2.31022388798774       -2.03774099585903
H           -8.42560164297449        1.87557168794168       -3.78049785562460
H           -9.37682319785982       -0.35963055612668       -4.09143813664090
H           -8.64545599654198       -2.25133877917858       -2.67747666326529
H           -7.40763580520389       -3.87065408899306       -0.81296116069119
H           -4.50543901624199       -3.31004432917605        2.29708308102810
H           -4.33586370653579       -0.90176498195995        1.77245266567944
H           -3.21089720687039        0.39454761882311       -0.07794945667062
H           -1.69604482769779       -0.50917765250899        1.84757830189592
H           -2.52392611804588        0.79789289733982        2.70405614922995
H           -0.96201437946433        0.19881218410563        3.28101456132186
H            1.09010188519158        0.76512398649085        2.15333930366766
H            2.95393862712473        4.39276956777161        1.49446583258476
H            5.40884675131645        4.29410642433846        1.64238365221029
H            6.60027771788672        2.19423065005640        1.13028921240113
H            3.63244305203918       -0.90848841877459        2.34749494285606
H            3.52658328767098       -3.26007130779124        3.08689943808510
H            5.02174053716478       -4.95132570133512        2.13834267885503
H            6.69558800406574       -4.33979173732927        0.42471319580438
H            8.28645486779326       -3.01026732559420       -1.40350765009364
H            8.59512046036340        1.01910823133287       -2.84555029397402
H            6.75430694253554        1.74395624344181       -1.36578551253939
H            2.86744148373287        0.30459015169493        0.25949768743584

          :  Hamiltonian                  GFN2-xTB          :
         :: gradient norm              0.000146340710 Eh/a0 ::
         :: HOMO-LUMO gap              2.979299305096 eV    ::
         :: SCC energy              -127.994327167889 Eh    ::
         :: -> dispersion             -0.110117407843 Eh    ::
         :: -> Gsolv                  -0.060830205052 Eh    ::
         :: repulsion energy           2.425487996464 Eh    ::

    * Orbital Energies and Occupations

         #    Occupation            Energy/Eh            Energy/eV
      -------------------------------------------------------------
         1        2.0000           -0.6891096             -18.7516
       ...           ...                  ...                  ...
       105        2.0000           -0.4186938             -11.3932
       106        2.0000           -0.4178808             -11.3711
       107        2.0000           -0.4163576             -11.3297
       108        2.0000           -0.4156680             -11.3109
       109        2.0000           -0.4149596             -11.2916
       110        2.0000           -0.4141100             -11.2685
       111        2.0000           -0.4111976             -11.1893
       112        2.0000           -0.3957053             -10.7677
       113        2.0000           -0.3920561             -10.6684
       114        2.0000           -0.3920487             -10.6682
       115        2.0000           -0.3845923             -10.4653
       116        2.0000           -0.3744835             -10.1902
       117        2.0000           -0.3741172             -10.1802 (HOMO)
       118                         -0.2646299              -7.2009 (LUMO)
       119                         -0.2644940              -7.1972
       120                         -0.2587625              -7.0413
       121                         -0.2586436              -7.0381
       122                         -0.2519909              -6.8570
       123                         -0.2373623              -6.4590
       124                         -0.2368519              -6.4451
       125                         -0.2345951              -6.3837
       126                         -0.2211433              -6.0176
       127                         -0.2175084              -5.9187
       128                         -0.2165784              -5.8934
       ...                                ...                  ...
       230                          1.1623766              31.6299
      -------------------------------------------------------------
                  HL-Gap            0.1094872 Eh            2.9793 eV

     #   Z          covCN         q      C6AA      α(0)
     1   6 C        3.757    -0.108    22.624     6.781
     2   6 C        2.966     0.010    27.783     8.646
     3   6 C        2.932    -0.047    29.159     8.856
     4   6 C        2.980    -0.003    28.093     8.694
     5   6 C        2.978     0.018    27.594     8.617
     6   6 C        2.925    -0.036    28.905     8.817
     7   6 C        2.918    -0.028    28.700     8.785
     8   6 C        2.922    -0.044    29.089     8.845
     9   6 C        2.912     0.060    26.658     8.466
    10   7 N        2.803    -0.033    21.883     6.948
    11   6 C        3.081     0.048    26.837     8.493
    12   6 C        2.909    -0.048    29.201     8.861
    13   6 C        2.924    -0.031    28.783     8.798
    14   6 C        2.920    -0.039    28.968     8.826
    15   6 C        2.912    -0.032    28.797     8.800
    16   6 C        3.065    -0.017    28.365     8.733
    17   6 C        3.068    -0.014    28.289     8.721
    18   6 C        2.920    -0.023    28.589     8.768
    19   6 C        2.973     0.000    28.014     8.682
    20   6 C        1.914     0.117    28.229     8.581
    21   7 N        0.911    -0.292    27.531     7.589
    22   6 C        2.930    -0.026    28.648     8.778
    23   6 C        2.908    -0.048    29.197     8.860
    24   6 C        3.076     0.054    26.708     8.473
    25   6 C        2.926    -0.045    29.129     8.851
    26   6 C        2.966     0.009    27.816     8.651
    27   6 C        3.757    -0.105    22.565     6.773
    28   6 C        2.932    -0.046    29.152     8.855
    29   6 C        2.980    -0.003    28.096     8.695
    30   6 C        2.977     0.018    27.596     8.617
    31   6 C        2.923    -0.035    28.872     8.812
    32   6 C        2.918    -0.028    28.710     8.787
    33   6 C        2.921    -0.044    29.102     8.847
    34   6 C        2.912     0.060    26.656     8.466
    35   7 N        2.803    -0.034    21.894     6.949
    36   6 C        3.081     0.048    26.830     8.492
    37   6 C        2.910    -0.048    29.189     8.859
    38   6 C        2.924    -0.031    28.782     8.798
    39   6 C        2.920    -0.039    28.969     8.826
    40   6 C        2.912    -0.032    28.793     8.799
    41   6 C        3.065    -0.017    28.364     8.733
    42   6 C        3.068    -0.014    28.288     8.721
    43   6 C        2.920    -0.023    28.588     8.768
    44   6 C        2.973     0.001    28.010     8.681
    45   6 C        1.914     0.117    28.227     8.580
    46   7 N        0.911    -0.292    27.519     7.587
    47   6 C        2.930    -0.026    28.642     8.777
    48   6 C        2.908    -0.047    29.170     8.856
    49   6 C        3.076     0.054    26.705     8.473
    50   6 C        2.928    -0.046    29.154     8.855
    51   1 H        0.924     0.050     2.315     2.379
    52   1 H        0.925     0.044     2.401     2.423
    53   1 H        0.925     0.045     2.379     2.412
    54   1 H        0.925     0.034     2.525     2.485
    55   1 H        0.926     0.042     2.426     2.436
    56   1 H        0.926     0.042     2.423     2.434
    57   1 H        0.926     0.043     2.415     2.430
    58   1 H        0.926     0.038     2.482     2.464
    59   1 H        0.926     0.037     2.493     2.469
    60   1 H        0.926     0.034     2.533     2.489
    61   1 H        0.926     0.034     2.527     2.486
    62   1 H        0.926     0.038     2.472     2.458
    63   1 H        0.926     0.039     2.462     2.454
    64   1 H        0.926     0.048     2.349     2.397
    65   1 H        0.926     0.045     2.388     2.417
    66   1 H        0.924     0.048     2.345     2.395
    67   1 H        0.925     0.041     2.434     2.440
    68   1 H        0.925     0.045     2.387     2.416
    69   1 H        0.926     0.032     2.556     2.500
    70   1 H        0.926     0.045     2.378     2.412
    71   1 H        0.926     0.042     2.419     2.432
    72   1 H        0.926     0.041     2.438     2.442
    73   1 H        0.926     0.037     2.491     2.468
    74   1 H        0.926     0.037     2.490     2.468
    75   1 H        0.926     0.034     2.533     2.489
    76   1 H        0.926     0.034     2.527     2.486
    77   1 H        0.926     0.039     2.464     2.455
    78   1 H        0.926     0.039     2.468     2.456
    79   1 H        0.926     0.044     2.395     2.420
    80   1 H        0.926     0.044     2.400     2.423

molecular dipole:
                 x           y           z       tot (Debye)
 q only:       -1.599       3.767       1.144
   full:       -1.846       4.255       1.284      12.233

 projected vibrational frequencies (cm⁻¹)
eigval :       -0.00    -0.00    -0.00     0.00     0.00     0.00
eigval :        4.94     8.91    12.09    19.99    23.17    30.01
eigval :       43.06    56.01    57.03    71.64    73.41    81.73
eigval :       87.39    96.22   102.72   107.27   110.04   118.23
eigval :      122.40   131.93   141.42   147.41   165.29   166.57
eigval :      183.81   205.54   219.43   228.93   229.57   235.40
eigval :      259.80   267.04   272.37   274.67   276.12   281.72
eigval :      287.36   309.20   317.48   366.17   376.21   388.30
eigval :      390.89   392.51   398.45   405.87   410.22   420.95
eigval :      421.69   435.16   436.28   443.33   458.00   467.83
eigval :      469.05   476.35   481.17   502.47   515.78   531.09
eigval :      539.08   541.79   553.96   558.98   580.17   593.25
eigval :      595.41   596.45   596.95   599.83   608.27   618.21
eigval :      634.33   643.54   653.54   669.11   674.35   677.48
eigval :      678.66   679.92   693.97   703.00   708.98   709.04
eigval :      720.33   740.99   760.51   773.87   777.14   798.13
eigval :      804.54   816.12   821.74   822.11   849.44   853.69
eigval :      866.02   866.74   867.00   870.89   874.05   888.22
eigval :      898.85   900.56   901.87   902.17   907.86   908.71
eigval :      910.70   911.60   914.17   923.16   925.19   925.82
eigval :      929.56   934.11   934.49   949.10   998.91   999.62
eigval :     1008.55  1019.32  1023.44  1025.99  1027.36  1031.33
eigval :     1032.45  1068.79  1069.83  1077.14  1116.80  1117.46
eigval :     1125.22  1127.22  1147.19  1148.15  1165.74  1171.89
eigval :     1175.73  1176.68  1184.34  1184.47  1184.83  1186.11
eigval :     1193.88  1202.53  1225.56  1235.32  1238.21  1243.44
eigval :     1254.18  1255.22  1258.71  1263.75  1278.67  1280.22
eigval :     1305.20  1307.97  1310.99  1313.01  1313.94  1333.75
eigval :     1348.24  1349.48  1356.51  1357.55  1361.77  1366.70
eigval :     1394.08  1402.33  1405.00  1414.66  1419.08  1424.32
eigval :     1425.54  1441.61  1449.20  1464.30  1466.83  1469.78
eigval :     1474.87  1480.37  1480.83  1482.51  1483.74  1483.94
eigval :     1486.09  1510.50  1554.37  1554.59  1560.25  1572.64
eigval :     1573.70  1577.85  1578.01  1587.01  1587.84  1589.87
eigval :     1590.92  1599.99  1609.06  1609.45  2353.31  2353.57
eigval :     2990.34  2994.93  3028.91  3029.19  3032.95  3042.07
eigval :     3068.70  3069.81  3076.54  3077.25  3078.94  3079.55
eigval :     3081.96  3082.86  3085.81  3086.59  3087.54  3088.31
eigval :     3089.49  3090.49  3090.93  3092.09  3092.25  3093.80
eigval :     3096.45  3097.08  3098.31  3099.42  3101.43  3108.21

   temp. (K)  partition function   enthalpy   heat capacity  entropy
                                   cal/mol     cal/K/mol   cal/K/mol   J/K/mol
 298.15  VIB  0.179E+20            24067.542    150.031    151.503
         ROT  0.136E+09              888.752      2.981     40.201
         INT  0.243E+28            24956.294    153.012    191.703
         TR   0.156E+29             1481.254      4.968     45.225
         TOT                       26437.5480   157.9801   236.9280   991.3068

       T/K    H(0)-H(T)+PV         H(T)/Eh          T*S/Eh         G(T)/Eh
   ------------------------------------------------------------------------
    298.15    0.421309E-01    0.651009E+00    0.112572E+00    0.538436E+00
   ------------------------------------------------------------------------

         :::::::::::::::::::::::::::::::::::::::::::::::::::::
         ::                  THERMODYNAMIC                  ::
         :::::::::::::::::::::::::::::::::::::::::::::::::::::
         :: total free energy        -125.030402785640 Eh   ::
         ::.................................................::
         :: total energy             -125.568839179923 Eh   ::
         :: zero point energy           0.608877626068 Eh   ::
         :: G(RRHO) w/o ZPVE           -0.070441231785 Eh   ::
         :: G(RRHO) contrib.            0.538436394283 Eh   ::
         :::::::::::::::::::::::::::::::::::::::::::::::::::::

           -------------------------------------------------
          | TOTAL ENERGY             -125.568839179923 Eh   |
          | TOTAL ENTHALPY           -124.917830639383 Eh   |
          | TOTAL FREE ENERGY        -125.030402785640 Eh   |
          | GRADIENT NORM               0.000146268078 Eh/α |
          | HOMO-LUMO GAP               2.979299164983 eV   |
           -------------------------------------------------

 * finished run on 2025/08/26 at 00:50:21.636
