   * xtb version 6.7.1 (edcfbbe) compiled by 'albert@albert-system' on 2024-07-22

   ID    Z sym.   atoms
    1    6 C      1-9, 11-20, 22-34, 36-45, 47-50
    2    7 N      10, 21, 35, 46
    3    1 H      51-80

          program call               : xtb data2507/toluene/m-CzCNDMT/m-CzCNDMT.xyz --gfn 2 --gbsa toluene --ohess vtight --parallel 40 --molden --ceasefiles --namespace data2507/toluene/m-CzCNDMT/m-CzCNDMT_toluene_S0_preOpt
      * Solvation model:               GBSA
        Solvent                        toluene
        Solvent mass                       9.2140E+01 g/mol
          :  Hamiltonian                  GFN2-xTB          :
 * total energy  :  -125.5462687 Eh     change       -0.3285223E-08 Eh
 * total energy  :  -125.5619800 Eh     change       -0.1571129E-01 Eh
 * total energy  :  -125.5652851 Eh     change       -0.3305084E-02 Eh
 * total energy  :  -125.5658342 Eh     change       -0.5491120E-03 Eh
 * total energy  :  -125.5661060 Eh     change       -0.2718545E-03 Eh
 * total energy  :  -125.5664976 Eh     change       -0.3915746E-03 Eh
 * total energy  :  -125.5666493 Eh     change       -0.1516765E-03 Eh
 * total energy  :  -125.5667687 Eh     change       -0.1193963E-03 Eh
 * total energy  :  -125.5668429 Eh     change       -0.7423476E-04 Eh
 * total energy  :  -125.5669027 Eh     change       -0.5980052E-04 Eh
 * total energy  :  -125.5687544 Eh     change       -0.4061470E-06 Eh
 * total energy  :  -125.5687547 Eh     change       -0.2883793E-06 Eh
 * total energy  :  -125.5687549 Eh     change       -0.2572067E-06 Eh
 * total energy  :  -125.5687551 Eh     change       -0.2004507E-06 Eh
 * total energy  :  -125.5687553 Eh     change       -0.1817973E-06 Eh
 * total energy  :  -125.5687555 Eh     change       -0.2154994E-06 Eh
 * total energy  :  -125.5687557 Eh     change       -0.2434701E-06 Eh
 * total energy  :  -125.5687559 Eh     change       -0.1771294E-06 Eh
 * total energy  :  -125.5687559 Eh     change       -0.3588084E-08 Eh
   *** GEOMETRY OPTIMIZATION CONVERGED AFTER 68 ITERATIONS ***

 final structure:
================
80
 xtb: 6.7.1 (edcfbbe)
C            1.27182449756363        1.51429796115734       -1.77206928605376
C            0.58870597521254        1.81173416537657       -0.46968842333971
C           -0.79666509452410        1.83402739594419       -0.41675897741668
C           -1.49650875838947        2.13255801258845        0.74758816065457
C           -2.97184618021172        2.13705429555709        0.69745817791652
C           -3.70703029467821        3.26013448142001        1.06739879356246
C           -5.08839825534661        3.24899717651564        0.99364404178550
C           -5.75948077917859        2.11925759753248        0.56048605579550
C           -5.03320234406566        0.99721230089434        0.17511415063830
N           -5.70498611295793       -0.15596116863880       -0.27472241268070
C           -6.66684482860648       -0.19103252145817       -1.26761028598948
C           -7.14612521241342        0.83516487843164       -2.06977177978577
C           -8.10463596771241        0.51970737325572       -3.01383438160041
C           -8.57591613894539       -0.78324860539359       -3.16736202579512
C           -8.08741286029204       -1.81224018718295       -2.38724143464324
C           -7.12229023399520       -1.51893004905797       -1.43173325932383
C           -6.39378538405904       -2.31637097125903       -0.48437449837815
C           -6.40824777189652       -3.66285816727488       -0.16759520364447
C           -5.55856219495066       -4.11305482257692        0.84174442448052
C           -5.54608834531264       -5.47936784969795        1.18389257264340
N           -5.53567431406501       -6.59461738577837        1.46194823922231
C           -4.71758137013858       -3.22307953632289        1.53388946015909
C           -4.69734005002321       -1.88116312067822        1.22722637978447
C           -5.52697039176979       -1.42771400672655        0.20553224508015
C           -3.64571509860717        1.01165147472525        0.23566253131810
C           -0.78687983864625        2.41424765076354        1.91840285697224
C           -1.46745061624513        2.71248600440149        3.22192686616306
C            0.59864136390469        2.39233029882095        1.86525743890424
C            1.29808500105239        2.09293072395416        0.70120427256991
C            2.77325942792648        2.08240259487112        0.75634983284827
C            3.46484445924023        3.20664888859823        1.20043451183512
C            4.84614528090602        3.19689783933822        1.27497435948284
C            5.55919089161763        2.06440438669104        0.92316655573443
C            4.87661523262924        0.93511290034544        0.48348798563381
N            5.58769615719505       -0.22708229246399        0.12620164068779
C            5.35846774184973       -1.49586657754970        0.62573107617499
C            4.44254869020199       -1.91728842261792        1.57949450844776
C            4.43674801569952       -3.25726506723201        1.91724855806211
C            5.32133435129141       -4.16107845239662        1.33069613251062
C            6.24726037587001       -3.74445256083565        0.39517981745389
C            6.27157499190701       -2.40153777958768        0.03933620171434
C            7.08490557824959       -1.63083489183995       -0.85997563303054
C            8.12559920844896       -1.95262209101287       -1.71253560310919
C            8.69396622699575       -0.93342283053418       -2.47533809661027
C            9.75968830249192       -1.22866435447988       -3.34767947904290
N           10.63105141028073       -1.46990928464803       -4.05745219396836
C            8.21594833587015        0.38713295929776       -2.39581788826822
C            7.18106111066681        0.71730608857276       -1.55026372375725
C            6.62370492176697       -0.29069877051756       -0.76869999395201
C            3.49048590748539        0.94721831177475        0.39709268619592
H            1.38159278063373        0.43789758886151       -1.90881925850118
H            0.67882699200988        1.89325841234627       -2.60208131839654
H            2.26060594925728        1.96476192257436       -1.81129153881070
H           -1.35741687138957        1.63076887272366       -1.31891819615823
H           -3.19137023688411        4.14835791682005        1.39806161085510
H           -5.65008227904936        4.12463607990488        1.28370526002388
H           -6.83826642572594        2.09779723450844        0.52714911610453
H           -6.77733305042884        1.84433715475051       -1.96798203539713
H           -8.49622144404357        1.30019631170603       -3.64951982765740
H           -9.32807104507304       -0.98795795243199       -3.91471332808958
H           -8.44184019665744       -2.82391188105898       -2.51552374729542
H           -7.05949335059684       -4.35355621581327       -0.68202720655839
H           -4.08394492753563       -3.61030155643585        2.31826177129829
H           -4.05950148600459       -1.20285891369159        1.77227805618920
H           -3.08641018101502        0.14153669479710       -0.07577440302279
H           -1.55761090409489        3.78950815118128        3.36604136628641
H           -0.88252666180710        2.31674416999412        4.04992861230936
H           -2.46458863765953        2.28074107217779        3.25630902851555
H            1.16011072684446        2.59735116829315        2.76655886664859
H            2.91326083391358        4.09340877338762        1.47552167679664
H            5.37376352670164        4.07481968870303        1.61741802505163
H            6.63586821115912        2.04523622290024        1.00076194928540
H            3.76258506079498       -1.22288445460684        2.04883011251300
H            3.73215998842645       -3.61291884234643        2.65457723527668
H            5.28326769015799       -5.20060509411057        1.62078725449395
H            6.94062824836791       -4.44209969632516       -0.04987361329163
H            8.49304605270189       -2.96466280383775       -1.79362792266799
H            8.67445476421364        1.14456696573465       -3.01451621672622
H            6.81027928741521        1.72948857285806       -1.50323949719026
H            2.97051156607698        0.06578744334134        0.05447221406980

          :  Hamiltonian                  GFN2-xTB          :
         :: gradient norm              0.000105952003 Eh/a0 ::
         :: HOMO-LUMO gap              2.981683821371 eV    ::
         :: SCC energy              -127.993557918253 Eh    ::
         :: -> dispersion             -0.109030413252 Eh    ::
         :: -> Gsolv                  -0.061318590807 Eh    ::
         :: repulsion energy           2.424801988933 Eh    ::

    * Orbital Energies and Occupations

         #    Occupation            Energy/Eh            Energy/eV
      -------------------------------------------------------------
         1        2.0000           -0.6892186             -18.7546
       ...           ...                  ...                  ...
       105        2.0000           -0.4183811             -11.3847
       106        2.0000           -0.4178092             -11.3692
       107        2.0000           -0.4162561             -11.3269
       108        2.0000           -0.4157086             -11.3120
       109        2.0000           -0.4150870             -11.2951
       110        2.0000           -0.4136822             -11.2569
       111        2.0000           -0.4110909             -11.1864
       112        2.0000           -0.3951766             -10.7533
       113        2.0000           -0.3921391             -10.6706
       114        2.0000           -0.3919090             -10.6644
       115        2.0000           -0.3838798             -10.4459
       116        2.0000           -0.3745240             -10.1913
       117        2.0000           -0.3743321             -10.1861 (HOMO)
       118                         -0.2647572              -7.2044 (LUMO)
       119                         -0.2645021              -7.1975
       120                         -0.2588989              -7.0450
       121                         -0.2585922              -7.0367
       122                         -0.2523093              -6.8657
       123                         -0.2372267              -6.4553
       124                         -0.2367072              -6.4411
       125                         -0.2344141              -6.3787
       126                         -0.2210792              -6.0159
       127                         -0.2171451              -5.9088
       128                         -0.2164899              -5.8910
       ...                                ...                  ...
       230                          1.1622814              31.6273
      -------------------------------------------------------------
                  HL-Gap            0.1095749 Eh            2.9817 eV

     #   Z          covCN         q      C6AA      α(0)
     1   6 C        3.757    -0.107    22.604     6.778
     2   6 C        2.966     0.010    27.798     8.648
     3   6 C        2.932    -0.047    29.164     8.857
     4   6 C        2.979    -0.003    28.099     8.695
     5   6 C        2.977     0.018    27.602     8.618
     6   6 C        2.923    -0.035    28.877     8.812
     7   6 C        2.918    -0.028    28.712     8.787
     8   6 C        2.921    -0.044    29.096     8.846
     9   6 C        2.912     0.060    26.656     8.466
    10   7 N        2.803    -0.034    21.889     6.949
    11   6 C        3.080     0.048    26.835     8.493
    12   6 C        2.909    -0.048    29.201     8.861
    13   6 C        2.924    -0.031    28.783     8.798
    14   6 C        2.920    -0.039    28.967     8.826
    15   6 C        2.912    -0.032    28.796     8.799
    16   6 C        3.065    -0.017    28.364     8.733
    17   6 C        3.068    -0.014    28.286     8.721
    18   6 C        2.920    -0.023    28.590     8.768
    19   6 C        2.973     0.001    28.008     8.681
    20   6 C        1.914     0.117    28.227     8.580
    21   7 N        0.911    -0.292    27.521     7.587
    22   6 C        2.930    -0.026    28.642     8.777
    23   6 C        2.908    -0.047    29.167     8.856
    24   6 C        3.075     0.054    26.705     8.473
    25   6 C        2.928    -0.047    29.179     8.859
    26   6 C        2.966     0.010    27.791     8.647
    27   6 C        3.757    -0.108    22.620     6.781
    28   6 C        2.932    -0.047    29.166     8.857
    29   6 C        2.979    -0.003    28.094     8.694
    30   6 C        2.978     0.018    27.597     8.617
    31   6 C        2.924    -0.036    28.908     8.817
    32   6 C        2.918    -0.028    28.703     8.786
    33   6 C        2.921    -0.044    29.103     8.847
    34   6 C        2.912     0.060    26.661     8.467
    35   7 N        2.803    -0.033    21.882     6.948
    36   6 C        3.080     0.048    26.835     8.493
    37   6 C        2.909    -0.048    29.199     8.861
    38   6 C        2.924    -0.031    28.781     8.798
    39   6 C        2.920    -0.039    28.967     8.826
    40   6 C        2.912    -0.032    28.795     8.799
    41   6 C        3.065    -0.017    28.363     8.733
    42   6 C        3.068    -0.014    28.286     8.721
    43   6 C        2.920    -0.023    28.588     8.768
    44   6 C        2.973     0.001    28.009     8.681
    45   6 C        1.914     0.117    28.228     8.580
    46   7 N        0.911    -0.292    27.522     7.587
    47   6 C        2.930    -0.026    28.642     8.777
    48   6 C        2.908    -0.047    29.170     8.856
    49   6 C        3.076     0.054    26.707     8.473
    50   6 C        2.927    -0.045    29.125     8.850
    51   1 H        0.924     0.048     2.349     2.397
    52   1 H        0.925     0.045     2.383     2.414
    53   1 H        0.925     0.043     2.409     2.427
    54   1 H        0.925     0.033     2.542     2.493
    55   1 H        0.926     0.045     2.381     2.413
    56   1 H        0.926     0.042     2.419     2.432
    57   1 H        0.926     0.042     2.418     2.432
    58   1 H        0.926     0.038     2.480     2.462
    59   1 H        0.926     0.037     2.491     2.468
    60   1 H        0.926     0.034     2.531     2.488
    61   1 H        0.926     0.034     2.525     2.485
    62   1 H        0.926     0.039     2.464     2.455
    63   1 H        0.926     0.039     2.466     2.456
    64   1 H        0.926     0.045     2.386     2.416
    65   1 H        0.926     0.043     2.414     2.430
    66   1 H        0.924     0.050     2.319     2.381
    67   1 H        0.925     0.045     2.379     2.412
    68   1 H        0.925     0.043     2.403     2.424
    69   1 H        0.925     0.035     2.523     2.484
    70   1 H        0.926     0.042     2.422     2.434
    71   1 H        0.926     0.042     2.427     2.436
    72   1 H        0.926     0.041     2.437     2.441
    73   1 H        0.926     0.038     2.478     2.462
    74   1 H        0.926     0.037     2.495     2.470
    75   1 H        0.926     0.034     2.534     2.489
    76   1 H        0.926     0.034     2.525     2.485
    77   1 H        0.926     0.039     2.464     2.455
    78   1 H        0.926     0.039     2.468     2.457
    79   1 H        0.926     0.044     2.394     2.420
    80   1 H        0.926     0.047     2.357     2.401

molecular dipole:
                 x           y           z       tot (Debye)
 q only:       -1.817       3.600       1.196
   full:       -2.081       4.070       1.342      12.108

 projected vibrational frequencies (cm⁻¹)
eigval :       -0.00    -0.00     0.00     0.00     0.00     0.00
eigval :        4.61     7.22    10.18    18.33    26.73    36.44
eigval :       42.94    52.61    58.43    66.26    76.39    80.85
eigval :       87.51    94.61   100.29   108.27   110.32   118.69
eigval :      120.37   123.96   130.08   146.61   164.48   166.65
eigval :      186.02   208.55   224.17   227.05   231.04   235.69
eigval :      251.65   268.50   272.54   275.63   276.03   283.78
eigval :      291.77   309.21   318.46   366.04   375.72   388.97
eigval :      391.67   392.81   399.57   401.44   410.61   421.43
eigval :      423.06   429.52   439.92   448.60   458.17   467.24
eigval :      467.64   478.34   482.58   489.79   520.04   532.87
eigval :      540.50   543.20   555.97   560.74   578.66   592.26
eigval :      595.46   596.37   596.71   600.09   608.13   616.35
eigval :      633.80   640.96   656.87   668.84   673.09   677.46
eigval :      678.87   681.31   695.73   704.74   709.27   709.55
eigval :      719.71   740.55   760.29   774.83   776.63   797.30
eigval :      803.42   814.92   820.89   822.17   849.24   854.14
eigval :      865.97   868.13   871.24   872.08   872.80   891.80
eigval :      898.28   898.86   901.62   901.73   907.93   908.42
eigval :      910.20   910.64   913.93   923.20   925.65   926.37
eigval :      929.30   930.07   934.66   949.04   998.90   999.64
eigval :     1009.84  1019.68  1022.98  1025.94  1026.62  1032.70
eigval :     1035.80  1069.00  1069.04  1076.85  1117.10  1117.49
eigval :     1125.27  1127.64  1147.10  1148.31  1165.63  1171.61
eigval :     1175.62  1176.51  1183.73  1184.05  1185.44  1187.05
eigval :     1194.70  1202.70  1225.27  1234.91  1238.16  1243.16
eigval :     1252.25  1256.38  1259.67  1264.47  1278.41  1280.47
eigval :     1304.57  1307.58  1310.95  1313.98  1314.03  1333.04
eigval :     1347.98  1349.29  1356.16  1357.07  1362.48  1365.77
eigval :     1393.88  1405.52  1407.50  1416.59  1417.73  1421.50
eigval :     1426.62  1442.79  1447.37  1465.19  1466.82  1468.70
eigval :     1474.95  1479.80  1480.16  1481.89  1483.35  1483.51
eigval :     1485.14  1510.45  1553.99  1554.23  1559.40  1572.98
eigval :     1574.01  1577.43  1577.59  1586.61  1588.24  1590.04
eigval :     1590.66  1599.26  1608.76  1608.95  2353.01  2353.08
eigval :     2991.43  2994.59  3028.95  3029.66  3040.15  3041.34
eigval :     3066.34  3067.56  3076.84  3076.90  3078.90  3080.01
eigval :     3081.79  3082.07  3084.97  3085.30  3086.94  3088.42
eigval :     3089.38  3089.67  3091.21  3091.87  3093.91  3095.60
eigval :     3096.47  3096.78  3098.56  3099.05  3099.19  3101.32

   temp. (K)  partition function   enthalpy   heat capacity  entropy
                                   cal/mol     cal/K/mol   cal/K/mol   J/K/mol
 298.15  VIB  0.267E+20            24085.617    150.060    152.209
         ROT  0.135E+09              888.752      2.981     40.185
         INT  0.360E+28            24974.369    153.041    192.393
         TR   0.156E+29             1481.254      4.968     45.225
         TOT                       26455.6233   158.0093   237.6180   994.1939

       T/K    H(0)-H(T)+PV         H(T)/Eh          T*S/Eh         G(T)/Eh
   ------------------------------------------------------------------------
    298.15    0.421597E-01    0.650990E+00    0.112900E+00    0.538090E+00
   ------------------------------------------------------------------------

         :::::::::::::::::::::::::::::::::::::::::::::::::::::
         ::                  THERMODYNAMIC                  ::
         :::::::::::::::::::::::::::::::::::::::::::::::::::::
         :: total free energy        -125.030665505002 Eh   ::
         ::.................................................::
         :: total energy             -125.568755933969 Eh   ::
         :: zero point energy           0.608830705576 Eh   ::
         :: G(RRHO) w/o ZPVE           -0.070740276609 Eh   ::
         :: G(RRHO) contrib.            0.538090428967 Eh   ::
         :::::::::::::::::::::::::::::::::::::::::::::::::::::

           -------------------------------------------------
          | TOTAL ENERGY             -125.568755933969 Eh   |
          | TOTAL ENTHALPY           -124.917765509107 Eh   |
          | TOTAL FREE ENERGY        -125.030665505002 Eh   |
          | GRADIENT NORM               0.000105903505 Eh/α |
          | HOMO-LUMO GAP               2.981683749240 eV   |
           -------------------------------------------------

 * finished run on 2025/08/26 at 00:44:11.071
