   * xtb version 6.7.1 (edcfbbe) compiled by 'albert@albert-system' on 2024-07-22

   ID    Z sym.   atoms
    1    9 F      1, 3, 4
    2    6 C      2, 5-8, 10-14, 16-21, 23-35, 37-42, 44-51, 53, 54
    3    7 N      9, 15, 36, 52
    4    8 O      22, 43
    5    1 H      55-81

          program call               : xtb data2507/gas/TFM-QP/TFM-QP_gas_S0_crest.xyz --gfn 2 --ohess vtight --parallel 40 --molden --ceasefiles --namespace data2507/gas/TFM-QP/TFM-QP_gas_S0_finalOpt
          :  Hamiltonian                  GFN2-xTB          :
 * total energy  :  -144.2331869 Eh     change       -0.1689529E-08 Eh
 * total energy  :  -144.2331874 Eh     change       -0.5228256E-06 Eh
 * total energy  :  -144.2331883 Eh     change       -0.8599800E-06 Eh
 * total energy  :  -144.2331891 Eh     change       -0.8395810E-06 Eh
 * total energy  :  -144.2331895 Eh     change       -0.4207722E-06 Eh
 * total energy  :  -144.2331898 Eh     change       -0.2875163E-06 Eh
 * total energy  :  -144.2331901 Eh     change       -0.2858196E-06 Eh
 * total energy  :  -144.2331904 Eh     change       -0.2615431E-06 Eh
 * total energy  :  -144.2331907 Eh     change       -0.2893495E-06 Eh
 * total energy  :  -144.2331910 Eh     change       -0.3152605E-06 Eh
 * total energy  :  -144.2331926 Eh     change       -0.8847951E-07 Eh
 * total energy  :  -144.2331929 Eh     change       -0.2970686E-06 Eh
 * total energy  :  -144.2331928 Eh     change        0.9686721E-07 Eh
 * total energy  :  -144.2331932 Eh     change       -0.4196814E-06 Eh
 * total energy  :  -144.2331934 Eh     change       -0.1864317E-06 Eh
 * total energy  :  -144.2331936 Eh     change       -0.2281123E-06 Eh
 * total energy  :  -144.2331935 Eh     change        0.1598024E-06 Eh
 * total energy  :  -144.2331937 Eh     change       -0.2670077E-06 Eh
 * total energy  :  -144.2331938 Eh     change       -0.6443562E-07 Eh
   *** GEOMETRY OPTIMIZATION CONVERGED AFTER 22 ITERATIONS ***

 final structure:
================
81
 xtb: 6.7.1 (edcfbbe)
F           -9.82395464919751       -0.61151458910348        0.76071318084987
C           -9.08720721143177       -0.39356943695927       -0.34474322792977
F           -9.09678473530318       -1.53736979449593       -1.03898805209172
F           -9.77731522647981        0.50216619236552       -1.07615337749360
C           -7.70550850940880        0.09636219878456       -0.01358302281557
C           -7.60092208166571        1.28166421442208        0.74032477145863
C           -6.37139933656594        1.78355044510683        1.06418189196935
C           -5.20815161218916        1.11332859995439        0.64174393977430
N           -3.99293336437791        1.64757728861438        0.90135310914593
C           -2.94207578711301        0.98912774037172        0.50465084231498
C           -1.58180223422692        1.53724234687727        0.63898074313806
C           -0.95253002373926        1.66635316244507        1.87050242430365
C            0.40083814590965        1.94501295785098        1.93359726064244
C            1.14000763881607        2.11424008663939        0.76631245439062
N            2.54239914388876        2.25070691986017        0.81601330190456
C            3.16913238792519        3.32688159408207        0.18097922546939
C            2.46031067141826        4.44844852766983       -0.23064649209090
C            3.10470441579654        5.50741781011803       -0.85173691243810
C            4.46840386516406        5.46695126251303       -1.06095657429932
C            5.19538406587018        4.37039144823190       -0.62186026887511
C            4.55815405098718        3.31444129396438        0.00310119294599
O            5.34771722100390        2.28583780506050        0.44873952568065
C            4.72047984774377        1.21975891754626        1.03940739407523
C            5.52557397154426        0.16929083858591        1.44016276642888
C            4.97048344644990       -0.96367536524862        2.01391542754193
C            3.60227321634955       -1.03856089063095        2.17295849994551
C            2.79224494397082        0.01699696868890        1.78197581309972
C            3.33292506659203        1.16687564084966        1.22277392480773
C            0.48187726375730        2.10472615413006       -0.46180602478727
C           -0.86003246343914        1.80149000267941       -0.52368493904742
C           -3.05880549610568       -0.30523342994408       -0.12230843704717
C           -1.80519680495354       -1.04323167780787       -0.35216017131685
C           -1.04633142214932       -1.41393102367999        0.75653409088239
C            0.23028208592964       -1.90594028266196        0.59927979985377
C            0.78931778812674       -2.00380091084553       -0.67325796326555
N            2.15085818309846       -2.33810365698365       -0.82366757933397
C            3.05583958045228       -1.37465020641178       -1.29050686908246
C            2.64483548524934       -0.15836502149211       -1.81873724720807
C            3.56621550365636        0.77431161205233       -2.27087798910262
C            4.91802762608700        0.50751920264540       -2.20550405183998
C            5.34666442419541       -0.69422406591402       -1.66419255085436
C            4.43158077847910       -1.62258694860757       -1.20264947935030
O            4.94228275446959       -2.76816480938461       -0.64990804874393
C            4.04876517898899       -3.67712028459013       -0.14432933907423
C            4.57305481309485       -4.81389700156570        0.44265108886651
C            3.73134871018878       -5.79871805693553        0.93799682712284
C            2.36430300146702       -5.64664515150312        0.82302006094897
C            1.83367215235549       -4.50582727324126        0.24049545179066
C            2.66287704246957       -3.49373973749922       -0.22629355684635
C           -0.00109338373432       -1.72575360915861       -1.78479219313861
C           -1.29231613846912       -1.25604744982473       -1.62532333334369
N           -4.21990708332977       -0.80125998428740       -0.43932410970395
C           -5.32150633112670       -0.09656135296551       -0.09490175109334
C           -6.59457370664483       -0.59091663848633       -0.43013461723722
H           -8.50376691595592        1.78467554005485        1.05153661551534
H           -6.26123286989057        2.69368172132259        1.63163582699435
H           -1.51790723266461        1.51198302169841        2.77720698137092
H            0.89696820813415        2.01299025189894        2.89028333663127
H            1.39640389135324        4.49694033062007       -0.05672329822365
H            2.52884543399493        6.36426222333448       -1.16594061100817
H            4.97405451480797        6.28471090198400       -1.54963239572117
H            6.26472156495100        4.31770137331322       -0.74961191972581
H            6.58846562442327        0.25526923933122        1.28274924448849
H            5.60518142729821       -1.78070853890241        2.31767993335058
H            3.15382311770618       -1.92203255701942        2.60348787657420
H            1.72382581078786       -0.05854703394198        1.90230927101739
H            1.03761654337490        2.30329192352100       -1.36502662743488
H           -1.35551851214953        1.75099565160732       -1.48230543572952
H           -1.45852707164935       -1.29764107314791        1.74830793355206
H            0.81580509011659       -2.18644552343683        1.46103261109958
H            1.59189293980359        0.06689893099686       -1.86635197585927
H            3.21768006033176        1.71339887570383       -2.67539923297737
H            5.63875477195769        1.22832998262070       -2.55717296109780
H            6.39523346694934       -0.92927244298847       -1.57955721970579
H            5.64544711635083       -4.91222010873518        0.49646966091906
H            4.14965321517387       -6.68081970189677        1.39640885069015
H            1.69694403850431       -6.41508802758735        1.18165661842295
H            0.76407932648921       -4.40378005388089        0.14029874706605
H            0.40909652180228       -1.86053220453546       -2.77452572799642
H           -1.89433632544346       -1.01867775677487       -2.48947656114230
H           -6.66510577610231       -1.50500889414091       -0.99832376046905

          :  Hamiltonian                  GFN2-xTB          :
         :: gradient norm              0.000052220527 Eh/a0 ::
         :: HOMO-LUMO gap              0.817947859164 eV    ::
         :: SCC energy              -146.510106645674 Eh    ::
         :: -> dispersion             -0.136554133707 Eh    ::
         :: repulsion energy           2.276912831568 Eh    ::

    * Orbital Energies and Occupations

         #    Occupation            Energy/Eh            Energy/eV
      -------------------------------------------------------------
         1        2.0000           -0.8791326             -23.9224
       ...           ...                  ...                  ...
       118        2.0000           -0.4258712             -11.5885
       119        2.0000           -0.4248472             -11.5607
       120        2.0000           -0.4235810             -11.5262
       121        2.0000           -0.4185719             -11.3899
       122        2.0000           -0.4181739             -11.3791
       123        2.0000           -0.4171144             -11.3503
       124        2.0000           -0.4150070             -11.2929
       125        2.0000           -0.4110099             -11.1841
       126        2.0000           -0.3935694             -10.7096
       127        2.0000           -0.3911848             -10.6447
       128        2.0000           -0.3735720             -10.1654
       129        2.0000           -0.3466922              -9.4340
       130        2.0000           -0.3459181              -9.4129 (HOMO)
       131        0.0000           -0.3158592              -8.5950 (LUMO)
       132                         -0.2805361              -7.6338
       133                         -0.2535207              -6.8987
       134                         -0.2518504              -6.8532
       135                         -0.2480930              -6.7510
       136                         -0.2445656              -6.6550
       137                         -0.2413339              -6.5670
       138                         -0.2402311              -6.5370
       139                         -0.2392670              -6.5108
       140                         -0.2323574              -6.3228
       141                         -0.2315915              -6.3019
       ...                                ...                  ...
       243                          0.6727557              18.3066
      -------------------------------------------------------------
                  HL-Gap            0.0300589 Eh            0.8179 eV

     #   Z          covCN         q      C6AA      α(0)
     1   9 F        0.791    -0.208    11.314     3.973
     2   6 C        3.337     0.486    17.273     6.580
     3   9 F        0.791    -0.202    11.256     3.963
     4   9 F        0.791    -0.208    11.317     3.974
     5   6 C        2.975    -0.023    28.570     8.768
     6   6 C        2.919    -0.024    28.593     8.769
     7   6 C        2.918    -0.032    28.804     8.801
     8   6 C        2.973     0.083    26.138     8.386
     9   7 N        1.844    -0.219    26.606     7.644
    10   6 C        2.963     0.095    25.892     8.346
    11   6 C        2.979     0.003    27.962     8.674
    12   6 C        2.921    -0.027    28.680     8.782
    13   6 C        2.922    -0.041    29.009     8.832
    14   6 C        2.922     0.068    26.483     8.439
    15   7 N        2.750    -0.073    22.663     7.070
    16   6 C        2.923     0.043    27.046     8.528
    17   6 C        2.924    -0.059    29.465     8.902
    18   6 C        2.919    -0.039    28.972     8.827
    19   6 C        2.919    -0.040    28.991     8.830
    20   6 C        2.920    -0.056    29.390     8.890
    21   6 C        2.885     0.126    25.239     8.236
    22   8 O        1.709    -0.252    18.167     5.755
    23   6 C        2.886     0.125    25.249     8.238
    24   6 C        2.921    -0.054    29.353     8.885
    25   6 C        2.919    -0.037    28.916     8.818
    26   6 C        2.919    -0.038    28.949     8.823
    27   6 C        2.925    -0.063    29.566     8.917
    28   6 C        2.923     0.041    27.077     8.533
    29   6 C        2.922    -0.040    29.003     8.832
    30   6 C        2.927    -0.031    28.768     8.796
    31   6 C        2.964     0.094    25.905     8.348
    32   6 C        2.979     0.003    27.960     8.674
    33   6 C        2.927    -0.031    28.769     8.796
    34   6 C        2.922    -0.040    29.004     8.832
    35   6 C        2.922     0.068    26.483     8.439
    36   7 N        2.750    -0.073    22.666     7.071
    37   6 C        2.923     0.041    27.076     8.533
    38   6 C        2.925    -0.063    29.567     8.917
    39   6 C        2.919    -0.038    28.951     8.824
    40   6 C        2.919    -0.037    28.919     8.819
    41   6 C        2.921    -0.055    29.355     8.885
    42   6 C        2.886     0.125    25.249     8.238
    43   8 O        1.709    -0.252    18.168     5.755
    44   6 C        2.885     0.126    25.240     8.237
    45   6 C        2.920    -0.056    29.390     8.890
    46   6 C        2.919    -0.040    28.991     8.830
    47   6 C        2.919    -0.039    28.971     8.827
    48   6 C        2.924    -0.059    29.462     8.901
    49   6 C        2.923     0.043    27.046     8.528
    50   6 C        2.922    -0.041    29.007     8.832
    51   6 C        2.921    -0.027    28.679     8.782
    52   7 N        1.844    -0.217    26.575     7.640
    53   6 C        2.975     0.083    26.149     8.388
    54   6 C        2.919    -0.032    28.797     8.800
    55   1 H        0.926     0.064     2.148     2.292
    56   1 H        0.926     0.073     2.056     2.242
    57   1 H        0.926     0.045     2.381     2.413
    58   1 H        0.926     0.050     2.320     2.382
    59   1 H        0.926     0.035     2.519     2.482
    60   1 H        0.926     0.037     2.490     2.468
    61   1 H        0.926     0.039     2.459     2.452
    62   1 H        0.926     0.051     2.307     2.375
    63   1 H        0.926     0.053     2.279     2.361
    64   1 H        0.926     0.041     2.429     2.437
    65   1 H        0.926     0.029     2.601     2.522
    66   1 H        0.926     0.033     2.549     2.497
    67   1 H        0.926     0.048     2.339     2.392
    68   1 H        0.926     0.035     2.514     2.480
    69   1 H        0.926     0.035     2.517     2.481
    70   1 H        0.926     0.048     2.342     2.393
    71   1 H        0.926     0.033     2.549     2.497
    72   1 H        0.926     0.029     2.603     2.523
    73   1 H        0.926     0.041     2.432     2.439
    74   1 H        0.926     0.053     2.280     2.361
    75   1 H        0.926     0.051     2.308     2.376
    76   1 H        0.926     0.039     2.459     2.452
    77   1 H        0.926     0.037     2.488     2.467
    78   1 H        0.926     0.035     2.516     2.480
    79   1 H        0.926     0.050     2.317     2.381
    80   1 H        0.926     0.046     2.376     2.410
    81   1 H        0.926     0.081     1.966     2.193

molecular dipole:
                 x           y           z       tot (Debye)
 q only:        1.334       0.489       0.334
   full:        1.093       0.496       0.337       3.168

 projected vibrational frequencies (cm⁻¹)
eigval :       -0.00    -0.00    -0.00    -0.00     0.00     0.00
eigval :       14.24    14.84    19.99    21.52    24.34    30.90
eigval :       41.50    49.04    49.90    56.28    61.28    73.62
eigval :       74.98    90.82    93.65   101.57   116.25   122.95
eigval :      128.14   131.41   144.83   146.91   163.11   195.54
eigval :      203.61   208.98   224.79   231.56   244.96   257.56
eigval :      259.12   265.50   276.53   284.46   296.71   307.26
eigval :      326.62   352.44   362.33   368.32   378.42   381.68
eigval :      385.20   391.20   395.20   400.60   405.85   416.85
eigval :      421.54   430.11   431.10   435.11   448.78   450.84
eigval :      454.82   457.99   481.68   492.95   504.50   511.08
eigval :      511.93   518.10   525.63   525.97   534.29   551.49
eigval :      554.97   569.26   578.64   584.50   594.35   598.11
eigval :      601.42   610.51   614.27   622.65   632.06   653.63
eigval :      660.16   660.64   663.25   663.31   671.45   687.21
eigval :      692.19   703.01   711.18   731.22   734.78   772.69
eigval :      778.38   780.13   781.51   781.92   802.53   803.85
eigval :      819.03   821.21   828.69   839.30   856.33   856.56
eigval :      859.86   863.07   868.52   869.50   877.67   878.01
eigval :      880.57   895.17   898.16   898.81   899.55   899.83
eigval :      913.26   913.44   914.65   915.62   916.04   916.48
eigval :      917.15   917.49   919.64   927.31   928.94   936.96
eigval :      939.22   973.17  1008.98  1032.35  1032.83  1061.96
eigval :     1072.03  1089.72  1089.77  1090.24  1095.06  1095.77
eigval :     1109.10  1109.16  1121.48  1122.94  1129.11  1131.44
eigval :     1148.31  1170.71  1171.19  1175.99  1176.30  1182.82
eigval :     1184.25  1191.28  1192.90  1196.09  1205.42  1205.45
eigval :     1217.72  1222.40  1227.92  1237.01  1244.50  1244.57
eigval :     1257.35  1262.06  1262.70  1267.06  1268.04  1288.08
eigval :     1302.61  1306.66  1307.80  1312.18  1312.60  1317.39
eigval :     1321.35  1338.39  1339.11  1355.44  1356.24  1385.27
eigval :     1399.58  1400.03  1401.59  1424.33  1424.74  1440.67
eigval :     1443.62  1444.61  1473.17  1483.00  1488.01  1489.86
eigval :     1500.09  1505.55  1507.14  1549.04  1550.18  1557.22
eigval :     1557.43  1569.37  1569.42  1581.34  1581.37  1589.70
eigval :     1590.57  1593.93  1594.11  1604.17  1604.44  1608.85
eigval :     3078.22  3078.40  3080.09  3080.96  3086.28  3086.62
eigval :     3088.59  3088.76  3096.66  3096.96  3097.04  3097.09
eigval :     3098.13  3102.97  3103.07  3103.20  3103.45  3104.37
eigval :     3104.60  3109.62  3112.71  3113.13  3113.18  3113.74
eigval :     3115.08  3116.21  3117.77

   temp. (K)  partition function   enthalpy   heat capacity  entropy
                                   cal/mol     cal/K/mol   cal/K/mol   J/K/mol
 298.15  VIB  0.479E+19            24642.026    156.464    152.042
         ROT  0.105E+09              888.752      2.981     39.678
         INT  0.502E+27            25530.778    159.445    191.721
         TR   0.184E+29             1481.254      4.968     45.551
         TOT                       27012.0320   164.4134   237.2719   992.7458

       T/K    H(0)-H(T)+PV         H(T)/Eh          T*S/Eh         G(T)/Eh
   ------------------------------------------------------------------------
    298.15    0.430464E-01    0.632854E+00    0.112736E+00    0.520118E+00
   ------------------------------------------------------------------------

         :::::::::::::::::::::::::::::::::::::::::::::::::::::
         ::                  THERMODYNAMIC                  ::
         :::::::::::::::::::::::::::::::::::::::::::::::::::::
         :: total free energy        -143.713075642905 Eh   ::
         ::.................................................::
         :: total energy             -144.233193814103 Eh   ::
         :: zero point energy           0.589807315584 Eh   ::
         :: G(RRHO) w/o ZPVE           -0.069689144386 Eh   ::
         :: G(RRHO) contrib.            0.520118171198 Eh   ::
         :::::::::::::::::::::::::::::::::::::::::::::::::::::

           -------------------------------------------------
          | TOTAL ENERGY             -144.233193814103 Eh   |
          | TOTAL ENTHALPY           -143.600340085584 Eh   |
          | TOTAL FREE ENERGY        -143.713075642905 Eh   |
          | GRADIENT NORM               0.000052329787 Eh/α |
          | HOMO-LUMO GAP               0.817944389280 eV   |
           -------------------------------------------------

 * finished run on 2025/07/16 at 18:39:44.237
