   * xtb version 6.7.1 (edcfbbe) compiled by 'albert@albert-system' on 2024-07-22

   ID    Z sym.   atoms
    1    9 F      1, 3, 4
    2    6 C      2, 5-8, 10-14, 16-21, 23-35, 37-42, 44-51, 53, 54
    3    7 N      9, 15, 36, 52
    4    8 O      22, 43
    5    1 H      55-81

          program call               : xtb data2507/gas/TFM-QP/TFM-QP_gas_T1_crest.xyz --gfn 2 --spinpol --tblite --uhf 2 --ohess vtight --parallel 40 --molden --ceasefiles --namespace data2507/gas/TFM-QP/TFM-QP_gas_T1_finalOpt
 * total energy  :  -144.1860142 Eh     change        0.6256187E-09 Eh
 * total energy  :  -144.1860382 Eh     change       -0.2397242E-04 Eh
 * total energy  :  -144.1860454 Eh     change       -0.7171675E-05 Eh
 * total energy  :  -144.1860478 Eh     change       -0.2425484E-05 Eh
 * total energy  :  -144.1860504 Eh     change       -0.2662486E-05 Eh
 * total energy  :  -144.1860531 Eh     change       -0.2631594E-05 Eh
 * total energy  :  -144.1860558 Eh     change       -0.2768850E-05 Eh
 * total energy  :  -144.1860581 Eh     change       -0.2267209E-05 Eh
 * total energy  :  -144.1860596 Eh     change       -0.1447485E-05 Eh
 * total energy  :  -144.1860607 Eh     change       -0.1165008E-05 Eh
 * total energy  :  -144.1860643 Eh     change       -0.5483015E-06 Eh
 * total energy  :  -144.1860649 Eh     change       -0.5504552E-06 Eh
 * total energy  :  -144.1860654 Eh     change       -0.5063486E-06 Eh
 * total energy  :  -144.1860659 Eh     change       -0.5600398E-06 Eh
 * total energy  :  -144.1860663 Eh     change       -0.3860068E-06 Eh
 * total energy  :  -144.1860667 Eh     change       -0.4079589E-06 Eh
 * total energy  :  -144.1860671 Eh     change       -0.4003585E-06 Eh
 * total energy  :  -144.1860679 Eh     change       -0.7414844E-06 Eh
 * total energy  :  -144.1860679 Eh     change       -0.1142749E-07 Eh
   *** GEOMETRY OPTIMIZATION CONVERGED AFTER 22 ITERATIONS ***

 final structure:
================
81
 xtb: 6.7.1 (edcfbbe)
F           -9.00063017575085       -0.99433433218111        0.61187710074996
C           -8.80461973736589        0.12290764211177       -0.11579160315417
F           -9.09570566530347       -0.22242601056759       -1.38996678112785
F           -9.76187918826788        0.98520566126111        0.25875743515778
C           -7.41884121119634        0.66798550103384        0.02465679283661
C           -7.20366574241582        2.01514766543133        0.27409737703430
C           -5.91103439923695        2.49898814230464        0.37511486248929
C           -4.81355686849295        1.65094272365490        0.22755641995409
N           -3.55817146683993        2.09642598368843        0.27768126204967
C           -2.52113131569073        1.27348601117287        0.13175935438340
C           -1.17376028956378        1.83536946892360        0.10314156936414
C           -0.80651911252347        2.82576115894289        1.01464319309378
C            0.49161066538031        3.29352879100982        1.05863315276902
C            1.44117511677669        2.78942273246689        0.17640281377753
N            2.79515056326481        3.19441280212859        0.25619381605277
C            3.18579811884560        4.48452626449401       -0.08876497794821
C            2.27109823580874        5.45840341614536       -0.47291014195673
C            2.69719146323001        6.73338155916715       -0.80722470117084
C            4.04090678394090        7.05420129286701       -0.77095907059385
C            4.96812169264051        6.08759369298284       -0.41286240216190
C            4.55032942308029        4.81184816826756       -0.08019580674853
O            5.52231353363966        3.89671523439948        0.23458377938857
C            5.11789755891123        2.64000532563642        0.60065974015813
C            6.10169309024179        1.73403989524371        0.95421799340252
C            5.75836071669475        0.45482145651317        1.36378836785090
C            4.42684922282000        0.09348349233258        1.43431484336712
C            3.43666630772991        0.99278366838091        1.07519862063592
C            3.76511072368719        2.26940146817555        0.63218168459198
C            1.06390014864185        1.85725249752209       -0.78702695520901
C           -0.23003312109992        1.38826732231478       -0.82620129944179
C           -2.74699368552051       -0.11126372920834       -0.00470517579712
C           -1.63932957609646       -1.06628071537133       -0.01272416222089
C           -0.58840338699052       -0.94728200524534        0.90014530189621
C            0.49406355222864       -1.79587005332095        0.83119666117195
C            0.54444583343263       -2.78610249326093       -0.14648379025727
N            1.70212034169557       -3.59323772744581       -0.25638836320590
C            2.90493070503565       -3.01479254138063       -0.65172393347897
C            2.98414130232711       -1.69454643413505       -1.08120006763345
C            4.19835149822319       -1.14734624692780       -1.46124348518992
C            5.35025790436485       -1.90910301776281       -1.42511289121769
C            5.28370564919906       -3.23593040197429       -1.02874546369917
C            4.07334684074913       -3.79146881541671       -0.65444180924996
O            4.07086531525229       -5.11539235746732       -0.30259873964478
C            2.86820526859193       -5.68262119065096        0.03399183357273
C            2.87200906224737       -7.02808723837135        0.35416786256937
C            1.69652062242517       -7.65841966354406        0.73250561762216
C            0.52224492349456       -6.93295188995036        0.80118165430438
C            0.51024436374934       -5.58564839409630        0.47947225107564
C            1.67571014190284       -4.94422904103360        0.07592042703912
C           -0.52899201914719       -2.95636201792145       -1.01375200143967
C           -1.61547711316814       -2.10711762190032       -0.94015516924281
N           -3.98797686956814       -0.57154170714351       -0.10455634687519
C           -5.04421100582938        0.24568172570035       -0.01563936249200
C           -6.34959301724995       -0.21592547650680       -0.12109500998595
H           -8.04174107589233        2.68437210528726        0.38812819180459
H           -5.72662001983792        3.54515045159615        0.55853287462532
H           -1.54464638819902        3.19882387760801        1.70770579018559
H            0.78207072475406        4.03429646870983        1.78902115120709
H            1.22198626581228        5.21210585251616       -0.51719398142832
H            1.96837206828036        7.47324996639498       -1.09939886006287
H            4.37479795922541        8.04686269615980       -1.02764718594173
H            6.02454701785744        6.30179674531860       -0.39132212283452
H            7.13064435442770        2.05240482845952        0.90650398483761
H            6.53066242644361       -0.24740100983258        1.63349349028163
H            4.15079368610710       -0.89429310313052        1.76894659401211
H            2.39876813539566        0.70614442095788        1.13652685090376
H            1.79728106630978        1.50503126528743       -1.49758643183078
H           -0.51949131933360        0.67577604471878       -1.58380855201949
H           -0.62795049065746       -0.18879586389215        1.66735691276947
H            1.31314959344801       -1.69892263298877        1.52863078044487
H            2.08763690804459       -1.09602700946365       -1.11557794237348
H            4.23906420983603       -0.11908652858076       -1.78514714785581
H            6.29772202181468       -1.48170882362301       -1.71138776981837
H            6.16150018112759       -3.86154273918656       -1.00755572404884
H            3.80714566091281       -7.56255850829776        0.30680285210857
H            1.70777979579504       -8.70801481621313        0.97939481932114
H           -0.39522862206047       -7.40971738737000        1.10908278034759
H           -0.40759706070869       -5.02346435054896        0.54861387203197
H           -0.49676238870645       -3.74098181813835       -1.75524149450455
H           -2.44452688271425       -2.22168071558771       -1.62120813814807
H           -6.52158744862312       -1.26475475434447       -0.30234210323188

 projected vibrational frequencies (cm⁻¹)
eigval :       -0.00    -0.00    -0.00     0.00     0.00     0.00
eigval :        8.69    10.67    13.38    16.37    22.08    24.93
eigval :       31.43    37.26    43.98    49.48    55.22    60.66
eigval :       73.65    76.38    83.43    97.08   107.40   114.03
eigval :      120.40   124.50   141.82   154.12   164.00   195.68
eigval :      198.55   205.09   221.26   237.69   247.37   250.29
eigval :      254.03   261.22   271.02   283.78   289.10   299.25
eigval :      312.48   352.22   363.92   374.06   376.89   378.36
eigval :      385.24   387.70   389.46   396.52   405.03   414.91
eigval :      420.94   426.30   428.42   431.28   436.33   448.20
eigval :      449.50   462.22   475.92   493.00   506.40   506.42
eigval :      508.47   513.89   523.57   523.67   537.62   548.65
eigval :      549.90   562.42   570.73   582.94   588.50   592.30
eigval :      595.75   604.89   612.28   614.49   619.45   638.84
eigval :      653.63   662.61   662.88   664.19   664.74   670.19
eigval :      686.77   688.61   692.96   698.76   719.91   729.28
eigval :      774.66   776.54   777.82   778.12   798.16   800.44
eigval :      801.72   809.53   813.65   816.87   832.73   855.10
eigval :      855.62   860.09   863.71   864.10   865.79   869.73
eigval :      870.62   879.95   895.80   896.18   897.09   898.59
eigval :      898.81   904.71   912.29   912.74   913.64   914.46
eigval :      915.88   916.75   918.35   920.93   921.15   927.06
eigval :      927.46   958.37  1009.96  1013.62  1025.35  1048.77
eigval :     1078.08  1087.01  1087.11  1089.09  1089.28  1103.88
eigval :     1110.16  1110.46  1120.60  1122.32  1129.15  1129.52
eigval :     1142.92  1167.89  1170.09  1173.97  1174.37  1179.22
eigval :     1179.72  1186.97  1190.72  1195.38  1203.34  1203.59
eigval :     1217.95  1222.88  1230.66  1240.14  1240.65  1242.09
eigval :     1257.82  1258.72  1260.23  1261.34  1264.36  1273.74
eigval :     1302.33  1306.99  1311.50  1311.99  1312.40  1313.90
eigval :     1316.87  1319.69  1332.72  1334.75  1346.23  1348.96
eigval :     1352.78  1398.88  1404.34  1404.94  1412.72  1422.99
eigval :     1423.11  1442.92  1443.10  1463.19  1468.41  1471.28
eigval :     1476.53  1485.23  1486.72  1494.24  1522.51  1543.47
eigval :     1546.21  1549.24  1563.95  1564.20  1573.51  1573.60
eigval :     1581.40  1583.02  1583.91  1585.43  1594.27  1596.31
eigval :     3080.82  3081.63  3085.38  3086.23  3091.60  3091.93
eigval :     3093.58  3093.66  3093.76  3094.10  3101.15  3102.13
eigval :     3102.37  3102.51  3102.80  3102.89  3103.97  3107.69
eigval :     3108.10  3109.00  3109.01  3109.50  3110.79  3114.94
eigval :     3115.10  3115.28  3115.87

   temp. (K)  partition function   enthalpy   heat capacity  entropy
                                   cal/mol     cal/K/mol   cal/K/mol   J/K/mol
 298.15  VIB  0.143E+21            25021.744    156.671    156.054
         ROT  0.138E+09              888.752      2.981     40.227
         INT  0.197E+29            25910.496    159.652    196.281
         TR   0.184E+29             1481.254      4.968     45.551
         TOT                       27391.7503   164.6198   241.8320  1011.8250

       T/K    H(0)-H(T)+PV         H(T)/Eh          T*S/Eh         G(T)/Eh
   ------------------------------------------------------------------------
    298.15    0.436515E-01    0.630177E+00    0.114902E+00    0.515275E+00
   ------------------------------------------------------------------------

         :::::::::::::::::::::::::::::::::::::::::::::::::::::
         ::                  THERMODYNAMIC                  ::
         :::::::::::::::::::::::::::::::::::::::::::::::::::::
         :: total free energy        -143.670793342171 Eh   ::
         ::.................................................::
         :: total energy             -144.186067901661 Eh   ::
         :: zero point energy           0.586525204915 Eh   ::
         :: G(RRHO) w/o ZPVE           -0.071250645424 Eh   ::
         :: G(RRHO) contrib.            0.515274559490 Eh   ::
         :::::::::::::::::::::::::::::::::::::::::::::::::::::

           -------------------------------------------------
          | TOTAL ENERGY             -144.186067901661 Eh   |
          | TOTAL ENTHALPY           -143.555891164153 Eh   |
          | TOTAL FREE ENERGY        -143.670793342171 Eh   |
          | GRADIENT NORM               0.000068999144 Eh/α |
           -------------------------------------------------

 * finished run on 2025/07/16 at 18:47:30.293
