   * xtb version 6.7.1 (edcfbbe) compiled by 'albert@albert-system' on 2024-07-22

   ID    Z sym.   atoms
    1    9 F      1, 3, 4
    2    6 C      2, 5-8, 10-14, 16-21, 23-35, 37-42, 44-51, 53, 54
    3    7 N      9, 15, 36, 52
    4    8 O      22, 43
    5    1 H      55-81

          program call               : xtb data2507/gas/TFM-QP/TFM-QP.xyz --gfn 2 --ohess vtight --parallel 40 --molden --ceasefiles --namespace data2507/gas/TFM-QP/TFM-QP_gas_S0_preOpt
          :  Hamiltonian                  GFN2-xTB          :
 * total energy  :  -144.2013206 Eh     change       -0.1707747E-08 Eh
 * total energy  :  -144.2172767 Eh     change       -0.1595603E-01 Eh
 * total energy  :  -144.2232091 Eh     change       -0.5932404E-02 Eh
 * total energy  :  -144.2251227 Eh     change       -0.1913591E-02 Eh
 * total energy  :  -144.2268925 Eh     change       -0.1769858E-02 Eh
 * total energy  :  -144.2278000 Eh     change       -0.9074340E-03 Eh
 * total energy  :  -144.2284506 Eh     change       -0.6506498E-03 Eh
 * total energy  :  -144.2291605 Eh     change       -0.7099207E-03 Eh
 * total energy  :  -144.2299307 Eh     change       -0.7702201E-03 Eh
 * total energy  :  -144.2305594 Eh     change       -0.6286327E-03 Eh
 * total energy  :  -144.2318353 Eh     change       -0.2974234E-06 Eh
 * total energy  :  -144.2318355 Eh     change       -0.1894449E-06 Eh
 * total energy  :  -144.2318357 Eh     change       -0.1591555E-06 Eh
 * total energy  :  -144.2318358 Eh     change       -0.1400863E-06 Eh
 * total energy  :  -144.2318360 Eh     change       -0.1639575E-06 Eh
 * total energy  :  -144.2318362 Eh     change       -0.2253516E-06 Eh
 * total energy  :  -144.2318364 Eh     change       -0.2282754E-06 Eh
 * total energy  :  -144.2318366 Eh     change       -0.1895871E-06 Eh
 * total energy  :  -144.2318366 Eh     change       -0.1319620E-08 Eh
   *** GEOMETRY OPTIMIZATION CONVERGED AFTER 94 ITERATIONS ***

 final structure:
================
81
 xtb: 6.7.1 (edcfbbe)
F           -9.82976821985114        2.04125528542931        0.87494144969210
C           -9.15211481602911        1.77502667651589       -0.25809170765288
F           -9.48039199747289        0.52644298082455       -0.61106314990228
F           -9.67454663529268        2.58611047118036       -1.19757469675929
C           -7.67344605663232        1.98321960720427       -0.09263133905906
C           -7.23610734030075        3.27687286459594        0.25633988145953
C           -5.90289993281752        3.53384278350348        0.41095629687337
C           -4.96521657848184        2.50080280255568        0.21956177829690
N           -3.64556015547885        2.76481158246435        0.27736814633480
C           -2.79833162487761        1.78000878021348        0.11112312253207
C           -1.37264707660827        2.11092904356029        0.06198364625687
C           -0.85648563965560        3.06109840659569        0.94117029842144
C            0.49837954965226        3.32026344622815        0.97811239934344
C            1.36061289723744        2.64196825479728        0.12064569671076
N            2.75286306036331        2.84124894861800        0.18882975151928
C            3.32524373466665        4.07993236657875       -0.10987695749212
C            2.56299295109703        5.18271704562905       -0.47250145204390
C            3.16674815186651        6.39573988998789       -0.76759003080658
C            4.53977770477485        6.52315943047805       -0.71431149927802
C            5.31655083503872        5.42273067935588       -0.38270132033070
C            4.72052193097923        4.21005889692409       -0.09130958694363
O            5.55625774873586        3.15738972238032        0.19049995600974
C            4.97624870716404        1.96242506062635        0.53535574070352
C            5.82364701924529        0.92790665379655        0.88644046923350
C            5.30692945382570       -0.29679619265028        1.28283779922570
C            3.93971977871171       -0.47150545631517        1.34481985482516
C            3.08544201723004        0.56009547752129        0.98648434693396
C            3.58735103712724        1.78073772627165        0.55321152301087
C            0.83944783951328        1.74143528214950       -0.80685278590537
C           -0.51263154139871        1.47910356726602       -0.83786971523638
C           -3.26453790274494        0.42408749283131       -0.02007850980407
C           -2.34170305465761       -0.71282549756007        0.00773148327594
C           -1.26041319566254       -0.74654790221481        0.88981940164683
C           -0.35405691945256       -1.78283286531354        0.83786032814643
C           -0.51027946926554       -2.80831567774832       -0.09305008938429
N            0.46641610002877       -3.81879471887761       -0.18363097043175
C            1.76803258375163       -3.49090802668477       -0.57299996749353
C            2.11116418073350       -2.21682681716006       -1.00725796631448
C            3.41107564832038       -1.92383637772715       -1.39049543743599
C            4.38508916938201       -2.90026396307251       -1.35267592842878
C            4.05047113136075       -4.18644031358523       -0.95528868748809
C            2.75412900019131       -4.48595291318723       -0.57939276289556
O            2.48681564549987       -5.78703797885023       -0.23465907847786
C            1.18676874899276       -6.10787487313327        0.07095550301443
C            0.91977510115337       -7.43277121997290        0.36081108844609
C           -0.36193599651266       -7.82750063153168        0.71542177043230
C           -1.36724210958238       -6.88535378868158        0.79296671937184
C           -1.10618556203068       -5.55541796798326        0.49944986256667
C            0.16491653882140       -5.14981871864140        0.11428709967025
C           -1.62159469743672       -2.81061619755083       -0.93187405251145
C           -2.53178408253012       -1.77495908213812       -0.87422570972556
N           -4.54016362868077        0.16915707420010       -0.16951558329684
C           -5.41651863091876        1.18909122406372       -0.09321036713919
C           -6.79175603112753        0.94793749625624       -0.26630322969740
H           -7.96975765389925        4.05693887420756        0.39161428024562
H           -5.54057561657256        4.51718508515969        0.66446151319449
H           -1.53105387678477        3.56615063167877        1.61505488343034
H            0.90044812945357        4.03055835137078        1.68508091805613
H            1.49008209227273        5.09128030441914       -0.53659093922902
H            2.55026792398266        7.23740758020180       -1.04317057561475
H            5.01385751872414        7.46538999641335       -0.93895046086532
H            6.39265697650434        5.48298056654345       -0.35250903355887
H            6.88673649929965        1.10385750312254        0.84812600605904
H            5.97466977010826       -1.10002465987560        1.55012583251261
H            3.52627935179730       -1.41316885716982        1.67072483035086
H            2.01788045223142        0.41589630596881        1.04484938327026
H            1.50826137574195        1.24761541242205       -1.49608177782622
H           -0.90833142688282        0.79414328631602       -1.57291556642206
H           -1.14053160947717        0.03294213874147        1.62747926728544
H            0.48846427283770       -1.80688885053880        1.51300081789762
H            1.35508674994885       -1.44825621656739       -1.04677293561191
H            3.65520782133152       -0.92491441943706       -1.71683042320561
H            5.39947064779751       -2.67384939887904       -1.63953796090086
H            4.78310261062781       -4.97729381576706       -0.93536854759053
H            1.73211307169356       -8.14001883266300        0.31109147442500
H           -0.56080671622444       -8.86366378290878        0.93864880325212
H           -2.36479742875006       -7.17371018928014        1.08636624422808
H           -1.89632607379655       -4.82574175826093        0.58216077089912
H           -1.75188413948760       -3.61458052522606       -1.64082871521080
H           -3.38563367894628       -1.75661939987118       -1.53360489832145
H           -7.11996041342450       -0.04802617014871       -0.51857102276894

          :  Hamiltonian                  GFN2-xTB          :
         :: gradient norm              0.000028722978 Eh/a0 ::
         :: HOMO-LUMO gap              0.835322061079 eV    ::
         :: SCC energy              -146.507489838808 Eh    ::
         :: -> dispersion             -0.123020308108 Eh    ::
         :: repulsion energy           2.275653205901 Eh    ::

    * Orbital Energies and Occupations

         #    Occupation            Energy/Eh            Energy/eV
      -------------------------------------------------------------
         1        2.0000           -0.8774259             -23.8760
       ...           ...                  ...                  ...
       118        2.0000           -0.4273594             -11.6290
       119        2.0000           -0.4253613             -11.5747
       120        2.0000           -0.4224367             -11.4951
       121        2.0000           -0.4209551             -11.4548
       122        2.0000           -0.4173137             -11.3557
       123        2.0000           -0.4166460             -11.3375
       124        2.0000           -0.4152845             -11.3005
       125        2.0000           -0.4098042             -11.1513
       126        2.0000           -0.3950180             -10.7490
       127        2.0000           -0.3921149             -10.6700
       128        2.0000           -0.3715698             -10.1109
       129        2.0000           -0.3480139              -9.4699
       130        2.0000           -0.3465364              -9.4297 (HOMO)
       131        0.0000           -0.3158389              -8.5944 (LUMO)
       132                         -0.2876164              -7.8264
       133                         -0.2525607              -6.8725
       134                         -0.2511410              -6.8339
       135                         -0.2466199              -6.7109
       136                         -0.2439454              -6.6381
       137                         -0.2428374              -6.6079
       138                         -0.2402746              -6.5382
       139                         -0.2338276              -6.3628
       140                         -0.2333174              -6.3489
       141                         -0.2322257              -6.3192
       ...                                ...                  ...
       243                          0.6724713              18.2989
      -------------------------------------------------------------
                  HL-Gap            0.0306975 Eh            0.8353 eV

     #   Z          covCN         q      C6AA      α(0)
     1   9 F        0.791    -0.209    11.324     3.975
     2   6 C        3.337     0.486    17.273     6.580
     3   9 F        0.791    -0.203    11.265     3.965
     4   9 F        0.791    -0.209    11.323     3.975
     5   6 C        2.975    -0.024    28.598     8.772
     6   6 C        2.919    -0.024    28.612     8.772
     7   6 C        2.918    -0.033    28.834     8.805
     8   6 C        2.965     0.084    26.137     8.386
     9   7 N        1.850    -0.225    26.764     7.668
    10   6 C        2.952     0.091    25.986     8.361
    11   6 C        2.981     0.004    27.922     8.668
    12   6 C        2.924    -0.026    28.640     8.776
    13   6 C        2.920    -0.040    28.986     8.829
    14   6 C        2.922     0.070    26.444     8.433
    15   7 N        2.752    -0.070    22.602     7.061
    16   6 C        2.921     0.042    27.055     8.530
    17   6 C        2.923    -0.060    29.498     8.907
    18   6 C        2.919    -0.038    28.951     8.824
    19   6 C        2.919    -0.040    28.987     8.829
    20   6 C        2.920    -0.056    29.384     8.889
    21   6 C        2.884     0.125    25.263     8.240
    22   8 O        1.709    -0.254    18.207     5.761
    23   6 C        2.883     0.125    25.256     8.239
    24   6 C        2.920    -0.056    29.385     8.889
    25   6 C        2.919    -0.039    28.967     8.826
    26   6 C        2.919    -0.036    28.887     8.814
    27   6 C        2.924    -0.058    29.454     8.900
    28   6 C        2.924     0.042    27.064     8.531
    29   6 C        2.921    -0.039    28.974     8.827
    30   6 C        2.922    -0.029    28.727     8.789
    31   6 C        2.952     0.090    25.999     8.363
    32   6 C        2.980     0.004    27.923     8.668
    33   6 C        2.922    -0.029    28.730     8.790
    34   6 C        2.921    -0.039    28.975     8.827
    35   6 C        2.922     0.070    26.444     8.433
    36   7 N        2.752    -0.070    22.605     7.061
    37   6 C        2.924     0.042    27.063     8.531
    38   6 C        2.924    -0.059    29.458     8.901
    39   6 C        2.919    -0.036    28.890     8.814
    40   6 C        2.919    -0.039    28.970     8.826
    41   6 C        2.920    -0.056    29.387     8.890
    42   6 C        2.883     0.125    25.256     8.239
    43   8 O        1.709    -0.254    18.210     5.762
    44   6 C        2.884     0.125    25.265     8.241
    45   6 C        2.920    -0.056    29.384     8.889
    46   6 C        2.919    -0.040    28.987     8.829
    47   6 C        2.919    -0.038    28.949     8.823
    48   6 C        2.923    -0.060    29.496     8.906
    49   6 C        2.921     0.042    27.055     8.530
    50   6 C        2.920    -0.040    28.982     8.828
    51   6 C        2.924    -0.025    28.639     8.776
    52   7 N        1.850    -0.224    26.734     7.663
    53   6 C        2.967     0.083    26.148     8.388
    54   6 C        2.918    -0.033    28.825     8.804
    55   1 H        0.926     0.062     2.170     2.304
    56   1 H        0.926     0.070     2.087     2.259
    57   1 H        0.926     0.056     2.251     2.346
    58   1 H        0.926     0.049     2.333     2.388
    59   1 H        0.926     0.036     2.507     2.476
    60   1 H        0.926     0.037     2.486     2.466
    61   1 H        0.926     0.039     2.458     2.452
    62   1 H        0.926     0.051     2.302     2.372
    63   1 H        0.926     0.052     2.293     2.368
    64   1 H        0.926     0.040     2.452     2.449
    65   1 H        0.926     0.032     2.557     2.500
    66   1 H        0.926     0.030     2.580     2.512
    67   1 H        0.926     0.045     2.383     2.414
    68   1 H        0.926     0.036     2.505     2.475
    69   1 H        0.926     0.035     2.511     2.478
    70   1 H        0.926     0.045     2.387     2.416
    71   1 H        0.926     0.030     2.584     2.514
    72   1 H        0.926     0.032     2.562     2.503
    73   1 H        0.926     0.040     2.455     2.450
    74   1 H        0.926     0.052     2.294     2.369
    75   1 H        0.926     0.051     2.303     2.373
    76   1 H        0.926     0.039     2.457     2.451
    77   1 H        0.926     0.038     2.481     2.463
    78   1 H        0.926     0.036     2.504     2.475
    79   1 H        0.926     0.049     2.328     2.386
    80   1 H        0.926     0.056     2.243     2.342
    81   1 H        0.926     0.079     1.994     2.208

molecular dipole:
                 x           y           z       tot (Debye)
 q only:        1.564       0.178       0.166
   full:        1.337       0.244       0.166       3.480

 projected vibrational frequencies (cm⁻¹)
eigval :       -0.00    -0.00    -0.00     0.00     0.00     0.00
eigval :        9.95    12.76    15.27    15.99    22.33    24.52
eigval :       29.99    37.74    42.08    49.04    53.40    60.45
eigval :       74.61    76.57    85.60    97.69   110.45   118.11
eigval :      124.17   128.11   138.20   154.39   164.23   194.87
eigval :      199.10   212.06   228.93   233.75   249.74   252.58
eigval :      257.56   264.29   272.43   285.00   291.96   300.41
eigval :      329.20   354.94   359.99   371.74   376.20   381.43
eigval :      386.15   388.72   391.96   402.61   404.78   415.80
eigval :      420.62   426.57   429.62   431.93   441.60   446.02
eigval :      452.30   455.91   478.20   497.67   505.30   510.48
eigval :      510.85   517.44   522.95   523.16   541.55   550.70
eigval :      553.72   566.92   574.57   586.20   590.86   595.46
eigval :      602.96   608.74   617.14   620.75   629.06   654.99
eigval :      659.65   660.77   661.23   662.31   671.58   678.22
eigval :      692.15   703.27   713.73   731.12   734.79   766.46
eigval :      777.84   778.28   779.39   779.46   801.48   802.94
eigval :      819.34   820.72   827.71   842.24   854.72   855.27
eigval :      861.43   864.45   865.27   867.00   874.58   874.70
eigval :      877.70   896.43   897.23   898.33   898.44   899.72
eigval :      913.94   914.06   914.57   914.68   914.93   915.02
eigval :      917.13   917.99   920.61   924.08   926.09   931.20
eigval :      932.52   974.57  1009.66  1031.46  1031.62  1061.27
eigval :     1070.93  1090.27  1090.29  1091.70  1091.98  1096.87
eigval :     1108.28  1108.50  1120.78  1121.64  1131.50  1132.24
eigval :     1149.23  1171.19  1171.97  1176.04  1176.12  1182.77
eigval :     1183.65  1189.73  1191.55  1197.75  1201.64  1201.73
eigval :     1220.38  1223.97  1227.90  1243.23  1243.59  1256.60
eigval :     1261.57  1262.70  1263.61  1263.89  1268.19  1290.83
eigval :     1309.35  1310.66  1311.47  1313.78  1315.19  1318.20
eigval :     1330.27  1339.23  1340.93  1355.29  1356.83  1380.30
eigval :     1399.08  1403.11  1406.71  1424.65  1424.82  1440.56
eigval :     1443.22  1444.44  1473.31  1483.94  1486.51  1487.91
eigval :     1489.88  1505.60  1505.93  1512.33  1537.29  1554.00
eigval :     1554.51  1567.96  1568.06  1580.90  1580.95  1585.34
eigval :     1587.68  1591.21  1592.27  1603.20  1603.33  1603.43
eigval :     3082.51  3083.55  3089.71  3089.98  3090.09  3090.35
eigval :     3090.66  3090.80  3094.56  3095.03  3097.46  3099.02
eigval :     3099.76  3099.82  3100.89  3103.81  3104.26  3105.49
eigval :     3106.36  3106.73  3106.88  3109.17  3111.72  3113.73
eigval :     3113.87  3114.46  3114.73

   temp. (K)  partition function   enthalpy   heat capacity  entropy
                                   cal/mol     cal/K/mol   cal/K/mol   J/K/mol
 298.15  VIB  0.806E+20            24844.577    155.451    154.564
         ROT  0.141E+09              888.752      2.981     40.265
         INT  0.113E+29            25733.329    158.432    194.829
         TR   0.184E+29             1481.254      4.968     45.551
         TOT                       27214.5834   163.4002   240.3804  1005.7516

       T/K    H(0)-H(T)+PV         H(T)/Eh          T*S/Eh         G(T)/Eh
   ------------------------------------------------------------------------
    298.15    0.433692E-01    0.632584E+00    0.114212E+00    0.518371E+00
   ------------------------------------------------------------------------

         :::::::::::::::::::::::::::::::::::::::::::::::::::::
         ::                  THERMODYNAMIC                  ::
         :::::::::::::::::::::::::::::::::::::::::::::::::::::
         :: total free energy        -143.713465509260 Eh   ::
         ::.................................................::
         :: total energy             -144.231836632906 Eh   ::
         :: zero point energy           0.589214407223 Eh   ::
         :: G(RRHO) w/o ZPVE           -0.070843283577 Eh   ::
         :: G(RRHO) contrib.            0.518371123646 Eh   ::
         :::::::::::::::::::::::::::::::::::::::::::::::::::::

           -------------------------------------------------
          | TOTAL ENERGY             -144.231836632906 Eh   |
          | TOTAL ENTHALPY           -143.599253026539 Eh   |
          | TOTAL FREE ENERGY        -143.713465509260 Eh   |
          | GRADIENT NORM               0.000028721407 Eh/α |
          | HOMO-LUMO GAP               0.835322324826 eV   |
           -------------------------------------------------

 * finished run on 2025/07/16 at 18:35:26.113
