   * xtb version 6.7.1 (edcfbbe) compiled by 'albert@albert-system' on 2024-07-22

   ID    Z sym.   atoms
    1    9 F      1, 3, 4
    2    6 C      2, 5-8, 10-14, 16-21, 23-35, 37-42, 44-51, 53, 54
    3    7 N      9, 15, 36, 52
    4    8 O      22, 43
    5    1 H      55-81

          program call               : xtb data2507/gas/TFM-QP/TFM-QP_gas_S0_finalOpt.xtbopt.xyz --gfn 2 --spinpol --tblite --uhf 2 --ohess vtight --parallel 40 --molden --ceasefiles --namespace data2507/gas/TFM-QP/TFM-QP_gas_T1_preOpt
 * total energy  :  -144.1805298 Eh     change        0.1985615E-07 Eh
 * total energy  :  -144.1840890 Eh     change       -0.3559201E-02 Eh
 * total energy  :  -144.1851148 Eh     change       -0.1025812E-02 Eh
 * total energy  :  -144.1852385 Eh     change       -0.1236709E-03 Eh
 * total energy  :  -144.1852860 Eh     change       -0.4753010E-04 Eh
 * total energy  :  -144.1852972 Eh     change       -0.1119819E-04 Eh
 * total energy  :  -144.1853082 Eh     change       -0.1098276E-04 Eh
 * total energy  :  -144.1853230 Eh     change       -0.1473502E-04 Eh
 * total energy  :  -144.1853375 Eh     change       -0.1449626E-04 Eh
 * total energy  :  -144.1853479 Eh     change       -0.1047681E-04 Eh
 * total energy  :  -144.1854759 Eh     change        0.1018841E-06 Eh
 * total energy  :  -144.1854763 Eh     change       -0.3902763E-06 Eh
 * total energy  :  -144.1854767 Eh     change       -0.4234276E-06 Eh
 * total energy  :  -144.1854772 Eh     change       -0.4180892E-06 Eh
 * total energy  :  -144.1854771 Eh     change        0.8393229E-07 Eh
 * total energy  :  -144.1854774 Eh     change       -0.3505388E-06 Eh
 * total energy  :  -144.1854777 Eh     change       -0.2712746E-06 Eh
 * total energy  :  -144.1854780 Eh     change       -0.3311055E-06 Eh
 * total energy  :  -144.1854781 Eh     change       -0.6236192E-07 Eh
   *** GEOMETRY OPTIMIZATION CONVERGED AFTER 122 ITERATIONS ***

 final structure:
================
81
 xtb: 6.7.1 (edcfbbe)
F           -9.41104955008423       -1.47612700925753        0.59214449292955
C           -9.09391391298514       -0.47858549340180       -0.26421819922403
F           -9.16990693179731       -1.02282927723485       -1.49355034340060
F          -10.10045026851203        0.40589187821343       -0.18361217186656
C           -7.75264578055085        0.11663122017984        0.02482581194294
C           -7.64319803491613        1.33877810633161        0.66922082172515
C           -6.39137590050768        1.86259792128719        0.94438744369445
C           -5.23054750628937        1.17728661621088        0.58801885859009
N           -4.01369018539573        1.67582755930049        0.81558593209166
C           -2.92343716580277        1.00039418260896        0.46770100058637
C           -1.56731233566200        1.55222246471640        0.61170267746502
C           -0.95411140714967        1.71573829588776        1.84913561571410
C            0.39685898272290        2.00131105959181        1.92443419807630
C            1.14985920507714        2.14421449816997        0.76270778874532
N            2.55671776897946        2.27732447550351        0.81886767245119
C            3.18567456952578        3.35774399083897        0.20160056785315
C            2.47757717020886        4.48237312657193       -0.20735194443099
C            3.12673487300738        5.54514755615715       -0.81389493146698
C            4.49364793935593        5.50669830158145       -1.01348851799363
C            5.21873971669470        4.40696779759465       -0.58177203334786
C            4.57682220716547        3.34469942715336        0.02922181475082
O            5.35923492450999        2.30744322813823        0.46312393763427
C            4.72941954056913        1.24184271512075        1.04694254835065
C            5.52903224537446        0.18559606213025        1.44610135947732
C            4.96558798389719       -0.94559508932580        2.01358345848442
C            3.59521003122929       -1.01405102198737        2.17114548114718
C            2.79045636575963        0.04471495951751        1.78223470714718
C            3.33937475626501        1.19345178173503        1.22524334327563
C            0.51137660958017        2.10566489818595       -0.47379727616254
C           -0.82920454730303        1.79854998408717       -0.54567095105998
C           -3.04013067199728       -0.27289840266271       -0.11490465492465
C           -1.79265288971100       -1.01922937263130       -0.34835981332467
C           -1.02801466124073       -1.38623983964874        0.75822144275253
C            0.24369869144746       -1.89063982912493        0.59881398672574
C            0.78826870957194       -2.01160720174575       -0.67668884175931
N            2.15191606038121       -2.35597355499965       -0.82414557789574
C            3.06265849968980       -1.40128927853086       -1.28405707225953
C            2.66048670102608       -0.17951828926779       -1.81004858521713
C            3.59029821612299        0.74711434922389       -2.25343822003692
C            4.94163039842067        0.47072576667296       -2.18264117094504
C            5.36155788556159       -0.73601361462116       -1.64742809415700
C            4.43777145769609       -1.66097548267092       -1.19405771995304
O            4.93437476135544       -2.81289040945764       -0.64706930572295
C            4.03262531027091       -3.72474409040261       -0.16570110943757
C            4.54337456759010       -4.87845783845650        0.40173652363177
C            3.68863004211903       -5.86059698786207        0.87737163070383
C            2.32181081929632       -5.68984464220009        0.76531817072538
C            1.80431965018711       -4.53466413906289        0.20276190716769
C            2.64753794491466       -3.52557901436207       -0.24913335065583
C           -0.00729248727192       -1.74362604449816       -1.78670154287989
C           -1.29190120977403       -1.25803396142793       -1.62319644961620
N           -4.23551011529314       -0.78079631430731       -0.37729990769715
C           -5.35101121750131       -0.10577585753023       -0.06857410578696
C           -6.61660533315193       -0.60788813950682       -0.33935197067818
H           -8.53048646992178        1.88407690626986        0.94959476934609
H           -6.28895645486808        2.81677241050634        1.43532005177848
H           -1.53085321163120        1.58194313025018        2.75184803834079
H            0.88101163355717        2.09231082799967        2.88553028720585
H            1.41233193384280        4.52582353064768       -0.04220546359617
H            2.55434664400840        6.40487046786844       -1.12570549875234
H            5.00150004474499        6.32957859216402       -1.49078840670061
H            6.28859663790218        4.35513560047952       -0.70471756672177
H            6.59287542157389        0.26701923076789        1.29329850345140
H            5.59491214306355       -1.76707762053354        2.31640500394061
H            3.14347004117987       -1.89619752700848        2.60052560285219
H            1.72151023502243       -0.02255384349221        1.90128679068245
H            1.08000785051450        2.28785450535943       -1.37275492119632
H           -1.31166697662174        1.72433380069155       -1.50879348063995
H           -1.43087919047562       -1.25051449083787        1.75078509218083
H            0.83499699420718       -2.16549103480873        1.45874921390999
H            1.60879722083684        0.04966601315136       -1.86157119966389
H            3.25138481684069        1.68999352416923       -2.65687810197348
H            5.66790050417062        1.18897001774147       -2.52794883791881
H            6.40821245253938       -0.97880856135490       -1.56195463464208
H            5.61433480852915       -4.99017074771875        0.45618271503266
H            4.09491595712629       -6.75602568583001        1.32007798712291
H            1.64653834182250       -6.45660575255860        1.11174105344934
H            0.73654414649061       -4.41498193523142        0.10578573533556
H            0.39418725123570       -1.89699130603508       -2.77747837812174
H           -1.89863836147507       -1.02930204396607       -2.48627652378676
H           -6.70561029055375       -1.56273667596521       -0.83187532372767

 projected vibrational frequencies (cm⁻¹)
eigval :       -0.00    -0.00     0.00     0.00     0.00     0.00
eigval :       13.24    15.77    17.73    21.03    24.37    30.66
eigval :       41.29    46.01    48.85    55.59    62.21    72.45
eigval :       74.40    88.02    90.03   101.04   111.99   119.83
eigval :      122.62   131.72   146.07   149.91   165.38   194.91
eigval :      204.35   207.57   219.78   235.38   243.60   255.31
eigval :      256.84   260.95   274.14   283.78   293.70   300.87
eigval :      312.88   349.39   364.55   372.15   379.81   381.73
eigval :      385.30   388.43   394.05   395.62   404.98   416.87
eigval :      422.21   430.19   431.40   434.68   441.15   451.33
eigval :      457.26   461.61   476.83   496.98   503.25   507.71
eigval :      508.51   514.71   526.04   526.81   532.34   548.24
eigval :      554.41   564.30   575.55   580.81   586.64   594.83
eigval :      595.90   604.71   613.33   615.01   621.84   641.58
eigval :      651.96   662.17   662.56   665.37   665.67   671.15
eigval :      685.30   689.68   693.56   699.98   717.90   733.23
eigval :      776.86   779.70   780.81   780.91   799.19   801.26
eigval :      802.59   808.23   818.05   819.93   831.51   856.88
eigval :      857.01   859.26   862.89   868.58   869.70   873.78
eigval :      876.23   879.71   894.10   897.28   899.88   900.70
eigval :      900.95   903.98   913.87   915.05   915.94   916.78
eigval :      917.23   917.62   918.47   925.68   927.08   934.66
eigval :      936.72   955.22  1010.40  1012.17  1026.27  1051.66
eigval :     1076.84  1087.76  1087.82  1093.34  1093.79  1106.99
eigval :     1110.89  1111.04  1121.33  1124.10  1127.60  1129.54
eigval :     1141.02  1169.61  1170.09  1174.74  1175.02  1180.65
eigval :     1182.15  1187.83  1192.08  1195.06  1207.48  1207.59
eigval :     1215.48  1223.65  1228.43  1235.96  1242.14  1242.31
eigval :     1259.64  1260.50  1261.67  1263.94  1264.81  1286.01
eigval :     1299.64  1303.64  1305.51  1311.18  1312.83  1313.59
eigval :     1313.90  1320.65  1332.17  1333.05  1344.92  1348.75
eigval :     1351.39  1398.81  1399.74  1402.46  1412.55  1422.84
eigval :     1423.10  1443.02  1443.40  1470.77  1472.51  1473.34
eigval :     1478.74  1486.65  1493.36  1494.85  1523.16  1545.71
eigval :     1552.88  1554.13  1566.40  1566.48  1574.90  1575.02
eigval :     1581.63  1583.90  1584.95  1587.86  1595.59  1597.99
eigval :     3080.52  3080.61  3084.26  3084.93  3086.09  3086.34
eigval :     3092.50  3092.84  3095.92  3096.58  3099.31  3099.92
eigval :     3100.74  3101.00  3101.37  3104.12  3104.19  3106.87
eigval :     3107.12  3108.74  3110.84  3114.16  3114.46  3115.69
eigval :     3117.38  3117.87  3118.30

   temp. (K)  partition function   enthalpy   heat capacity  entropy
                                   cal/mol     cal/K/mol   cal/K/mol   J/K/mol
 298.15  VIB  0.790E+19            24811.602    157.373    153.203
         ROT  0.106E+09              888.752      2.981     39.698
         INT  0.835E+27            25700.354    160.354    192.901
         TR   0.184E+29             1481.254      4.968     45.551
         TOT                       27181.6080   165.3222   238.4525   997.6853

       T/K    H(0)-H(T)+PV         H(T)/Eh          T*S/Eh         G(T)/Eh
   ------------------------------------------------------------------------
    298.15    0.433166E-01    0.630629E+00    0.113296E+00    0.517332E+00
   ------------------------------------------------------------------------

         :::::::::::::::::::::::::::::::::::::::::::::::::::::
         ::                  THERMODYNAMIC                  ::
         :::::::::::::::::::::::::::::::::::::::::::::::::::::
         :: total free energy        -143.668145835592 Eh   ::
         ::.................................................::
         :: total energy             -144.185478152701 Eh   ::
         :: zero point energy           0.587312147925 Eh   ::
         :: G(RRHO) w/o ZPVE           -0.069979830817 Eh   ::
         :: G(RRHO) contrib.            0.517332317109 Eh   ::
         :::::::::::::::::::::::::::::::::::::::::::::::::::::

           -------------------------------------------------
          | TOTAL ENERGY             -144.185478152701 Eh   |
          | TOTAL ENTHALPY           -143.554849355282 Eh   |
          | TOTAL FREE ENERGY        -143.668145835592 Eh   |
          | GRADIENT NORM               0.000105385879 Eh/α |
           -------------------------------------------------

 * finished run on 2025/07/16 at 18:40:05.277
