   * xtb version 6.7.1 (edcfbbe) compiled by 'albert@albert-system' on 2024-07-22

   ID    Z sym.   atoms
    1    6 C      1-5, 7-10, 12-17, 19-26, 28-33, 36
    2    7 N      6, 11, 27, 34, 35
    3    8 O      18
    4    1 H      37-55

          program call               : xtb data2507/toluene/DPQ-PXZ/DPQ-PXZ_toluene_T1_crest.xyz --gfn 2 --uhf 2 --gbsa toluene --ohess vtight --parallel 40 --molden --ceasefiles --namespace data2507/toluene/DPQ-PXZ/DPQ-PXZ_toluene_T1_finalOpt
      * Solvation model:               GBSA
        Solvent                        toluene
        Solvent mass                       9.2140E+01 g/mol
          :  Hamiltonian                  GFN2-xTB          :
 * total energy  :   -92.6149060 Eh     change       -0.8345182E-09 Eh
 * total energy  :   -92.6150641 Eh     change       -0.1581122E-03 Eh
 * total energy  :   -92.6151435 Eh     change       -0.7947692E-04 Eh
 * total energy  :   -92.6151574 Eh     change       -0.1388710E-04 Eh
 * total energy  :   -92.6151754 Eh     change       -0.1797249E-04 Eh
 * total energy  :   -92.6151819 Eh     change       -0.6486458E-05 Eh
 * total energy  :   -92.6151959 Eh     change       -0.1402621E-04 Eh
 * total energy  :   -92.6151988 Eh     change       -0.2871699E-05 Eh
 * total energy  :   -92.6152012 Eh     change       -0.2403854E-05 Eh
 * total energy  :   -92.6152034 Eh     change       -0.2215563E-05 Eh
 * total energy  :   -92.6152489 Eh     change       -0.1396757E-05 Eh
 * total energy  :   -92.6152506 Eh     change       -0.1745991E-05 Eh
 * total energy  :   -92.6152520 Eh     change       -0.1378458E-05 Eh
 * total energy  :   -92.6152526 Eh     change       -0.6189112E-06 Eh
 * total energy  :   -92.6152530 Eh     change       -0.3575227E-06 Eh
 * total energy  :   -92.6152531 Eh     change       -0.1909384E-06 Eh
 * total energy  :   -92.6152531 Eh     change       -0.7488964E-08 Eh
 * total energy  :   -92.6152533 Eh     change       -0.1216502E-06 Eh
 * total energy  :   -92.6152533 Eh     change       -0.1048043E-07 Eh
   *** GEOMETRY OPTIMIZATION CONVERGED AFTER 42 ITERATIONS ***

 final structure:
================
55
 xtb: 6.7.1 (edcfbbe)
C            6.92806162981740       -1.41115156579446        1.60137640032819
C            6.02171225074564       -2.46266076670507        1.70676624677407
C            4.70833957949904       -2.25446521299396        1.34774725418457
C            4.32761883518850       -0.98756013821954        0.87696194029063
C            2.95786392786341       -0.73252920048459        0.49506751495788
N            1.98356729065429       -1.50485299121339        0.99389062874450
C            0.70324917385289       -1.21495118791417        0.76833754232937
C           -0.33716111588381       -2.00761328067139        1.26929322419180
C           -1.65882592923102       -1.65421768340792        1.07081633270273
C           -1.97852163580761       -0.50483401084135        0.35825757117337
N           -3.33722114819797       -0.14627937212432        0.16463805822697
C           -4.16323193007022       -0.92472866688437       -0.63424934818709
C           -3.69533814019533       -2.04475613567232       -1.31878973194782
C           -4.54994077775134       -2.79892441794424       -2.10258723522845
C           -5.88483262047511       -2.44901941430539       -2.22501218833614
C           -6.36355734838516       -1.32568731083523       -1.57149408963452
C           -5.51373950614582       -0.56388048613567       -0.78641324194769
O           -6.04181188871109        0.54639442977650       -0.18684463267529
C           -5.21094303010239        1.31341847634487        0.58252871627088
C           -5.75760580532983        2.43733640961862        1.17974824467887
C           -4.97485458240277        3.24415109079471        1.98890206546417
C           -3.64725277351923        2.91549390873650        2.20855038817121
C           -3.09326729166606        1.79538066094945        1.61501751594583
C           -3.85815514721360        0.98356591112340        0.77957881779911
C           -0.96723257851970        0.29838497984331       -0.17531235306663
C            0.36504582349496       -0.03651818621743        0.01242887157695
N            1.36277185055930        0.69136190982511       -0.53669144326841
C            2.61900518379802        0.34640541149171       -0.34529667928048
C            3.66279364397522        1.08874595471720       -1.07092421120496
C            3.76543326508645        2.47408595415964       -0.94910837727247
C            4.73820009364780        3.12815186869910       -1.68230292075983
C            5.56001125064971        2.38766549272123       -2.52018606660759
C            5.35504501313257        1.01840033195183       -2.59148115980578
N            4.43348656239194        0.38306465974765       -1.89110659081077
N            5.19848135063243        0.02299452981987        0.80610513267941
C            6.45269101784534       -0.18928896315253        1.15083121747403
H            7.96508513242485       -1.53430567240595        1.86935794912547
H            6.34485027598928       -3.42980607422517        2.06450657342946
H            3.96268595616072       -3.03136782972433        1.41053102333695
H           -0.08015914107251       -2.88854660526132        1.83536494058342
H           -2.44878607987909       -2.26786887348558        1.47704254270174
H           -2.65502861024407       -2.31604029117573       -1.23521508166769
H           -4.16526656053241       -3.66359388111120       -2.62040098975258
H           -6.55144486965489       -3.03947726615960       -2.83301223314608
H           -7.39320688894010       -1.01744745270949       -1.65847495425793
H           -6.79777319175682        2.65729992461344        0.99993281722827
H           -5.40514226082819        4.11880099212024        2.44984866486172
H           -3.03407137935588        3.53029190478581        2.84876804583279
H           -2.06166868530326        1.54001898354049        1.79717597970932
H           -1.21020865085205        1.17288563999150       -0.75834805575982
H            3.09815497813657        3.00614298371940       -0.28926129558870
H            4.85370301298993        4.19954768771044       -1.60397194932397
H            6.33426732577557        2.85828447707195       -3.10528486544184
H            5.95304375628279        0.39148293084143       -3.24107434476226
H            7.10419861123226        0.67203635496066        1.06615735886042

          :  Hamiltonian                  GFN2-xTB          :
         :: gradient norm              0.000155453370 Eh/a0 ::
         :: HOMO-LUMO gap              0.789018319378 eV    ::
         :: SCC energy               -94.191440428371 Eh    ::
         :: -> dispersion             -0.074909801841 Eh    ::
         :: -> Gsolv                  -0.046477958497 Eh    ::
         :: repulsion energy           1.576187143505 Eh    ::

    * Orbital Energies and Occupations

         #    Occupation            Energy/Eh            Energy/eV
      -------------------------------------------------------------
         1        2.0000           -0.7493154             -20.3899
       ...           ...                  ...                  ...
        74        2.0000           -0.4298775             -11.6976
        75        2.0000           -0.4294696             -11.6865
        76        2.0000           -0.4271573             -11.6235
        77        2.0000           -0.4245050             -11.5514
        78        2.0000           -0.4218582             -11.4793
        79        2.0000           -0.4056667             -11.0388
        80        2.0000           -0.4049267             -11.0186
        81        2.0000           -0.3966650             -10.7938
        82        2.0000           -0.3791904             -10.3183
        83        2.0000           -0.3754454             -10.2164
        84        1.7977           -0.3582255              -9.7478
        85        1.2023           -0.3556188              -9.6769
        86        1.0000           -0.3003582              -8.1732 (HOMO)
        87        0.0000           -0.2713623              -7.3841 (LUMO)
        88                         -0.2545673              -6.9271
        89                         -0.2523064              -6.8656
        90                         -0.2481600              -6.7528
        91                         -0.2431047              -6.6152
        92                         -0.2356636              -6.4127
        93                         -0.2318911              -6.3101
        94                         -0.2239173              -6.0931
        95                         -0.2103063              -5.7227
        96                         -0.2087876              -5.6814
        97                         -0.1639952              -4.4625
       ...                                ...                  ...
       163                          0.6808694              18.5274
      -------------------------------------------------------------
                  HL-Gap            0.0289959 Eh            0.7890 eV

     #   Z          covCN         q      C6AA      α(0)
     1   6 C        2.914    -0.049    29.211     8.863
     2   6 C        2.926    -0.014    28.369     8.735
     3   6 C        2.919    -0.044    29.100     8.846
     4   6 C        2.961     0.096    25.871     8.343
     5   6 C        2.939     0.080    26.223     8.399
     6   7 N        1.849    -0.272    27.903     7.829
     7   6 C        2.940     0.088    26.049     8.371
     8   6 C        2.919    -0.067    29.659     8.931
     9   6 C        2.916    -0.047    29.167     8.856
    10   6 C        2.919     0.043    27.030     8.526
    11   7 N        2.752    -0.034    21.895     6.950
    12   6 C        2.924     0.045    26.989     8.519
    13   6 C        2.921    -0.052    29.297     8.876
    14   6 C        2.918    -0.031    28.782     8.798
    15   6 C        2.919    -0.032    28.790     8.799
    16   6 C        2.917    -0.053    29.307     8.877
    17   6 C        2.884     0.129    25.182     8.227
    18   8 O        1.709    -0.235    17.899     5.712
    19   6 C        2.884     0.129    25.179     8.227
    20   6 C        2.917    -0.053    29.312     8.878
    21   6 C        2.919    -0.032    28.790     8.799
    22   6 C        2.918    -0.032    28.788     8.798
    23   6 C        2.921    -0.052    29.294     8.876
    24   6 C        2.924     0.045    26.983     8.519
    25   6 C        2.919    -0.072    29.785     8.950
    26   6 C        2.946     0.083    26.146     8.386
    27   7 N        1.849    -0.268    27.803     7.815
    28   6 C        2.942     0.106    25.651     8.306
    29   6 C        2.970     0.117    25.428     8.271
    30   6 C        2.918    -0.040    29.002     8.831
    31   6 C        2.928    -0.010    28.276     8.720
    32   6 C        2.914    -0.042    29.053     8.839
    33   6 C        2.908     0.064    26.574     8.453
    34   7 N        1.843    -0.250    27.356     7.751
    35   7 N        1.843    -0.264    27.718     7.802
    36   6 C        2.901     0.063    26.578     8.453
    37   1 H        0.926     0.045     2.382     2.413
    38   1 H        0.926     0.048     2.346     2.395
    39   1 H        0.926     0.047     2.354     2.399
    40   1 H        0.926     0.049     2.328     2.386
    41   1 H        0.926     0.048     2.347     2.396
    42   1 H        0.926     0.049     2.332     2.388
    43   1 H        0.926     0.054     2.266     2.354
    44   1 H        0.926     0.057     2.232     2.336
    45   1 H        0.926     0.063     2.163     2.300
    46   1 H        0.926     0.063     2.160     2.298
    47   1 H        0.926     0.057     2.231     2.336
    48   1 H        0.926     0.053     2.278     2.360
    49   1 H        0.926     0.048     2.350     2.397
    50   1 H        0.926     0.049     2.328     2.386
    51   1 H        0.926     0.043     2.414     2.430
    52   1 H        0.926     0.054     2.270     2.356
    53   1 H        0.926     0.052     2.290     2.367
    54   1 H        0.925     0.042     2.424     2.435
    55   1 H        0.925     0.034     2.537     2.491

molecular dipole:
                 x           y           z       tot (Debye)
 q only:       -2.076       0.386      -0.046
   full:       -1.738       0.407       0.094       4.544

 projected vibrational frequencies (cm⁻¹)
eigval :       -0.00    -0.00     0.00     0.00     0.00     0.00
eigval :       16.30    18.80    24.49    26.46    45.20    51.66
eigval :       57.43    60.01    77.38    86.28   111.50   135.24
eigval :      139.36   161.39   177.79   206.27   217.57   246.56
eigval :      251.22   255.47   269.35   297.31   302.78   336.84
eigval :      350.82   369.06   377.88   385.22   395.51   403.92
eigval :      427.57   432.34   445.48   448.81   459.80   500.67
eigval :      506.45   510.55   525.47   543.55   551.87   556.50
eigval :      573.67   581.84   587.89   595.56   614.60   619.54
eigval :      641.83   665.54   668.95   670.71   688.53   694.85
eigval :      696.42   707.77   726.84   754.23   762.94   776.34
eigval :      777.93   787.34   795.37   811.54   835.39   849.54
eigval :      855.18   866.74   867.06   867.59   880.47   882.02
eigval :      900.97   902.83   904.94   912.76   913.95   915.72
eigval :      917.75   918.28   928.07   937.38   979.73   989.99
eigval :     1010.99  1082.23  1082.70  1085.61  1088.26  1103.74
eigval :     1111.39  1111.58  1116.29  1127.02  1132.49  1151.62
eigval :     1158.09  1161.16  1170.83  1177.76  1193.81  1205.21
eigval :     1217.28  1229.73  1234.69  1237.04  1239.28  1252.72
eigval :     1263.78  1271.80  1282.06  1288.30  1297.12  1306.00
eigval :     1308.88  1317.46  1326.63  1339.86  1352.78  1381.20
eigval :     1398.62  1407.21  1415.60  1417.08  1433.91  1438.05
eigval :     1439.56  1443.67  1462.24  1479.42  1510.75  1519.81
eigval :     1525.67  1548.00  1556.14  1562.88  1563.47  1568.17
eigval :     1572.96  1585.23  3041.51  3047.59  3070.59  3073.35
eigval :     3088.20  3094.56  3095.15  3095.37  3096.49  3098.32
eigval :     3099.24  3099.69  3102.55  3102.87  3103.68  3109.11
eigval :     3111.10  3114.23  3114.70

   temp. (K)  partition function   enthalpy   heat capacity  entropy
                                   cal/mol     cal/K/mol   cal/K/mol   J/K/mol
 298.15  VIB  0.918E+12            15771.858    101.173     97.048
         ROT  0.365E+08              888.752      2.981     37.584
         INT  0.335E+20            16660.610    104.154    134.631
         TR   0.972E+28             1481.254      4.968     44.282
         TOT                       18141.8638   109.1224   178.9133   748.5731

       T/K    H(0)-H(T)+PV         H(T)/Eh          T*S/Eh         G(T)/Eh
   ------------------------------------------------------------------------
    298.15    0.289109E-01    0.432180E+00    0.850075E-01    0.347173E+00
   ------------------------------------------------------------------------

         :::::::::::::::::::::::::::::::::::::::::::::::::::::
         ::                  THERMODYNAMIC                  ::
         :::::::::::::::::::::::::::::::::::::::::::::::::::::
         :: total free energy         -92.268080322871 Eh   ::
         ::.................................................::
         :: total energy              -92.615253284379 Eh   ::
         :: zero point energy           0.403269521237 Eh   ::
         :: G(RRHO) w/o ZPVE           -0.056096559730 Eh   ::
         :: G(RRHO) contrib.            0.347172961507 Eh   ::
         :::::::::::::::::::::::::::::::::::::::::::::::::::::

           -------------------------------------------------
          | TOTAL ENERGY              -92.615253284379 Eh   |
          | TOTAL ENTHALPY            -92.183072862857 Eh   |
          | TOTAL FREE ENERGY         -92.268080322871 Eh   |
          | GRADIENT NORM               0.000156560551 Eh/α |
          | HOMO-LUMO GAP               0.789017817465 eV   |
           -------------------------------------------------

 * finished run on 2025/07/20 at 18:30:50.941
