   * xtb version 6.7.1 (edcfbbe) compiled by 'albert@albert-system' on 2024-07-22

   ID    Z sym.   atoms
    1    6 C      1-5, 7-10, 12-17, 19-26, 28-33, 36
    2    7 N      6, 11, 27, 34, 35
    3    8 O      18
    4    1 H      37-55

          program call               : xtb data2507/toluene/DPQ-PXZ/DPQ-PXZ_toluene_S0_finalOpt.xtbopt.xyz --gfn 2 --uhf 2 --gbsa toluene --ohess vtight --parallel 40 --molden --ceasefiles --namespace data2507/toluene/DPQ-PXZ/DPQ-PXZ_toluene_T1_preOpt
      * Solvation model:               GBSA
        Solvent                        toluene
        Solvent mass                       9.2140E+01 g/mol
          :  Hamiltonian                  GFN2-xTB          :
 * total energy  :   -92.6110098 Eh     change       -0.9961141E-08 Eh
 * total energy  :   -92.6138770 Eh     change       -0.2867168E-02 Eh
 * total energy  :   -92.6146445 Eh     change       -0.7675518E-03 Eh
 * total energy  :   -92.6147524 Eh     change       -0.1079115E-03 Eh
 * total energy  :   -92.6148273 Eh     change       -0.7485217E-04 Eh
 * total energy  :   -92.6148541 Eh     change       -0.2679223E-04 Eh
 * total energy  :   -92.6148857 Eh     change       -0.3160036E-04 Eh
 * total energy  :   -92.6149248 Eh     change       -0.3912470E-04 Eh
 * total energy  :   -92.6149628 Eh     change       -0.3801387E-04 Eh
 * total energy  :   -92.6149955 Eh     change       -0.3268981E-04 Eh
 * total energy  :   -92.6151387 Eh     change       -0.7598546E-06 Eh
 * total energy  :   -92.6151393 Eh     change       -0.6318780E-06 Eh
 * total energy  :   -92.6151399 Eh     change       -0.5580445E-06 Eh
 * total energy  :   -92.6151404 Eh     change       -0.4960903E-06 Eh
 * total energy  :   -92.6151407 Eh     change       -0.3621634E-06 Eh
 * total energy  :   -92.6151410 Eh     change       -0.2485268E-06 Eh
 * total energy  :   -92.6151411 Eh     change       -0.1674519E-06 Eh
 * total energy  :   -92.6151413 Eh     change       -0.1315253E-06 Eh
 * total energy  :   -92.6151413 Eh     change       -0.2137688E-07 Eh
   *** GEOMETRY OPTIMIZATION CONVERGED AFTER 54 ITERATIONS ***

 final structure:
================
55
 xtb: 6.7.1 (edcfbbe)
C            6.89869697812580       -1.33677442796296        1.74448832451185
C            6.12543315836144       -2.44416122524488        1.42263868139512
C            4.82139077709416       -2.25246071987446        1.00843508458894
C            4.33596217941156       -0.94621501076984        0.91508273581991
C            2.95277144129766       -0.70027374222516        0.50425705654637
N            1.99464156657799       -1.43565548062989        1.04797459486959
C            0.70231023269224       -1.15885538686214        0.80795334228373
C           -0.32769094590982       -1.92383182091416        1.35115766142295
C           -1.65532844684954       -1.58259128849828        1.14086489207730
C           -1.97227939043378       -0.46809710107313        0.37653153736109
N           -3.33266106336125       -0.11744853896448        0.17150311882103
C           -4.15609796352274       -0.92072485420432       -0.60425916526267
C           -3.68561998600285       -2.06060348452025       -1.25319007904114
C           -4.53732474646134       -2.83758541547108       -2.01764225678431
C           -5.87162405986017       -2.49125842378480       -2.15571356740562
C           -6.35342843301663       -1.35045980174139       -1.53549211732275
C           -5.50665943260131       -0.56590112706669       -0.76975696091628
O           -6.03762208450057        0.55940788355044       -0.20155956125374
C           -5.21051253906436        1.34638702247752        0.55167898730681
C           -5.76163453951129        2.48135221993253        1.12337950341673
C           -4.98188179553781        3.30940749149817        1.91375881331238
C           -3.65231307399781        2.99235754010498        2.13895891956058
C           -3.09383051282451        1.86126679821281        1.57101807937289
C           -3.85663608468892        1.02617144180344        0.75702713096700
C           -0.96738039633147        0.30999308631473       -0.19787326755525
C            0.37275670478703       -0.01631727551170       -0.00505260596975
N            1.35966993162553        0.67679618627617       -0.58901295373228
C            2.63369667157135        0.33481798325016       -0.39473487036024
C            3.66544731715160        1.01289412947927       -1.16072775073163
C            3.48916553950682        2.34352278410830       -1.56124038230131
C            4.48114244467802        2.94903821575510       -2.30413520071611
C            5.61486847171524        2.21743379619829       -2.63972862238465
C            5.68465450716690        0.89796731907117       -2.21872079386404
N            4.74322526978118        0.30859936514364       -1.50830733719798
N            5.07068005417404        0.11142208285787        1.24929730320108
C            6.31324236958272       -0.08345230933513        1.64802931990696
H            7.92219487069342       -1.44189752930012        2.06758863021764
H            6.53539120020009       -3.44129676172183        1.49509130963968
H            4.17628809478448       -3.07847727884570        0.75294270663731
H           -0.06756577826068       -2.77604560367131        1.95847158273314
H           -2.44330325594214       -2.17680601564506        1.57754925899193
H           -2.64580214233653       -2.32940237637975       -1.15656219905021
H           -4.15074359467131       -3.71711311399044       -2.50832412724293
H           -6.53577168477370       -3.09892885293717       -2.74927973897235
H           -7.38317321119945       -1.04603823848700       -1.63386396333555
H           -6.80266896995160        2.69306278515544        0.93873000055281
H           -5.41570041379318        4.19226258736177        2.35533338775199
H           -3.04108287016126        3.62490537884625        2.76352096542203
H           -2.06058577291913        1.61523810288880        1.75684993592258
H           -1.21465651381839        1.15603750560385       -0.81951921705563
H            2.58694624437845        2.86181866625355       -1.27690564515872
H            4.37767067273465        3.97707231513522       -2.62065523383573
H            6.41472086799887        2.65398341041071       -3.21628256925658
H            6.53354057321940        0.27233594967313       -2.46615736945979
H            6.85990021154445        0.81515954463298        1.90598160215960

          :  Hamiltonian                  GFN2-xTB          :
         :: gradient norm              0.000110176918 Eh/a0 ::
         :: HOMO-LUMO gap              0.706769529695 eV    ::
         :: SCC energy               -94.191189247804 Eh    ::
         :: -> dispersion             -0.074878014269 Eh    ::
         :: -> Gsolv                  -0.046504325331 Eh    ::
         :: repulsion energy           1.576047960368 Eh    ::

    * Orbital Energies and Occupations

         #    Occupation            Energy/Eh            Energy/eV
      -------------------------------------------------------------
         1        2.0000           -0.7494815             -20.3944
       ...           ...                  ...                  ...
        74        2.0000           -0.4300292             -11.7017
        75        2.0000           -0.4295595             -11.6889
        76        2.0000           -0.4271802             -11.6242
        77        2.0000           -0.4239118             -11.5352
        78        2.0000           -0.4225128             -11.4972
        79        2.0000           -0.4061855             -11.0529
        80        2.0000           -0.4013688             -10.9218
        81        2.0000           -0.3984284             -10.8418
        82        2.0000           -0.3787336             -10.3059
        83        2.0000           -0.3759532             -10.2302
        84        1.7778           -0.3582368              -9.7481
        85        1.2222           -0.3558561              -9.6833
        86        1.0000           -0.2997310              -8.1561 (HOMO)
        87        0.0000           -0.2737577              -7.4493 (LUMO)
        88                         -0.2547182              -6.9312
        89                         -0.2511335              -6.8337
        90                         -0.2488136              -6.7706
        91                         -0.2432442              -6.6190
        92                         -0.2347199              -6.3871
        93                         -0.2302776              -6.2662
        94                         -0.2240926              -6.0979
        95                         -0.2115018              -5.7553
        96                         -0.2079737              -5.6593
        97                         -0.1640230              -4.4633
       ...                                ...                  ...
       163                          0.6806304              18.5209
      -------------------------------------------------------------
                  HL-Gap            0.0259733 Eh            0.7068 eV

     #   Z          covCN         q      C6AA      α(0)
     1   6 C        2.914    -0.044    29.086     8.844
     2   6 C        2.927    -0.011    28.302     8.725
     3   6 C        2.919    -0.041    29.030     8.836
     4   6 C        2.967     0.111    25.551     8.291
     5   6 C        2.941     0.098    25.824     8.334
     6   7 N        1.849    -0.269    27.825     7.818
     7   6 C        2.944     0.084    26.138     8.385
     8   6 C        2.918    -0.064    29.599     8.922
     9   6 C        2.916    -0.051    29.276     8.873
    10   6 C        2.919     0.048    26.930     8.510
    11   7 N        2.753    -0.034    21.908     6.952
    12   6 C        2.924     0.045    26.981     8.518
    13   6 C        2.921    -0.052    29.297     8.876
    14   6 C        2.918    -0.031    28.781     8.797
    15   6 C        2.919    -0.032    28.790     8.799
    16   6 C        2.917    -0.053    29.306     8.877
    17   6 C        2.884     0.129    25.182     8.227
    18   8 O        1.709    -0.235    17.896     5.712
    19   6 C        2.884     0.129    25.180     8.227
    20   6 C        2.917    -0.053    29.310     8.878
    21   6 C        2.919    -0.032    28.787     8.798
    22   6 C        2.918    -0.031    28.783     8.798
    23   6 C        2.921    -0.052    29.290     8.875
    24   6 C        2.924     0.046    26.975     8.517
    25   6 C        2.920    -0.076    29.899     8.967
    26   6 C        2.942     0.088    26.038     8.369
    27   7 N        1.849    -0.274    27.965     7.838
    28   6 C        2.939     0.088    26.034     8.368
    29   6 C        2.964     0.102    25.735     8.321
    30   6 C        2.919    -0.043    29.071     8.842
    31   6 C        2.926    -0.013    28.343     8.731
    32   6 C        2.914    -0.046    29.152     8.854
    33   6 C        2.903     0.063    26.577     8.453
    34   7 N        1.843    -0.260    27.606     7.787
    35   7 N        1.843    -0.253    27.448     7.764
    36   6 C        2.906     0.064    26.577     8.453
    37   1 H        0.926     0.051     2.313     2.378
    38   1 H        0.926     0.052     2.289     2.366
    39   1 H        0.926     0.044     2.391     2.418
    40   1 H        0.926     0.050     2.323     2.383
    41   1 H        0.926     0.047     2.362     2.403
    42   1 H        0.926     0.049     2.335     2.390
    43   1 H        0.926     0.054     2.267     2.354
    44   1 H        0.926     0.057     2.231     2.336
    45   1 H        0.926     0.063     2.161     2.299
    46   1 H        0.926     0.064     2.158     2.297
    47   1 H        0.926     0.057     2.229     2.335
    48   1 H        0.926     0.054     2.274     2.358
    49   1 H        0.926     0.048     2.348     2.396
    50   1 H        0.926     0.048     2.349     2.397
    51   1 H        0.926     0.047     2.358     2.401
    52   1 H        0.926     0.050     2.319     2.381
    53   1 H        0.926     0.047     2.351     2.398
    54   1 H        0.925     0.036     2.506     2.475
    55   1 H        0.925     0.039     2.455     2.450

molecular dipole:
                 x           y           z       tot (Debye)
 q only:       -2.016       0.095      -0.091
   full:       -1.718       0.084      -0.166       4.392

 projected vibrational frequencies (cm⁻¹)
eigval :       -0.00    -0.00    -0.00     0.00     0.00     0.00
eigval :       14.41    18.29    24.98    33.20    43.10    51.80
eigval :       54.78    59.64    79.62    82.88   109.17   138.80
eigval :      139.25   155.70   177.75   210.57   222.72   246.67
eigval :      254.05   257.51   266.45   283.49   301.17   334.55
eigval :      358.34   370.87   376.92   380.51   394.98   402.68
eigval :      426.90   431.23   442.79   456.21   459.24   500.44
eigval :      507.67   510.72   525.05   544.14   551.89   553.43
eigval :      574.24   581.62   588.92   597.33   617.69   619.76
eigval :      637.81   665.10   668.90   670.17   689.77   695.58
eigval :      701.45   707.27   727.49   762.94   767.11   777.04
eigval :      778.69   787.37   790.72   795.70   833.87   849.70
eigval :      855.12   864.71   867.25   871.05   875.72   879.13
eigval :      901.67   902.61   906.13   913.36   914.07   917.92
eigval :      918.18   925.16   930.43   936.71   981.21   992.07
eigval :     1010.72  1082.81  1085.01  1086.04  1088.81  1104.48
eigval :     1111.43  1114.17  1115.73  1123.33  1131.74  1155.33
eigval :     1158.35  1161.49  1170.88  1177.97  1194.68  1204.86
eigval :     1214.29  1232.55  1236.48  1237.22  1241.44  1252.47
eigval :     1265.53  1275.30  1281.51  1287.09  1293.42  1295.32
eigval :     1309.51  1314.92  1318.62  1338.99  1351.28  1379.03
eigval :     1398.90  1407.32  1415.51  1416.94  1433.07  1436.71
eigval :     1439.21  1443.50  1460.56  1481.52  1513.27  1519.71
eigval :     1528.55  1542.32  1556.16  1562.61  1563.48  1566.18
eigval :     1572.99  1585.51  3042.64  3045.76  3070.95  3071.13
eigval :     3091.00  3094.81  3094.87  3096.24  3098.75  3099.09
eigval :     3099.26  3100.90  3102.74  3103.13  3103.38  3109.39
eigval :     3111.41  3114.19  3115.19

   temp. (K)  partition function   enthalpy   heat capacity  entropy
                                   cal/mol     cal/K/mol   cal/K/mol   J/K/mol
 298.15  VIB  0.942E+12            15776.756    101.168     97.169
         ROT  0.364E+08              888.752      2.981     37.581
         INT  0.343E+20            16665.508    104.149    134.750
         TR   0.972E+28             1481.254      4.968     44.282
         TOT                       18146.7619   109.1172   179.0326   749.0723

       T/K    H(0)-H(T)+PV         H(T)/Eh          T*S/Eh         G(T)/Eh
   ------------------------------------------------------------------------
    298.15    0.289187E-01    0.432166E+00    0.850642E-01    0.347102E+00
   ------------------------------------------------------------------------

         :::::::::::::::::::::::::::::::::::::::::::::::::::::
         ::                  THERMODYNAMIC                  ::
         :::::::::::::::::::::::::::::::::::::::::::::::::::::
         :: total free energy         -92.268039733671 Eh   ::
         ::.................................................::
         :: total energy              -92.615141285748 Eh   ::
         :: zero point energy           0.403247000143 Eh   ::
         :: G(RRHO) w/o ZPVE           -0.056145448066 Eh   ::
         :: G(RRHO) contrib.            0.347101552077 Eh   ::
         :::::::::::::::::::::::::::::::::::::::::::::::::::::

           -------------------------------------------------
          | TOTAL ENERGY              -92.615141285748 Eh   |
          | TOTAL ENTHALPY            -92.182975579790 Eh   |
          | TOTAL FREE ENERGY         -92.268039733671 Eh   |
          | GRADIENT NORM               0.000109770648 Eh/α |
          | HOMO-LUMO GAP               0.706769545145 eV   |
           -------------------------------------------------

 * finished run on 2025/07/20 at 18:27:46.656
