   * xtb version 6.7.1 (edcfbbe) compiled by 'albert@albert-system' on 2024-07-22

   ID    Z sym.   atoms
    1    6 C      1-5, 7-10, 12-17, 19-26, 28-33, 36
    2    7 N      6, 11, 27, 34, 35
    3    8 O      18
    4    1 H      37-55

          program call               : xtb data2507/toluene/DPQ-PXZ/DPQ-PXZ.xyz --gfn 2 --gbsa toluene --ohess vtight --parallel 40 --molden --ceasefiles --namespace data2507/toluene/DPQ-PXZ/DPQ-PXZ_toluene_S0_preOpt
      * Solvation model:               GBSA
        Solvent                        toluene
        Solvent mass                       9.2140E+01 g/mol
          :  Hamiltonian                  GFN2-xTB          :
 * total energy  :   -92.6457154 Eh     change       -0.1278011E-08 Eh
 * total energy  :   -92.6586950 Eh     change       -0.1297951E-01 Eh
 * total energy  :   -92.6628497 Eh     change       -0.4154759E-02 Eh
 * total energy  :   -92.6637432 Eh     change       -0.8934827E-03 Eh
 * total energy  :   -92.6645204 Eh     change       -0.7771814E-03 Eh
 * total energy  :   -92.6647220 Eh     change       -0.2016579E-03 Eh
 * total energy  :   -92.6648920 Eh     change       -0.1699513E-03 Eh
 * total energy  :   -92.6650706 Eh     change       -0.1786544E-03 Eh
 * total energy  :   -92.6652329 Eh     change       -0.1622623E-03 Eh
 * total energy  :   -92.6653603 Eh     change       -0.1273570E-03 Eh
 * total energy  :   -92.6672325 Eh     change       -0.4438584E-06 Eh
 * total energy  :   -92.6672329 Eh     change       -0.4233258E-06 Eh
 * total energy  :   -92.6672333 Eh     change       -0.3679947E-06 Eh
 * total energy  :   -92.6672336 Eh     change       -0.3031107E-06 Eh
 * total energy  :   -92.6672338 Eh     change       -0.2327377E-06 Eh
 * total energy  :   -92.6672340 Eh     change       -0.2005633E-06 Eh
 * total energy  :   -92.6672342 Eh     change       -0.1938227E-06 Eh
 * total energy  :   -92.6672344 Eh     change       -0.2084367E-06 Eh
 * total energy  :   -92.6672344 Eh     change       -0.2279535E-08 Eh
   *** GEOMETRY OPTIMIZATION CONVERGED AFTER 94 ITERATIONS ***

 final structure:
================
55
 xtb: 6.7.1 (edcfbbe)
C            6.80788246522442       -1.15529549558034       -1.80570111819084
C            6.09670762068848       -0.36339144396836       -2.69512389865493
C            4.79151966871684       -0.02246361988354       -2.38770816723903
C            4.24963644436846       -0.48000295605513       -1.18789534277035
C            2.86958234119897       -0.15823295892797       -0.81127663429327
N            1.94929135400205       -0.18360889217640       -1.74502775827221
C            0.66297414079802       -0.03734515040506       -1.37459001963416
C           -0.36071593215750       -0.03397072961239       -2.34444529933152
C           -1.66754856937238        0.01243817346914       -1.95407798743647
C           -2.01734600535851        0.05387350469963       -0.58345727074298
N           -3.37911183117566        0.05863393585677       -0.23042880663530
C           -4.21520011788663        1.08612654905967       -0.68191835825493
C           -3.71972543792193        2.20883112885374       -1.33488270114599
C           -4.57268940184406        3.21137369373607       -1.77091873216139
C           -5.93214928769307        3.11751920253533       -1.54774533933166
C           -6.43836694238785        2.02258365768806       -0.86322975165489
C           -5.59090494194642        1.02023837593766       -0.42666921633811
O           -6.16027181980381       -0.01634550850266        0.27216630479698
C           -5.32157422392848       -0.99544658548708        0.74849828806506
C           -5.91106283578222       -2.02173254142649        1.46489023894090
C           -5.14291044829513       -3.06951524922607        1.94933050376082
C           -3.78567175604224       -3.08807829482333        1.69700778057559
C           -3.19004577254985       -2.05957419498359        0.98261523205627
C           -3.93993126002561       -0.98815701997104        0.51255675567273
C           -1.03619024542028        0.08064444938804        0.38174078256042
C            0.31608047676798        0.05217498938564        0.00296299734721
N            1.28171519092838        0.17492259553348        0.93960865840492
C            2.53064263643319        0.12369180781985        0.54874182187061
C            3.57877757593348        0.41980629463441        1.53197931501079
C            3.49643869100093       -0.06238885876782        2.83670251622103
C            4.51317796658519        0.25126671377990        3.72135960130790
C            5.56347714998424        1.04189621736188        3.27935268865901
C            5.53898891178706        1.48920816874336        1.96639546867525
N            4.57916868332377        1.19085735145384        1.11022874025272
N            4.92691660957434       -1.25180958289815       -0.33961572115047
C            6.16925083495557       -1.57532498986686       -0.64802116210598
H            7.82747048569274       -1.44509097703918       -2.00475454387441
H            6.55120264458696       -0.02024135517257       -3.61300950126652
H            4.19153461384456        0.58763590417318       -3.04378412496433
H           -0.08142578004567       -0.09277239899145       -3.38468150510161
H           -2.45916301858364       -0.00645823313220       -2.68831832217209
H           -2.65762823682795        2.30407198525334       -1.49823569959875
H           -4.16052717420884        4.06817847281554       -2.28113575576173
H           -6.60062890392253        3.89249729327015       -1.88787594062092
H           -7.49191727879130        1.92743771791238       -0.65271034846073
H           -6.97700569461469       -1.98323791434787        1.62511137824308
H           -5.61071689413911       -3.86461569620172        2.50796395489702
H           -3.17470505946481       -3.90447210982370        2.05011590316604
H           -2.13165549340833       -2.09942309902979        0.77969784057509
H           -1.27945764520400        0.13980608329006        1.43136677033172
H            2.65444137887732       -0.66986524441321        3.12761406992500
H            4.48647354788514       -0.11197937179302        4.73828759853574
H            6.37686441307779        1.31061455285518        3.93454850112651
H            6.32470891468238        2.12159237236799        1.57239451375624
H            6.67131924788148       -2.20707971938474        0.07399980242770

          :  Hamiltonian                  GFN2-xTB          :
         :: gradient norm              0.000041247152 Eh/a0 ::
         :: HOMO-LUMO gap              1.073308824824 eV    ::
         :: SCC energy               -94.245296676730 Eh    ::
         :: -> dispersion             -0.074994179546 Eh    ::
         :: -> Gsolv                  -0.043890790302 Eh    ::
         :: repulsion energy           1.578062255505 Eh    ::

    * Orbital Energies and Occupations

         #    Occupation            Energy/Eh            Energy/eV
      -------------------------------------------------------------
         1        2.0000           -0.7339522             -19.9719
       ...           ...                  ...                  ...
        73        2.0000           -0.4371389             -11.8952
        74        2.0000           -0.4334900             -11.7959
        75        2.0000           -0.4318132             -11.7502
        76        2.0000           -0.4291150             -11.6768
        77        2.0000           -0.4199853             -11.4284
        78        2.0000           -0.4179747             -11.3737
        79        2.0000           -0.4158270             -11.3152
        80        2.0000           -0.4116234             -11.2008
        81        2.0000           -0.3948971             -10.7457
        82        2.0000           -0.3854002             -10.4873
        83        2.0000           -0.3828700             -10.4184
        84        2.0000           -0.3670333              -9.9875
        85        2.0000           -0.3496085              -9.5133 (HOMO)
        86                         -0.3101651              -8.4400 (LUMO)
        87                         -0.2830822              -7.7031
        88                         -0.2575314              -7.0078
        89                         -0.2572908              -7.0012
        90                         -0.2430857              -6.6147
        91                         -0.2420157              -6.5856
        92                         -0.2389655              -6.5026
        93                         -0.2341569              -6.3717
        94                         -0.2262167              -6.1557
        95                         -0.2187639              -5.9529
        96                         -0.2007786              -5.4635
       ...                                ...                  ...
       163                          0.6793952              18.4873
      -------------------------------------------------------------
                  HL-Gap            0.0394433 Eh            1.0733 eV

     #   Z          covCN         q      C6AA      α(0)
     1   6 C        2.914    -0.039    28.978     8.827
     2   6 C        2.927    -0.009    28.250     8.716
     3   6 C        2.918    -0.040    28.985     8.829
     4   6 C        2.970     0.103    25.714     8.318
     5   6 C        2.959     0.103    25.709     8.317
     6   7 N        1.848    -0.256    27.516     7.774
     7   6 C        2.968     0.078    26.246     8.403
     8   6 C        2.915    -0.042    29.045     8.838
     9   6 C        2.919    -0.038    28.944     8.822
    10   6 C        2.917     0.069    26.467     8.436
    11   7 N        2.751    -0.066    22.517     7.048
    12   6 C        2.922     0.040    27.096     8.536
    13   6 C        2.924    -0.059    29.461     8.901
    14   6 C        2.919    -0.038    28.946     8.823
    15   6 C        2.919    -0.039    28.962     8.825
    16   6 C        2.919    -0.057    29.408     8.893
    17   6 C        2.883     0.124    25.279     8.243
    18   8 O        1.709    -0.265    18.387     5.789
    19   6 C        2.883     0.124    25.282     8.243
    20   6 C        2.920    -0.056    29.404     8.892
    21   6 C        2.919    -0.039    28.969     8.826
    22   6 C        2.919    -0.038    28.942     8.822
    23   6 C        2.923    -0.060    29.482     8.904
    24   6 C        2.919     0.040    27.095     8.536
    25   6 C        2.920    -0.058    29.443     8.898
    26   6 C        2.966     0.082    26.179     8.393
    27   7 N        1.849    -0.260    27.615     7.788
    28   6 C        2.959     0.107    25.630     8.304
    29   6 C        2.971     0.104    25.704     8.316
    30   6 C        2.918    -0.039    28.978     8.827
    31   6 C        2.928    -0.009    28.247     8.716
    32   6 C        2.914    -0.039    28.973     8.826
    33   6 C        2.909     0.064    26.570     8.452
    34   7 N        1.843    -0.259    27.579     7.783
    35   7 N        1.843    -0.260    27.602     7.786
    36   6 C        2.908     0.064    26.571     8.452
    37   1 H        0.926     0.054     2.269     2.356
    38   1 H        0.926     0.056     2.247     2.344
    39   1 H        0.926     0.052     2.299     2.371
    40   1 H        0.926     0.067     2.122     2.278
    41   1 H        0.926     0.063     2.162     2.300
    42   1 H        0.926     0.038     2.476     2.461
    43   1 H        0.926     0.045     2.385     2.415
    44   1 H        0.926     0.047     2.361     2.403
    45   1 H        0.926     0.053     2.288     2.365
    46   1 H        0.926     0.053     2.283     2.363
    47   1 H        0.926     0.047     2.360     2.402
    48   1 H        0.926     0.044     2.396     2.421
    49   1 H        0.926     0.037     2.492     2.469
    50   1 H        0.926     0.063     2.161     2.299
    51   1 H        0.926     0.051     2.303     2.373
    52   1 H        0.926     0.056     2.243     2.342
    53   1 H        0.926     0.055     2.264     2.353
    54   1 H        0.925     0.042     2.426     2.436
    55   1 H        0.925     0.041     2.433     2.439

molecular dipole:
                 x           y           z       tot (Debye)
 q only:        0.421       0.015      -0.103
   full:        0.739      -0.002      -0.072       1.887

 projected vibrational frequencies (cm⁻¹)
eigval :       -0.00    -0.00    -0.00    -0.00     0.00     0.00
eigval :       16.02    19.85    28.47    39.20    42.14    46.60
eigval :       60.85    63.46    76.26    80.12   116.29   138.19
eigval :      139.53   155.42   179.92   213.92   225.22   248.26
eigval :      253.32   262.74   270.48   293.58   310.77   333.78
eigval :      355.77   370.27   374.70   387.56   393.31   402.74
eigval :      426.52   428.42   444.16   454.50   461.84   507.75
eigval :      510.90   517.65   524.27   551.58   556.64   562.35
eigval :      579.04   594.48   596.80   604.05   622.96   628.03
eigval :      659.43   660.72   670.43   683.85   706.56   711.27
eigval :      716.72   729.62   756.12   769.58   776.81   778.14
eigval :      782.51   791.02   822.45   840.94   854.11   855.97
eigval :      863.70   866.86   884.23   888.51   889.56   897.42
eigval :      901.60   911.38   913.68   914.91   917.06   917.23
eigval :      923.92   928.47   930.06   963.94   984.84   997.58
eigval :     1027.18  1087.10  1088.51  1088.85  1089.11  1102.12
eigval :     1106.79  1113.25  1118.76  1124.02  1140.65  1158.06
eigval :     1158.31  1162.44  1172.64  1182.05  1193.75  1199.54
eigval :     1213.95  1235.98  1240.94  1242.30  1248.19  1259.55
eigval :     1267.38  1280.93  1285.13  1290.26  1294.50  1304.30
eigval :     1326.33  1335.74  1346.74  1376.05  1397.59  1403.23
eigval :     1414.07  1418.59  1424.54  1438.19  1441.20  1453.35
eigval :     1475.90  1477.40  1497.74  1514.04  1531.47  1555.50
eigval :     1557.73  1566.66  1572.79  1575.99  1577.73  1585.95
eigval :     1592.28  1600.20  3050.13  3050.52  3077.21  3078.21
eigval :     3089.25  3089.29  3090.30  3097.05  3097.46  3099.92
eigval :     3100.11  3101.53  3103.54  3104.15  3104.93  3105.25
eigval :     3105.73  3110.35  3111.02

   temp. (K)  partition function   enthalpy   heat capacity  entropy
                                   cal/mol     cal/K/mol   cal/K/mol   J/K/mol
 298.15  VIB  0.510E+12            15605.439    100.181     96.033
         ROT  0.363E+08              888.752      2.981     37.572
         INT  0.185E+20            16494.191    103.162    133.606
         TR   0.972E+28             1481.254      4.968     44.282
         TOT                       17975.4451   108.1297   177.8881   744.2837

       T/K    H(0)-H(T)+PV         H(T)/Eh          T*S/Eh         G(T)/Eh
   ------------------------------------------------------------------------
    298.15    0.286457E-01    0.434687E+00    0.845204E-01    0.350166E+00
   ------------------------------------------------------------------------

         :::::::::::::::::::::::::::::::::::::::::::::::::::::
         ::                  THERMODYNAMIC                  ::
         :::::::::::::::::::::::::::::::::::::::::::::::::::::
         :: total free energy         -92.317068228944 Eh   ::
         ::.................................................::
         :: total energy              -92.667234418842 Eh   ::
         :: zero point energy           0.406040862304 Eh   ::
         :: G(RRHO) w/o ZPVE           -0.055874672406 Eh   ::
         :: G(RRHO) contrib.            0.350166189898 Eh   ::
         :::::::::::::::::::::::::::::::::::::::::::::::::::::

           -------------------------------------------------
          | TOTAL ENERGY              -92.667234418842 Eh   |
          | TOTAL ENTHALPY            -92.232547861423 Eh   |
          | TOTAL FREE ENERGY         -92.317068228944 Eh   |
          | GRADIENT NORM               0.000041255139 Eh/α |
          | HOMO-LUMO GAP               1.073307733046 eV   |
           -------------------------------------------------

 * finished run on 2025/07/20 at 18:25:45.078
