   * xtb version 6.7.1 (edcfbbe) compiled by 'albert@albert-system' on 2024-07-22

   ID    Z sym.   atoms
    1    6 C      1-5, 7-10, 12-17, 19-26, 28-33, 36
    2    7 N      6, 11, 27, 34, 35
    3    8 O      18
    4    1 H      37-55

          program call               : xtb data2507/toluene/DPQ-PXZ/DPQ-PXZ_toluene_S0_crest.xyz --gfn 2 --gbsa toluene --ohess vtight --parallel 40 --molden --ceasefiles --namespace data2507/toluene/DPQ-PXZ/DPQ-PXZ_toluene_S0_finalOpt
      * Solvation model:               GBSA
        Solvent                        toluene
        Solvent mass                       9.2140E+01 g/mol
          :  Hamiltonian                  GFN2-xTB          :
 * total energy  :   -92.6671179 Eh     change       -0.1433733E-08 Eh
 * total energy  :   -92.6671899 Eh     change       -0.7199641E-04 Eh
 * total energy  :   -92.6672275 Eh     change       -0.3756857E-04 Eh
 * total energy  :   -92.6672486 Eh     change       -0.2109232E-04 Eh
 * total energy  :   -92.6672635 Eh     change       -0.1497935E-04 Eh
 * total energy  :   -92.6672852 Eh     change       -0.2163153E-04 Eh
 * total energy  :   -92.6672935 Eh     change       -0.8367011E-05 Eh
 * total energy  :   -92.6672984 Eh     change       -0.4864502E-05 Eh
 * total energy  :   -92.6673001 Eh     change       -0.1697518E-05 Eh
 * total energy  :   -92.6673011 Eh     change       -0.1008428E-05 Eh
 * total energy  :   -92.6673031 Eh     change       -0.9136864E-06 Eh
 * total energy  :   -92.6673036 Eh     change       -0.4213600E-06 Eh
 * total energy  :   -92.6673038 Eh     change       -0.2343879E-06 Eh
 * total energy  :   -92.6673040 Eh     change       -0.2039466E-06 Eh
 * total energy  :   -92.6673042 Eh     change       -0.2257279E-06 Eh
 * total energy  :   -92.6673045 Eh     change       -0.2297273E-06 Eh
 * total energy  :   -92.6673046 Eh     change       -0.1912318E-06 Eh
 * total energy  :   -92.6673048 Eh     change       -0.1246405E-06 Eh
 * total energy  :   -92.6673048 Eh     change       -0.1926594E-07 Eh
   *** GEOMETRY OPTIMIZATION CONVERGED AFTER 20 ITERATIONS ***

 final structure:
================
55
 xtb: 6.7.1 (edcfbbe)
C            6.88441887071960       -1.34394594456757        1.67626920265876
C            6.12020611467247       -2.46157902845433        1.37479208752707
C            4.80602125363560       -2.28360004652919        0.98050916760130
C            4.30968663214858       -0.98453245664380        0.88875605456145
C            2.92438747621798       -0.73525360398412        0.47670079478496
N            1.98631742573207       -1.51875497047283        0.95191157312383
C            0.70327323134096       -1.20789516581237        0.68572193556990
C           -0.34035918571684       -2.02879585273211        1.16058220060910
C           -1.63973975005296       -1.66252705274769        0.96064756078138
C           -1.96289341891596       -0.46434500867153        0.28023178752233
N           -3.31580040232414       -0.11504853044896        0.12341337090874
C           -4.18763490619715       -0.97383977207526       -0.55675938588524
C           -3.74143522882662       -2.11652913840015       -1.21085392784441
C           -4.62973751200014       -2.94842292223758       -1.87531353585521
C           -5.97616164805132       -2.64458663478355       -1.91313546685646
C           -6.43226679064786       -1.48713446781002       -1.30027669209545
C           -5.54934470726214       -0.65474234365744       -0.63592239365875
O           -6.07037727896714        0.48979487980601       -0.08336955671399
C           -5.19517870977427        1.34874714950253        0.53672245449397
C           -5.73428575120573        2.50870467302898        1.06398210470465
C           -4.92841727723372        3.41146718559092        1.74068782232994
C           -3.58504544077034        3.13470837023797        1.89865806584394
C           -3.03980496090595        1.97559611045955        1.36777669766303
C           -3.82631764087553        1.07407114277882        0.66050073273020
C           -0.96203989722276        0.34364033484037       -0.21112065726564
C            0.38218810159699       -0.01860747708753       -0.02696912638844
N            1.36232596472769        0.72738684372883       -0.58222276173617
C            2.60396754603319        0.36210543056877       -0.38118218487016
C            3.66171950021975        1.07529340796859       -1.10650600636270
C            3.61873107769849        2.45982196696307       -1.25757677205176
C            4.64306648407044        3.07983036617668       -1.95123978085423
C            5.65998366198747        2.29905748841059       -2.48036433521478
C            5.59613136876057        0.92590281449989       -2.29377724826226
N            4.62954147486934        0.32292023138211       -1.62626561808972
N            5.03740798320355        0.08842585706190        1.19297802001013
C            6.28746143397958       -0.09575373092329        1.57634220467599
H            7.91316559314729       -1.43584770315763        1.98669642879397
H            6.54159741515342       -3.45361539795597        1.44751226630059
H            4.16464493854819       -3.11579802963104        0.73776522506766
H           -0.08109717311143       -2.92810903679744        1.69685063234519
H           -2.44464695893355       -2.27381713727220        1.34084867589080
H           -2.68967137716059       -2.35577543057965       -1.20778315059404
H           -4.25486023637591       -3.83262273008320       -2.36722116510151
H           -6.67223490594544       -3.28994301065446       -2.42503901451065
H           -7.47345547832978       -1.20715170993553       -1.32927541119954
H           -6.79169478420305        2.68096149551746        0.93897912195082
H           -5.35675010378987        4.31408454288777        2.14661835473302
H           -2.94619136329601        3.81602651900620        2.43911598417500
H           -1.99214421053201        1.76739969560449        1.51605663184780
H           -1.18405339664708        1.24885464915449       -0.75489768192979
H            2.80103323767747        3.01699363457443       -0.82895379584242
H            4.64737416070126        4.15234826914270       -2.07991374644997
H            6.47797274481096        2.74008653916589       -3.02767334483196
H            6.35425741597009        0.26704924725914       -2.69816751181719
H            6.83158575165195        0.80935548768791        1.81556519357683

          :  Hamiltonian                  GFN2-xTB          :
         :: gradient norm              0.000102911856 Eh/a0 ::
         :: HOMO-LUMO gap              1.083053946797 eV    ::
         :: SCC energy               -94.245262808440 Eh    ::
         :: -> dispersion             -0.075025330319 Eh    ::
         :: -> Gsolv                  -0.043946726666 Eh    ::
         :: repulsion energy           1.577958022230 Eh    ::

    * Orbital Energies and Occupations

         #    Occupation            Energy/Eh            Energy/eV
      -------------------------------------------------------------
         1        2.0000           -0.7341204             -19.9764
       ...           ...                  ...                  ...
        73        2.0000           -0.4371199             -11.8946
        74        2.0000           -0.4331748             -11.7873
        75        2.0000           -0.4315883             -11.7441
        76        2.0000           -0.4291589             -11.6780
        77        2.0000           -0.4200946             -11.4314
        78        2.0000           -0.4181025             -11.3771
        79        2.0000           -0.4156105             -11.3093
        80        2.0000           -0.4117893             -11.2054
        81        2.0000           -0.3949408             -10.7469
        82        2.0000           -0.3853381             -10.4856
        83        2.0000           -0.3827784             -10.4159
        84        2.0000           -0.3667404              -9.9795
        85        2.0000           -0.3497768              -9.5179 (HOMO)
        86                         -0.3099755              -8.4349 (LUMO)
        87                         -0.2826111              -7.6902
        88                         -0.2575575              -7.0085
        89                         -0.2571737              -6.9981
        90                         -0.2431320              -6.6160
        91                         -0.2420771              -6.5873
        92                         -0.2389334              -6.5017
        93                         -0.2342544              -6.3744
        94                         -0.2262743              -6.1572
        95                         -0.2187496              -5.9525
        96                         -0.2008500              -5.4654
       ...                                ...                  ...
       163                          0.6796238              18.4935
      -------------------------------------------------------------
                  HL-Gap            0.0398013 Eh            1.0830 eV

     #   Z          covCN         q      C6AA      α(0)
     1   6 C        2.914    -0.039    28.981     8.828
     2   6 C        2.927    -0.009    28.250     8.716
     3   6 C        2.918    -0.040    28.986     8.829
     4   6 C        2.971     0.103    25.707     8.317
     5   6 C        2.959     0.103    25.709     8.317
     6   7 N        1.848    -0.257    27.533     7.777
     7   6 C        2.968     0.078    26.246     8.403
     8   6 C        2.915    -0.042    29.049     8.838
     9   6 C        2.919    -0.038    28.947     8.823
    10   6 C        2.917     0.068    26.470     8.437
    11   7 N        2.751    -0.065    22.500     7.045
    12   6 C        2.922     0.040    27.098     8.537
    13   6 C        2.924    -0.059    29.465     8.902
    14   6 C        2.919    -0.038    28.945     8.822
    15   6 C        2.919    -0.039    28.960     8.825
    16   6 C        2.919    -0.057    29.406     8.893
    17   6 C        2.883     0.124    25.278     8.242
    18   8 O        1.709    -0.264    18.382     5.789
    19   6 C        2.883     0.124    25.280     8.243
    20   6 C        2.920    -0.056    29.403     8.892
    21   6 C        2.919    -0.039    28.966     8.826
    22   6 C        2.919    -0.038    28.942     8.822
    23   6 C        2.924    -0.059    29.478     8.904
    24   6 C        2.919     0.040    27.099     8.537
    25   6 C        2.920    -0.058    29.452     8.900
    26   6 C        2.966     0.082    26.178     8.392
    27   7 N        1.849    -0.261    27.633     7.791
    28   6 C        2.958     0.107    25.635     8.305
    29   6 C        2.971     0.104    25.706     8.317
    30   6 C        2.918    -0.039    28.978     8.828
    31   6 C        2.928    -0.009    28.247     8.716
    32   6 C        2.914    -0.039    28.972     8.826
    33   6 C        2.909     0.064    26.570     8.452
    34   7 N        1.843    -0.259    27.579     7.783
    35   7 N        1.843    -0.260    27.602     7.786
    36   6 C        2.909     0.064    26.571     8.452
    37   1 H        0.926     0.054     2.270     2.356
    38   1 H        0.926     0.056     2.249     2.345
    39   1 H        0.926     0.051     2.306     2.375
    40   1 H        0.926     0.067     2.123     2.279
    41   1 H        0.926     0.064     2.157     2.297
    42   1 H        0.926     0.039     2.468     2.457
    43   1 H        0.926     0.045     2.383     2.414
    44   1 H        0.926     0.047     2.360     2.402
    45   1 H        0.926     0.053     2.287     2.365
    46   1 H        0.926     0.053     2.282     2.362
    47   1 H        0.926     0.047     2.358     2.402
    48   1 H        0.926     0.044     2.394     2.420
    49   1 H        0.926     0.037     2.487     2.466
    50   1 H        0.926     0.063     2.165     2.301
    51   1 H        0.926     0.051     2.304     2.374
    52   1 H        0.926     0.056     2.243     2.342
    53   1 H        0.926     0.055     2.264     2.353
    54   1 H        0.925     0.042     2.427     2.436
    55   1 H        0.925     0.041     2.434     2.440

molecular dipole:
                 x           y           z       tot (Debye)
 q only:        0.379      -0.111       0.018
   full:        0.697      -0.085       0.006       1.784

 projected vibrational frequencies (cm⁻¹)
eigval :       -0.00    -0.00    -0.00     0.00     0.00     0.00
eigval :       17.17    21.37    27.94    33.49    43.96    49.04
eigval :       61.43    64.91    77.26    82.36   117.09   139.30
eigval :      140.28   156.89   180.99   215.10   225.64   247.97
eigval :      254.46   262.54   271.32   293.42   311.15   334.57
eigval :      356.54   370.60   375.63   387.72   394.63   403.31
eigval :      426.90   431.85   445.53   455.85   464.05   508.38
eigval :      509.79   517.76   524.31   552.09   557.61   562.01
eigval :      579.51   594.16   597.14   604.29   623.03   629.07
eigval :      660.49   662.76   670.57   684.83   706.65   711.84
eigval :      717.55   730.09   757.84   772.28   779.80   780.11
eigval :      783.81   791.30   825.61   841.65   854.28   856.14
eigval :      864.72   868.45   887.75   888.30   890.41   899.17
eigval :      903.60   914.53   915.69   917.40   919.13   921.31
eigval :      926.13   932.60   932.98   964.18   986.10   997.89
eigval :     1027.29  1086.18  1087.76  1089.65  1089.85  1101.80
eigval :     1106.67  1112.57  1116.98  1123.70  1143.68  1155.14
eigval :     1157.49  1163.18  1172.95  1182.24  1194.10  1199.54
eigval :     1216.13  1235.86  1240.73  1242.51  1248.01  1259.51
eigval :     1267.95  1281.34  1285.19  1290.21  1294.63  1304.36
eigval :     1326.00  1336.07  1346.78  1376.03  1397.95  1403.50
eigval :     1414.27  1418.42  1424.63  1438.60  1441.18  1453.31
eigval :     1476.27  1477.31  1497.61  1513.76  1532.02  1555.68
eigval :     1557.91  1566.76  1572.93  1576.02  1577.75  1585.88
eigval :     1592.22  1600.16  3049.61  3050.92  3076.65  3077.51
eigval :     3089.51  3089.95  3091.05  3098.11  3098.39  3098.77
eigval :     3099.65  3101.71  3102.44  3103.76  3104.67  3105.03
eigval :     3106.27  3110.78  3111.51

   temp. (K)  partition function   enthalpy   heat capacity  entropy
                                   cal/mol     cal/K/mol   cal/K/mol   J/K/mol
 298.15  VIB  0.432E+12            15571.552    100.080     95.667
         ROT  0.362E+08              888.752      2.981     37.571
         INT  0.157E+20            16460.304    103.061    133.237
         TR   0.972E+28             1481.254      4.968     44.282
         TOT                       17941.5582   108.0295   177.5196   742.7419

       T/K    H(0)-H(T)+PV         H(T)/Eh          T*S/Eh         G(T)/Eh
   ------------------------------------------------------------------------
    298.15    0.285917E-01    0.434839E+00    0.843453E-01    0.350494E+00
   ------------------------------------------------------------------------

         :::::::::::::::::::::::::::::::::::::::::::::::::::::
         ::                  THERMODYNAMIC                  ::
         :::::::::::::::::::::::::::::::::::::::::::::::::::::
         :: total free energy         -92.316811281265 Eh   ::
         ::.................................................::
         :: total energy              -92.667304782403 Eh   ::
         :: zero point energy           0.406247088770 Eh   ::
         :: G(RRHO) w/o ZPVE           -0.055753587632 Eh   ::
         :: G(RRHO) contrib.            0.350493501138 Eh   ::
         :::::::::::::::::::::::::::::::::::::::::::::::::::::

           -------------------------------------------------
          | TOTAL ENERGY              -92.667304782403 Eh   |
          | TOTAL ENTHALPY            -92.232466000731 Eh   |
          | TOTAL FREE ENERGY         -92.316811281265 Eh   |
          | GRADIENT NORM               0.000102741132 Eh/α |
          | HOMO-LUMO GAP               1.083048040789 eV   |
           -------------------------------------------------

 * finished run on 2025/07/20 at 18:27:41.898
