   * xtb version 6.7.1 (edcfbbe) compiled by 'albert@albert-system' on 2024-07-22

   ID    Z sym.   atoms
    1    7 N      1, 5
    2    6 C      2-4, 6-28
    3    9 F      29
    4    1 H      30-42

          program call               : xtb data2507/toluene/2C/2C_toluene_S0_crest.xyz --gfn 2 --gbsa toluene --ohess vtight --parallel 40 --molden --ceasefiles --namespace data2507/toluene/2C/2C_toluene_S0_finalOpt
      * Solvation model:               GBSA
        Solvent                        toluene
        Solvent mass                       9.2140E+01 g/mol
          :  Hamiltonian                  GFN2-xTB          :
 * total energy  :   -72.8467124 Eh     change       -0.8107293E-09 Eh
 * total energy  :   -72.8467496 Eh     change       -0.3715793E-04 Eh
 * total energy  :   -72.8467343 Eh     change        0.1524816E-04 Eh
 * total energy  :   -72.8467665 Eh     change       -0.3218664E-04 Eh
 * total energy  :   -72.8467689 Eh     change       -0.2389008E-05 Eh
 * total energy  :   -72.8467689 Eh     change        0.6322196E-08 Eh
 * total energy  :   -72.8467714 Eh     change       -0.2461067E-05 Eh
 * total energy  :   -72.8467730 Eh     change       -0.1613509E-05 Eh
 * total energy  :   -72.8467747 Eh     change       -0.1696604E-05 Eh
 * total energy  :   -72.8467760 Eh     change       -0.1332685E-05 Eh
 * total energy  :   -72.8468161 Eh     change       -0.1405534E-05 Eh
 * total energy  :   -72.8468175 Eh     change       -0.1433098E-05 Eh
 * total energy  :   -72.8468187 Eh     change       -0.1152128E-05 Eh
 * total energy  :   -72.8468195 Eh     change       -0.7732764E-06 Eh
 * total energy  :   -72.8468201 Eh     change       -0.6348073E-06 Eh
 * total energy  :   -72.8468208 Eh     change       -0.6995903E-06 Eh
 * total energy  :   -72.8468216 Eh     change       -0.8109551E-06 Eh
 * total energy  :   -72.8468226 Eh     change       -0.1028430E-05 Eh
 * total energy  :   -72.8468227 Eh     change       -0.7061715E-08 Eh
   *** GEOMETRY OPTIMIZATION CONVERGED AFTER 68 ITERATIONS ***

 final structure:
================
42
 xtb: 6.7.1 (edcfbbe)
N            5.23031476379502        2.81392494190339       -1.53010045786894
C            5.43904603582369        1.85843112968480       -0.92736464360349
C            5.80314969983020        0.71343019198110       -0.18833070649859
C            7.19495587804433        0.64896151978173        0.05910802824009
N            8.32363863683926        0.59784754715833        0.25877364855391
C            4.99417214885200       -0.27529471968562        0.28211022926534
C            3.57517382328974       -0.42043762929202        0.14592770894039
C            2.73630365114907        0.47999505625861       -0.53135695432768
C            1.38046891629776        0.26714220667206       -0.62146323521404
C            0.78308025060183       -0.86086985026249       -0.04700783105708
C           -0.65173253063228       -1.12110845147924       -0.19322945505475
C           -1.04699969979173       -2.36863901386319       -0.67746415962907
C           -2.37034410275456       -2.65421786795445       -0.93141414275157
C           -3.36330407082405       -1.69994794666171       -0.69579522057911
C           -4.73704169733084       -1.95681714442723       -0.97344598755576
C           -5.68834705408175       -1.02488533277144       -0.73073304303411
C           -5.35123022394490        0.24557597304950       -0.17796824168614
C           -6.31714438601772        1.21889950042993        0.08617469954801
C           -5.96127263823535        2.43973843138874        0.63079390815901
C           -4.63932601927333        2.71856264625699        0.92625872620603
C           -3.63952797251288        1.77670755284801        0.67400152103738
C           -2.27004703465837        2.01946914383029        0.98207490401079
C           -1.31178615521440        1.10089277261866        0.71391461190174
C           -1.62801012866401       -0.14931176258963        0.10341169452077
C           -2.99152822229134       -0.44148680951919       -0.15944540012057
C           -3.99182916980766        0.52550649418339        0.11101878009324
C            1.59844503479049       -1.77747833607323        0.62019821490306
C            2.94974872069922       -1.54590885425342        0.71263099208323
F            3.70655898296837       -2.44726777306110        1.38081716127450
H            5.49104436783541       -1.06670777940457        0.83239770065532
H            3.16798693814477        1.35224804869143       -0.99450417768729
H            0.76840561254078        0.96751063305069       -1.16853094124127
H           -0.28961838472026       -3.10766291898684       -0.89531094687477
H           -2.64838705629192       -3.61994440238784       -1.32774743804379
H           -5.00006357599779       -2.92041884818553       -1.38622186569161
H           -6.72788458171460       -1.22716529408085       -0.94677941291991
H           -7.35259784638860        1.00796421039103       -0.14020249179178
H           -6.72263488514246        3.18054017293466        0.82857695080041
H           -4.36852109177399        3.67208598067938        1.35669074086222
H           -2.01100248636317        2.96041212537832        1.44663115780127
H           -0.28501960632531        1.30092526462724        0.98085781638067
H            1.17997113985188       -2.65745025725976        1.08364813489275

          :  Hamiltonian                  GFN2-xTB          :
         :: gradient norm              0.000112028414 Eh/a0 ::
         :: HOMO-LUMO gap              1.202063512571 eV    ::
         :: SCC energy               -74.231355484069 Eh    ::
         :: -> dispersion             -0.055708978939 Eh    ::
         :: -> Gsolv                  -0.035795921117 Eh    ::
         :: repulsion energy           1.384532828774 Eh    ::

    * Orbital Energies and Occupations

         #    Occupation            Energy/Eh            Energy/eV
      -------------------------------------------------------------
         1        2.0000           -0.8399311             -22.8557
       ...           ...                  ...                  ...
        55        2.0000           -0.4495119             -12.2318
        56        2.0000           -0.4458952             -12.1334
        57        2.0000           -0.4426460             -12.0450
        58        2.0000           -0.4398783             -11.9697
        59        2.0000           -0.4395371             -11.9604
        60        2.0000           -0.4341477             -11.8138
        61        2.0000           -0.4276625             -11.6373
        62        2.0000           -0.4179677             -11.3735
        63        2.0000           -0.4154096             -11.3039
        64        2.0000           -0.4128365             -11.2339
        65        2.0000           -0.4100667             -11.1585
        66        2.0000           -0.3985479             -10.8450
        67        2.0000           -0.3721020             -10.1254 (HOMO)
        68                         -0.3279271              -8.9233 (LUMO)
        69                         -0.2852350              -7.7616
        70                         -0.2528643              -6.8808
        71                         -0.2507809              -6.8241
        72                         -0.2493890              -6.7862
        73                         -0.2366447              -6.4394
        74                         -0.2279245              -6.2021
        75                         -0.2274473              -6.1892
        76                         -0.2089158              -5.6849
        77                         -0.2061022              -5.6083
        78                         -0.1874182              -5.0999
       ...                                ...                  ...
       129                          1.1488282              31.2612
      -------------------------------------------------------------
                  HL-Gap            0.0441750 Eh            1.2021 eV

     #   Z          covCN         q      C6AA      α(0)
     1   7 N        0.911    -0.257    26.674     7.470
     2   6 C        1.926     0.130    27.906     8.531
     3   6 C        2.944     0.011    27.764     8.642
     4   6 C        1.939     0.125    28.027     8.549
     5   7 N        0.911    -0.253    26.564     7.454
     6   6 C        2.919     0.007    27.859     8.655
     7   6 C        2.965    -0.002    28.064     8.689
     8   6 C        2.922    -0.026    28.651     8.778
     9   6 C        2.918    -0.032    28.799     8.800
    10   6 C        2.980     0.034    27.230     8.560
    11   6 C        2.976     0.003    27.963     8.674
    12   6 C        2.921    -0.033    28.812     8.802
    13   6 C        2.918    -0.036    28.897     8.815
    14   6 C        2.982     0.015    27.679     8.630
    15   6 C        2.913    -0.036    28.885     8.813
    16   6 C        2.913    -0.033    28.822     8.803
    17   6 C        2.982     0.013    27.728     8.638
    18   6 C        2.920    -0.034    28.855     8.809
    19   6 C        2.913    -0.029    28.728     8.789
    20   6 C        2.920    -0.034    28.858     8.809
    21   6 C        2.981     0.012    27.730     8.638
    22   6 C        2.913    -0.033    28.829     8.804
    23   6 C        2.912    -0.038    28.934     8.820
    24   6 C        2.981     0.012    27.750     8.641
    25   6 C        2.994     0.004    27.914     8.667
    26   6 C        2.997     0.004    27.931     8.669
    27   6 C        2.919    -0.050    29.242     8.868
    28   6 C        2.790     0.170    24.329     8.080
    29   9 F        0.787    -0.235    11.598     4.023
    30   1 H        0.925     0.072     2.059     2.244
    31   1 H        0.926     0.062     2.180     2.309
    32   1 H        0.926     0.068     2.113     2.273
    33   1 H        0.926     0.040     2.447     2.446
    34   1 H        0.926     0.042     2.426     2.436
    35   1 H        0.926     0.039     2.468     2.457
    36   1 H        0.926     0.038     2.471     2.458
    37   1 H        0.926     0.037     2.484     2.465
    38   1 H        0.926     0.036     2.506     2.476
    39   1 H        0.926     0.037     2.486     2.466
    40   1 H        0.926     0.038     2.471     2.458
    41   1 H        0.926     0.038     2.472     2.459
    42   1 H        0.926     0.073     2.052     2.240

molecular dipole:
                 x           y           z       tot (Debye)
 q only:       -3.680      -0.653      -0.006
   full:       -3.886      -0.981       0.155      10.194

 projected vibrational frequencies (cm⁻¹)
eigval :       -0.00    -0.00    -0.00    -0.00     0.00     0.00
eigval :      -13.72    25.80    30.02    44.58    78.33    80.81
eigval :       99.07   119.47   135.96   165.91   172.34   189.15
eigval :      208.45   210.63   233.55   243.23   249.27   284.76
eigval :      319.38   340.01   384.11   394.30   402.68   417.09
eigval :      436.07   450.34   466.02   472.55   478.40   493.13
eigval :      496.97   503.15   505.10   519.17   553.22   578.57
eigval :      584.61   599.75   618.20   635.66   653.77   661.90
eigval :      679.26   687.00   694.39   734.74   758.36   774.04
eigval :      784.01   789.46   803.00   817.42   833.61   840.00
eigval :      853.28   866.77   875.78   884.29   889.24   910.06
eigval :      915.71   918.43   921.99   927.21   939.52   995.18
eigval :     1034.74  1092.31  1109.28  1118.18  1137.67  1159.58
eigval :     1165.37  1178.04  1179.92  1196.30  1205.54  1217.31
eigval :     1223.36  1235.29  1256.73  1269.17  1299.29  1311.99
eigval :     1321.25  1335.36  1351.66  1360.38  1385.09  1390.59
eigval :     1408.46  1412.93  1417.72  1448.99  1466.15  1484.00
eigval :     1496.74  1523.49  1534.68  1541.05  1560.51  1575.08
eigval :     1594.13  1600.88  1603.38  2329.75  2362.63  3054.24
eigval :     3067.02  3069.06  3070.69  3074.08  3075.06  3079.97
eigval :     3085.22  3086.40  3091.08  3101.50  3106.49  3130.31

   temp. (K)  partition function   enthalpy   heat capacity  entropy
                                   cal/mol     cal/K/mol   cal/K/mol   J/K/mol
 298.15  VIB  0.763E+09            12429.362     80.467     75.294
         ROT  0.197E+08              888.752      2.981     36.360
         INT  0.150E+17            13318.115     83.448    111.654
         TR   0.695E+28             1481.254      4.968     43.617
         TOT                       14799.3686    88.4164   155.2715   649.6560

       T/K    H(0)-H(T)+PV         H(T)/Eh          T*S/Eh         G(T)/Eh
   ------------------------------------------------------------------------
    298.15    0.235843E-01    0.323455E+00    0.737745E-01    0.249680E+00
   ------------------------------------------------------------------------

         :::::::::::::::::::::::::::::::::::::::::::::::::::::
         ::                  THERMODYNAMIC                  ::
         :::::::::::::::::::::::::::::::::::::::::::::::::::::
         :: total free energy         -72.597142159071 Eh   ::
         ::.................................................::
         :: total energy              -72.846822652378 Eh   ::
         :: zero point energy           0.299870707637 Eh   ::
         :: G(RRHO) w/o ZPVE           -0.050190214330 Eh   ::
         :: G(RRHO) contrib.            0.249680493307 Eh   ::
         :::::::::::::::::::::::::::::::::::::::::::::::::::::

           -------------------------------------------------
          | TOTAL ENERGY              -72.846822652378 Eh   |
          | TOTAL ENTHALPY            -72.523367649599 Eh   |
          | TOTAL FREE ENERGY         -72.597142159071 Eh   |
          | GRADIENT NORM               0.000112033939 Eh/α |
          | HOMO-LUMO GAP               1.202062319785 eV   |
           -------------------------------------------------

 * finished run on 2025/08/24 at 14:19:55.508
