   * xtb version 6.7.1 (edcfbbe) compiled by 'albert@albert-system' on 2024-07-22

   ID    Z sym.   atoms
    1    7 N      1, 5
    2    6 C      2-4, 6-28
    3    9 F      29
    4    1 H      30-42

          program call               : xtb data2507/toluene/2C/2C.xyz --gfn 2 --gbsa toluene --ohess vtight --parallel 40 --molden --ceasefiles --namespace data2507/toluene/2C/2C_toluene_S0_preOpt
      * Solvation model:               GBSA
        Solvent                        toluene
        Solvent mass                       9.2140E+01 g/mol
          :  Hamiltonian                  GFN2-xTB          :
 * total energy  :   -72.8300046 Eh     change       -0.3099672E-09 Eh
 * total energy  :   -72.8379027 Eh     change       -0.7898051E-02 Eh
 * total energy  :   -72.8395604 Eh     change       -0.1657744E-02 Eh
 * total energy  :   -72.8383584 Eh     change        0.1201997E-02 Eh
 * total energy  :   -72.8404865 Eh     change       -0.2128033E-02 Eh
 * total energy  :   -72.8409289 Eh     change       -0.4424326E-03 Eh
 * total energy  :   -72.8416450 Eh     change       -0.7160499E-03 Eh
 * total energy  :   -72.8422889 Eh     change       -0.6439580E-03 Eh
 * total energy  :   -72.8427849 Eh     change       -0.4959687E-03 Eh
 * total energy  :   -72.8432382 Eh     change       -0.4533239E-03 Eh
 * total energy  :   -72.8467097 Eh     change       -0.5823219E-06 Eh
 * total energy  :   -72.8467103 Eh     change       -0.6432070E-06 Eh
 * total energy  :   -72.8467109 Eh     change       -0.5701547E-06 Eh
 * total energy  :   -72.8467116 Eh     change       -0.7243950E-06 Eh
 * total energy  :   -72.8467118 Eh     change       -0.2056624E-06 Eh
 * total energy  :   -72.8467118 Eh     change       -0.2047308E-07 Eh
 * total energy  :   -72.8467120 Eh     change       -0.1927164E-06 Eh
 * total energy  :   -72.8467122 Eh     change       -0.1613439E-06 Eh
 * total energy  :   -72.8467123 Eh     change       -0.9264774E-07 Eh
   *** GEOMETRY OPTIMIZATION CONVERGED AFTER 67 ITERATIONS ***

 final structure:
================
42
 xtb: 6.7.1 (edcfbbe)
N            6.89832478497796        1.33581523969859        2.16103589635747
C            6.73302773341596        0.58969793388920        1.30333760636656
C            6.63906041582827       -0.34472381421760        0.25092360260672
C            7.88854236611233       -0.92681537586675       -0.06924723682711
N            8.90273753934880       -1.39748050510808       -0.32669451173870
C            5.53006584047678       -0.71574434551568       -0.44584576086494
C            4.17764506634299       -0.26734955179568       -0.29381744981032
C            3.74240939353869        0.66843710060003        0.65874104936249
C            2.42246071752853        1.04671982359894        0.73843165554295
C            1.45691341925538        0.50345954057836       -0.11614690689694
C            0.06103947338695        0.94311662928962       -0.03785898373295
C           -0.19602065049782        2.31468929028895       -0.03700579563061
C           -1.48350489114320        2.80398783316084       -0.04818263936897
C           -2.57693190444640        1.93417006232822       -0.04679471059559
C           -3.91934208231598        2.41058878669953       -0.08156135051272
C           -4.96832104524482        1.55512444258755       -0.06995451939518
C           -4.76805921743877        0.14455200175266       -0.01309254828492
C           -5.83575590379695       -0.75538821619894        0.00531424189122
C           -5.61123522625059       -2.11895528963516        0.06775630666924
C           -4.32197792468276       -2.61686876279142        0.11677864686611
C           -3.22437064124561       -1.75373358128916        0.09731138615960
C           -1.88280716733848       -2.22699466413989        0.17004664173593
C           -0.83036161785584       -1.37564482144567        0.13389276880162
C           -1.01465328511039        0.03401929502684        0.01144301901232
C           -2.34168182860801        0.53689919566933       -0.00280939311048
C           -3.44219081305343       -0.35588565079114        0.02615335456439
C            1.86667092797913       -0.42435414828401       -1.07697327223217
C            3.19017427527892       -0.78601688557319       -1.15138164589552
F            3.55352404877525       -1.67894012510285       -2.10164438178705
H            5.68979580883804       -1.45259077538743       -1.22529881630938
H            4.45912797015431        1.09406891251774        1.34200340065414
H            2.11897428715534        1.75951452718538        1.48962441606934
H            0.63722914484478        3.00147882643799       -0.06842895022990
H           -1.65631067821189        3.87014448069242       -0.06886412274934
H           -4.07827656393643        3.47897725749351       -0.11816723254044
H           -5.98350869450922        1.92490095366955       -0.09848698512172
H           -6.84622379731293       -0.37390587629808       -0.03050886918669
H           -6.44973007451808       -2.80034068400690        0.08080527504756
H           -4.15316819534452       -3.68288740114345        0.17133899855709
H           -1.72202264369843       -3.29171713015750        0.26443348171162
H            0.17455034707569       -1.76056958923882        0.22002580209241
H            1.16418028624334       -0.84345293918358       -1.78063146724630

          :  Hamiltonian                  GFN2-xTB          :
         :: gradient norm              0.000192623182 Eh/a0 ::
         :: HOMO-LUMO gap              1.208245696141 eV    ::
         :: SCC energy               -74.231318705167 Eh    ::
         :: -> dispersion             -0.055726876361 Eh    ::
         :: -> Gsolv                  -0.035735314922 Eh    ::
         :: repulsion energy           1.384606431716 Eh    ::

    * Orbital Energies and Occupations

         #    Occupation            Energy/Eh            Energy/eV
      -------------------------------------------------------------
         1        2.0000           -0.8398119             -22.8524
       ...           ...                  ...                  ...
        55        2.0000           -0.4495666             -12.2333
        56        2.0000           -0.4455286             -12.1234
        57        2.0000           -0.4433873             -12.0652
        58        2.0000           -0.4403302             -11.9820
        59        2.0000           -0.4396161             -11.9626
        60        2.0000           -0.4337699             -11.8035
        61        2.0000           -0.4281163             -11.6496
        62        2.0000           -0.4180276             -11.3751
        63        2.0000           -0.4153945             -11.3035
        64        2.0000           -0.4131233             -11.2417
        65        2.0000           -0.4105067             -11.1705
        66        2.0000           -0.3987633             -10.8509
        67        2.0000           -0.3723675             -10.1326 (HOMO)
        68                         -0.3279652              -8.9244 (LUMO)
        69                         -0.2854855              -7.7685
        70                         -0.2530109              -6.8848
        71                         -0.2508621              -6.8263
        72                         -0.2494500              -6.7879
        73                         -0.2367372              -6.4419
        74                         -0.2282127              -6.2100
        75                         -0.2275022              -6.1907
        76                         -0.2089058              -5.6846
        77                         -0.2062860              -5.6133
        78                         -0.1875441              -5.1033
       ...                                ...                  ...
       129                          1.1489962              31.2658
      -------------------------------------------------------------
                  HL-Gap            0.0444023 Eh            1.2082 eV

     #   Z          covCN         q      C6AA      α(0)
     1   7 N        0.911    -0.257    26.674     7.470
     2   6 C        1.926     0.130    27.905     8.531
     3   6 C        2.944     0.011    27.763     8.642
     4   6 C        1.939     0.125    28.027     8.549
     5   7 N        0.911    -0.252    26.562     7.454
     6   6 C        2.919     0.007    27.859     8.655
     7   6 C        2.965    -0.002    28.064     8.689
     8   6 C        2.922    -0.025    28.633     8.775
     9   6 C        2.919    -0.033    28.830     8.805
    10   6 C        2.980     0.034    27.232     8.560
    11   6 C        2.976     0.003    27.960     8.674
    12   6 C        2.921    -0.032    28.810     8.802
    13   6 C        2.918    -0.036    28.891     8.814
    14   6 C        2.982     0.015    27.677     8.630
    15   6 C        2.913    -0.035    28.883     8.813
    16   6 C        2.913    -0.033    28.822     8.803
    17   6 C        2.982     0.013    27.728     8.638
    18   6 C        2.920    -0.034    28.856     8.809
    19   6 C        2.913    -0.029    28.729     8.789
    20   6 C        2.920    -0.035    28.862     8.810
    21   6 C        2.982     0.012    27.736     8.639
    22   6 C        2.913    -0.034    28.835     8.805
    23   6 C        2.912    -0.038    28.936     8.821
    24   6 C        2.981     0.011    27.755     8.642
    25   6 C        2.994     0.004    27.915     8.667
    26   6 C        2.997     0.004    27.932     8.669
    27   6 C        2.918    -0.049    29.208     8.862
    28   6 C        2.790     0.169    24.344     8.082
    29   9 F        0.787    -0.235    11.601     4.023
    30   1 H        0.925     0.073     2.058     2.243
    31   1 H        0.926     0.062     2.179     2.308
    32   1 H        0.926     0.067     2.121     2.277
    33   1 H        0.926     0.042     2.422     2.434
    34   1 H        0.926     0.042     2.418     2.432
    35   1 H        0.926     0.039     2.463     2.454
    36   1 H        0.926     0.038     2.470     2.458
    37   1 H        0.926     0.037     2.483     2.464
    38   1 H        0.926     0.036     2.508     2.476
    39   1 H        0.926     0.037     2.492     2.469
    40   1 H        0.926     0.037     2.483     2.464
    41   1 H        0.926     0.037     2.494     2.469
    42   1 H        0.926     0.074     2.042     2.234

molecular dipole:
                 x           y           z       tot (Debye)
 q only:       -3.734       0.556      -0.078
   full:       -4.044       0.403      -0.316      10.362

 projected vibrational frequencies (cm⁻¹)
eigval :       -0.00    -0.00    -0.00     0.00     0.00     0.00
eigval :       13.31    22.34    28.11    46.75    67.99    79.14
eigval :       96.70   117.64   129.75   156.55   166.42   195.79
eigval :      207.25   227.60   229.48   240.95   250.96   289.21
eigval :      313.78   329.92   384.33   392.54   401.79   416.41
eigval :      426.28   455.46   466.29   471.55   476.17   489.43
eigval :      496.57   501.09   505.11   522.48   549.42   577.23
eigval :      590.44   602.34   610.46   633.22   653.03   663.07
eigval :      678.85   683.80   694.64   737.46   757.65   772.84
eigval :      784.82   791.87   801.52   817.61   832.74   836.35
eigval :      853.16   864.91   876.87   887.47   893.46   909.32
eigval :      914.30   920.69   924.08   925.59   933.57   995.17
eigval :     1032.37  1089.88  1108.63  1120.05  1140.08  1160.19
eigval :     1165.83  1176.30  1181.93  1195.63  1205.63  1215.25
eigval :     1222.11  1235.49  1258.79  1265.06  1297.25  1311.36
eigval :     1321.74  1333.53  1354.57  1359.94  1384.51  1389.48
eigval :     1409.52  1413.08  1416.54  1448.97  1465.86  1483.91
eigval :     1496.09  1522.89  1537.25  1539.16  1560.50  1575.16
eigval :     1594.28  1601.04  1603.35  2329.96  2362.67  3055.01
eigval :     3067.01  3068.58  3070.05  3075.00  3075.73  3079.73
eigval :     3085.48  3087.32  3090.47  3100.16  3105.82  3128.07

   temp. (K)  partition function   enthalpy   heat capacity  entropy
                                   cal/mol     cal/K/mol   cal/K/mol   J/K/mol
 298.15  VIB  0.116E+10            12479.392     80.442     75.937
         ROT  0.190E+08              888.752      2.981     36.291
         INT  0.220E+17            13368.145     83.423    112.228
         TR   0.695E+28             1481.254      4.968     43.617
         TOT                       14849.3985    88.3915   155.8450   652.0554

       T/K    H(0)-H(T)+PV         H(T)/Eh          T*S/Eh         G(T)/Eh
   ------------------------------------------------------------------------
    298.15    0.236640E-01    0.323374E+00    0.740470E-01    0.249327E+00
   ------------------------------------------------------------------------

         :::::::::::::::::::::::::::::::::::::::::::::::::::::
         ::                  THERMODYNAMIC                  ::
         :::::::::::::::::::::::::::::::::::::::::::::::::::::
         :: total free energy         -72.597385552303 Eh   ::
         ::.................................................::
         :: total energy              -72.846712274678 Eh   ::
         :: zero point energy           0.299709681333 Eh   ::
         :: G(RRHO) w/o ZPVE           -0.050382958958 Eh   ::
         :: G(RRHO) contrib.            0.249326722375 Eh   ::
         :::::::::::::::::::::::::::::::::::::::::::::::::::::

           -------------------------------------------------
          | TOTAL ENERGY              -72.846712274678 Eh   |
          | TOTAL ENTHALPY            -72.523338570582 Eh   |
          | TOTAL FREE ENERGY         -72.597385552303 Eh   |
          | GRADIENT NORM               0.000192687007 Eh/α |
          | HOMO-LUMO GAP               1.208246791394 eV   |
           -------------------------------------------------

 * finished run on 2025/08/24 at 14:18:58.924
