   * xtb version 6.7.1 (edcfbbe) compiled by 'albert@albert-system' on 2024-07-22

   ID    Z sym.   atoms
    1    7 N      1, 5
    2    6 C      2-4, 6-28
    3    9 F      29
    4    1 H      30-42

          program call               : xtb data2507/toluene/2C/2C_toluene_S0_finalOpt.xtbopt.xyz --gfn 2 --uhf 2 --gbsa toluene --ohess vtight --parallel 40 --molden --ceasefiles --namespace data2507/toluene/2C/2C_toluene_T1_preOpt
      * Solvation model:               GBSA
        Solvent                        toluene
        Solvent mass                       9.2140E+01 g/mol
          :  Hamiltonian                  GFN2-xTB          :
 * total energy  :   -72.7801098 Eh     change       -0.3661611E-08 Eh
 * total energy  :   -72.7848745 Eh     change       -0.4764694E-02 Eh
 * total energy  :   -72.7863225 Eh     change       -0.1448040E-02 Eh
 * total energy  :   -72.7864833 Eh     change       -0.1607452E-03 Eh
 * total energy  :   -72.7866762 Eh     change       -0.1929295E-03 Eh
 * total energy  :   -72.7868957 Eh     change       -0.2195261E-03 Eh
 * total energy  :   -72.7869225 Eh     change       -0.2674319E-04 Eh
 * total energy  :   -72.7871165 Eh     change       -0.1940658E-03 Eh
 * total energy  :   -72.7871937 Eh     change       -0.7718200E-04 Eh
 * total energy  :   -72.7872739 Eh     change       -0.8017380E-04 Eh
 * total energy  :   -72.7878675 Eh     change       -0.2290733E-05 Eh
 * total energy  :   -72.7878693 Eh     change       -0.1834725E-05 Eh
 * total energy  :   -72.7878713 Eh     change       -0.2012607E-05 Eh
 * total energy  :   -72.7878740 Eh     change       -0.2702825E-05 Eh
 * total energy  :   -72.7878751 Eh     change       -0.1036402E-05 Eh
 * total energy  :   -72.7878755 Eh     change       -0.4139318E-06 Eh
 * total energy  :   -72.7878757 Eh     change       -0.2355734E-06 Eh
 * total energy  :   -72.7878760 Eh     change       -0.2413665E-06 Eh
 * total energy  :   -72.7878760 Eh     change       -0.5333420E-07 Eh
   *** GEOMETRY OPTIMIZATION CONVERGED AFTER 44 ITERATIONS ***

 final structure:
================
42
 xtb: 6.7.1 (edcfbbe)
N            4.90228620745670        3.09193039084425       -1.20204893155968
C            5.22557596757655        2.06523238751991       -0.78433783395515
C            5.71098011788335        0.85926914759905       -0.27445098756164
C            7.10602381670158        0.84001152043446       -0.14736575291462
N            8.25414770059377        0.82404024680812       -0.04508357873853
C            4.97801063770530       -0.26216116044586        0.11185336733017
C            3.58853485000602       -0.45678234418493        0.05920175627621
C            2.64835628426950        0.46434898601288       -0.47449590894883
C            1.30686831256618        0.21784946826469       -0.46093760256809
C            0.76710778463453       -0.98332939810855        0.06474488838730
C           -0.63752372939596       -1.24796133391767        0.06121572074826
C           -1.10336773758005       -2.56014813217644       -0.18604542944811
C           -2.41737144053040       -2.82019650286219       -0.43853338109302
C           -3.39100579525677       -1.78366293371722       -0.42165646400807
C           -4.74026102776716       -2.02648137673486       -0.72079388868894
C           -5.67080779315737       -1.01525155189897       -0.67334386084874
C           -5.30061639286324        0.28969920521851       -0.28494523640870
C           -6.23873713785409        1.33920372613560       -0.20173150428818
C           -5.85307982058281        2.60649766676802        0.20017448929115
C           -4.54100111384760        2.86566207120879        0.54315824603317
C           -3.56362058365882        1.84772870622459        0.47345657399854
C           -2.22591126379549        2.06202537078990        0.85422489381824
C           -1.28722989126565        1.05928565007487        0.75183503803527
C           -1.61609077172650       -0.20340997470350        0.22931238751981
C           -2.97793040276190       -0.47576240707673       -0.05971124276460
C           -3.94482263469451        0.55246643269672        0.04057581326747
C            1.69219375564931       -1.94307921123174        0.54275256171447
C            3.02448683464886       -1.66714144403243        0.55066995789556
F            3.86524595297984       -2.60083778225122        1.07321670421577
H            5.56895828231748       -1.08005158384072        0.50686943503011
H            3.01788715070806        1.37712371461559       -0.91261129087918
H            0.64164048246511        0.92771375121236       -0.92803914409499
H           -0.38197531241824       -3.35861843563078       -0.26570603828543
H           -2.73570458344917       -3.82207205303397       -0.68616215138898
H           -5.04117444233453       -3.02817103981677       -0.99096966043395
H           -6.70290024390947       -1.21204362070176       -0.92275995948004
H           -7.26956095263088        1.13866237834436       -0.45301407296840
H           -6.58741340069807        3.39645387085798        0.25509832963695
H           -4.24475162928114        3.85069993294828        0.87136413442499
H           -1.93926133656541        3.02896017921233        1.24038762048744
H           -0.28352316588437        1.23951069772970        1.10458241197762
H            1.35460159942994       -2.87332286299622        0.97174365098329

          :  Hamiltonian                  GFN2-xTB          :
         :: gradient norm              0.000150598776 Eh/a0 ::
         :: HOMO-LUMO gap              0.630799171409 eV    ::
         :: SCC energy               -74.153067266212 Eh    ::
         :: -> dispersion             -0.055570536383 Eh    ::
         :: -> Gsolv                  -0.046660199317 Eh    ::
         :: repulsion energy           1.365191242113 Eh    ::

    * Orbital Energies and Occupations

         #    Occupation            Energy/Eh            Energy/eV
      -------------------------------------------------------------
         1        2.0000           -0.8271489             -22.5079
       ...           ...                  ...                  ...
        56        2.0000           -0.4479292             -12.1888
        57        2.0000           -0.4418749             -12.0240
        58        2.0000           -0.4360990             -11.8669
        59        2.0000           -0.4303941             -11.7116
        60        2.0000           -0.4281754             -11.6512
        61        2.0000           -0.4260264             -11.5928
        62        2.0000           -0.4254276             -11.5765
        63        2.0000           -0.4223155             -11.4918
        64        2.0000           -0.4207509             -11.4492
        65        2.0000           -0.4147879             -11.2870
        66        2.0000           -0.4007539             -10.9051
        67        1.0000           -0.3780427             -10.2871
        68        1.0000           -0.3202981              -8.7158 (HOMO)
        69        0.0000           -0.2971165              -8.0850 (LUMO)
        70                         -0.2602449              -7.0816
        71                         -0.2457368              -6.6868
        72                         -0.2393698              -6.5136
        73                         -0.2378528              -6.4723
        74                         -0.2296085              -6.2480
        75                         -0.2135021              -5.8097
        76                         -0.2074066              -5.6438
        77                         -0.1945097              -5.2929
        78                         -0.1885792              -5.1315
        79                         -0.1498980              -4.0789
       ...                                ...                  ...
       129                          1.1616735              31.6107
      -------------------------------------------------------------
                  HL-Gap            0.0231815 Eh            0.6308 eV

     #   Z          covCN         q      C6AA      α(0)
     1   7 N        0.911    -0.310    27.984     7.651
     2   6 C        1.932     0.122    28.090     8.559
     3   6 C        2.944    -0.011    28.298     8.725
     4   6 C        1.943     0.117    28.192     8.575
     5   7 N        0.911    -0.305    27.849     7.632
     6   6 C        2.916    -0.024    28.597     8.769
     7   6 C        2.961    -0.000    28.037     8.685
     8   6 C        2.918    -0.039    28.979     8.828
     9   6 C        2.915    -0.033    28.821     8.803
    10   6 C        2.975     0.012    27.745     8.640
    11   6 C        2.971     0.026    27.411     8.588
    12   6 C        2.914    -0.030    28.750     8.792
    13   6 C        2.913    -0.022    28.550     8.762
    14   6 C        2.980     0.020    27.551     8.610
    15   6 C        2.914    -0.025    28.627     8.774
    16   6 C        2.915    -0.026    28.642     8.776
    17   6 C        2.979     0.022    27.512     8.604
    18   6 C        2.919    -0.021    28.525     8.758
    19   6 C        2.909    -0.023    28.572     8.765
    20   6 C        2.918    -0.021    28.540     8.761
    21   6 C        2.979     0.023    27.487     8.600
    22   6 C        2.915    -0.026    28.650     8.777
    23   6 C        2.914    -0.024    28.606     8.770
    24   6 C        2.977     0.016    27.658     8.627
    25   6 C        2.993     0.010    27.794     8.648
    26   6 C        2.997     0.008    27.823     8.653
    27   6 C        2.915    -0.052    29.288     8.874
    28   6 C        2.785     0.157    24.589     8.122
    29   9 F        0.787    -0.253    11.792     4.056
    30   1 H        0.925     0.042     2.416     2.431
    31   1 H        0.926     0.049     2.327     2.386
    32   1 H        0.926     0.061     2.185     2.311
    33   1 H        0.926     0.054     2.272     2.357
    34   1 H        0.926     0.057     2.234     2.337
    35   1 H        0.926     0.055     2.263     2.353
    36   1 H        0.926     0.055     2.260     2.351
    37   1 H        0.926     0.055     2.253     2.347
    38   1 H        0.926     0.051     2.302     2.373
    39   1 H        0.926     0.054     2.266     2.354
    40   1 H        0.926     0.055     2.264     2.353
    41   1 H        0.926     0.056     2.246     2.343
    42   1 H        0.926     0.067     2.124     2.279

molecular dipole:
                 x           y           z       tot (Debye)
 q only:       -8.407      -0.947       0.164
   full:       -8.505      -1.311       0.286      21.886

 projected vibrational frequencies (cm⁻¹)
eigval :       -0.00    -0.00     0.00     0.00     0.00     0.00
eigval :       19.37    24.44    31.61    45.43    78.14    84.04
eigval :      106.70   119.20   133.47   163.28   172.91   184.94
eigval :      204.50   206.25   235.50   244.73   255.89   271.80
eigval :      315.60   343.55   378.82   392.65   399.21   409.92
eigval :      430.56   436.14   441.58   450.15   457.46   489.50
eigval :      491.13   501.20   503.74   513.83   550.01   558.76
eigval :      561.20   587.08   598.16   626.98   634.87   657.18
eigval :      665.74   674.11   689.93   729.54   741.95   760.76
eigval :      781.77   784.40   791.10   801.51   818.14   827.21
eigval :      831.36   839.21   860.83   868.21   871.12   897.78
eigval :      899.21   901.08   915.94   919.31   943.73   991.22
eigval :     1018.14  1082.20  1106.63  1117.92  1133.86  1146.93
eigval :     1166.38  1170.86  1189.13  1191.33  1200.27  1210.80
eigval :     1224.01  1232.16  1236.45  1276.58  1293.34  1318.14
eigval :     1325.95  1329.74  1345.18  1349.29  1363.41  1369.17
eigval :     1379.00  1392.65  1416.95  1434.21  1443.11  1450.90
eigval :     1462.41  1471.44  1483.50  1495.06  1522.34  1523.54
eigval :     1540.60  1555.51  1583.47  2270.89  2315.91  3059.26
eigval :     3078.89  3080.42  3083.08  3084.04  3087.82  3090.71
eigval :     3094.00  3095.54  3098.45  3099.14  3106.93  3127.68

   temp. (K)  partition function   enthalpy   heat capacity  entropy
                                   cal/mol     cal/K/mol   cal/K/mol   J/K/mol
 298.15  VIB  0.605E+09            12591.040     81.734     75.828
         ROT  0.199E+08              888.752      2.981     36.374
         INT  0.120E+17            13479.793     84.714    112.202
         TR   0.695E+28             1481.254      4.968     43.617
         TOT                       14961.0464    89.6826   155.8193   651.9480

       T/K    H(0)-H(T)+PV         H(T)/Eh          T*S/Eh         G(T)/Eh
   ------------------------------------------------------------------------
    298.15    0.238419E-01    0.321011E+00    0.740348E-01    0.246976E+00
   ------------------------------------------------------------------------

         :::::::::::::::::::::::::::::::::::::::::::::::::::::
         ::                  THERMODYNAMIC                  ::
         :::::::::::::::::::::::::::::::::::::::::::::::::::::
         :: total free energy         -72.540900234014 Eh   ::
         ::.................................................::
         :: total energy              -72.787876023120 Eh   ::
         :: zero point energy           0.297168623262 Eh   ::
         :: G(RRHO) w/o ZPVE           -0.050192834156 Eh   ::
         :: G(RRHO) contrib.            0.246975789106 Eh   ::
         :::::::::::::::::::::::::::::::::::::::::::::::::::::

           -------------------------------------------------
          | TOTAL ENERGY              -72.787876023120 Eh   |
          | TOTAL ENTHALPY            -72.466865454777 Eh   |
          | TOTAL FREE ENERGY         -72.540900234014 Eh   |
          | GRADIENT NORM               0.000150537107 Eh/α |
          | HOMO-LUMO GAP               0.630801447608 eV   |
           -------------------------------------------------

 * finished run on 2025/08/24 at 14:19:58.456
