   * xtb version 6.7.1 (edcfbbe) compiled by 'albert@albert-system' on 2024-07-22

   ID    Z sym.   atoms
    1    7 N      1, 5
    2    6 C      2-4, 6-28
    3    9 F      29
    4    1 H      30-42

          program call               : xtb data2507/toluene/2C/2C_toluene_T1_crest.xyz --gfn 2 --uhf 2 --gbsa toluene --ohess vtight --parallel 40 --molden --ceasefiles --namespace data2507/toluene/2C/2C_toluene_T1_finalOpt
      * Solvation model:               GBSA
        Solvent                        toluene
        Solvent mass                       9.2140E+01 g/mol
          :  Hamiltonian                  GFN2-xTB          :
 * total energy  :   -72.7877444 Eh     change       -0.1663480E-07 Eh
 * total energy  :   -72.7878328 Eh     change       -0.8839529E-04 Eh
 * total energy  :   -72.7878148 Eh     change        0.1804647E-04 Eh
 * total energy  :   -72.7878599 Eh     change       -0.4512173E-04 Eh
 * total energy  :   -72.7878497 Eh     change        0.1019034E-04 Eh
 * total energy  :   -72.7878665 Eh     change       -0.1676804E-04 Eh
 * total energy  :   -72.7878672 Eh     change       -0.7000530E-06 Eh
 * total energy  :   -72.7878652 Eh     change        0.1954431E-05 Eh
 * total energy  :   -72.7878683 Eh     change       -0.3100292E-05 Eh
 * total energy  :   -72.7878689 Eh     change       -0.5601455E-06 Eh
 * total energy  :   -72.7878696 Eh     change       -0.1958769E-06 Eh
 * total energy  :   -72.7878698 Eh     change       -0.1756886E-06 Eh
 * total energy  :   -72.7878701 Eh     change       -0.2649451E-06 Eh
 * total energy  :   -72.7878703 Eh     change       -0.2677338E-06 Eh
 * total energy  :   -72.7878705 Eh     change       -0.1795498E-06 Eh
 * total energy  :   -72.7878706 Eh     change       -0.1140567E-06 Eh
 * total energy  :   -72.7878707 Eh     change       -0.1066092E-06 Eh
 * total energy  :   -72.7878708 Eh     change       -0.1054188E-06 Eh
 * total energy  :   -72.7878709 Eh     change       -0.8063672E-07 Eh
   *** GEOMETRY OPTIMIZATION CONVERGED AFTER 20 ITERATIONS ***

 final structure:
================
42
 xtb: 6.7.1 (edcfbbe)
N            4.91223254452442        3.11887802601550       -1.12410527538818
C            5.23357592752328        2.08574403403339       -0.72096624029184
C            5.71679770607019        0.87071695490984       -0.23089121134744
C            7.11160520919081        0.84780337301927       -0.10173575066678
N            8.25941784172610        0.82800981930581        0.00315824719270
C            4.98229179202563       -0.25737108730882        0.13241475910182
C            3.59276451665315       -0.45021740653244        0.07436442529844
C            2.65267446501924        0.48463513590754       -0.43510854679605
C            1.31139679874238        0.23639809494452       -0.43137489068730
C            0.77205578926439       -0.97985282359241        0.05868634544438
C           -0.63194891149295       -1.24757860583557        0.04112760045750
C           -1.09276735042519       -2.55322390272202       -0.24679240692174
C           -2.40479027807297       -2.80935165390689       -0.51320125303321
C           -3.38160712155350       -1.77660030523352       -0.46954935147645
C           -4.72873681440089       -2.01423806795792       -0.78199386615996
C           -5.66280469889008       -1.00787050684497       -0.70725559284079
C           -5.29868708326974        0.28520871448722       -0.27583407847059
C           -6.24105869288397        1.32800068120176       -0.16185087146348
C           -5.86167481051803        2.58287134382945        0.28268924709776
C           -4.55158228603217        2.83576279708562        0.63769795236146
C           -3.57001002723127        1.82434069419487        0.53800413256529
C           -2.23412183553554        2.03148161627586        0.92898732934127
C           -1.29134483542300        1.03597594551049        0.79770909801121
C           -1.61425241030969       -0.21129634980905        0.23597541689022
C           -2.97415816634134       -0.47908146338205       -0.06615650461946
C           -3.94494069739138        0.54227718147679        0.06248998124726
C            1.69693364847684       -1.95048732076767        0.51445062167938
C            3.02885309811036       -1.67335134231944        0.53343604169175
F            3.86923918884262       -2.61891897120690        1.03462052872685
H            5.57225143422326       -1.08381648527036        0.51080026022349
H            3.02212937697576        1.40967067007008       -0.84671560708451
H            0.64630525304296        0.95839901677856       -0.87972953188056
H           -0.36860161945748       -3.34693268971222       -0.34647254557720
H           -2.71895788843004       -3.80419623338155       -0.79243694259504
H           -5.02527134176628       -3.00802701976238       -1.08427229721326
H           -6.69319462624667       -1.20002754107122       -0.96710261193388
H           -7.27033769093063        1.13167889273742       -0.42261544774069
H           -6.59940834662344        3.36762027400091        0.36135159952802
H           -4.26031003162435        3.81037870047987        0.99969554575517
H           -1.95212080783187        2.98701767573326        1.34575627652426
H           -0.28915605316351        1.20903230065356        1.15826152863315
H            1.35904322613436       -2.89193830233423        0.91804458611708

          :  Hamiltonian                  GFN2-xTB          :
         :: gradient norm              0.000052798033 Eh/a0 ::
         :: HOMO-LUMO gap              0.629797729364 eV    ::
         :: SCC energy               -74.153069193035 Eh    ::
         :: -> dispersion             -0.055565340693 Eh    ::
         :: -> Gsolv                  -0.046661506794 Eh    ::
         :: repulsion energy           1.365198271903 Eh    ::

    * Orbital Energies and Occupations

         #    Occupation            Energy/Eh            Energy/eV
      -------------------------------------------------------------
         1        2.0000           -0.8271663             -22.5083
       ...           ...                  ...                  ...
        56        2.0000           -0.4479374             -12.1890
        57        2.0000           -0.4418778             -12.0241
        58        2.0000           -0.4361116             -11.8672
        59        2.0000           -0.4303897             -11.7115
        60        2.0000           -0.4281686             -11.6511
        61        2.0000           -0.4260531             -11.5935
        62        2.0000           -0.4254287             -11.5765
        63        2.0000           -0.4223248             -11.4920
        64        2.0000           -0.4207496             -11.4492
        65        2.0000           -0.4148021             -11.2873
        66        2.0000           -0.4007437             -10.9048
        67        1.0000           -0.3780593             -10.2875
        68        1.0000           -0.3202802              -8.7153 (HOMO)
        69        0.0000           -0.2971354              -8.0855 (LUMO)
        70                         -0.2602466              -7.0817
        71                         -0.2457464              -6.6871
        72                         -0.2393732              -6.5137
        73                         -0.2378241              -6.4715
        74                         -0.2295815              -6.2472
        75                         -0.2135063              -5.8098
        76                         -0.2073967              -5.6436
        77                         -0.1945412              -5.2937
        78                         -0.1886036              -5.1322
        79                         -0.1498985              -4.0789
       ...                                ...                  ...
       129                          1.1617567              31.6130
      -------------------------------------------------------------
                  HL-Gap            0.0231449 Eh            0.6298 eV

     #   Z          covCN         q      C6AA      α(0)
     1   7 N        0.911    -0.310    27.985     7.651
     2   6 C        1.932     0.122    28.090     8.559
     3   6 C        2.944    -0.011    28.298     8.725
     4   6 C        1.943     0.117    28.192     8.575
     5   7 N        0.911    -0.305    27.849     7.632
     6   6 C        2.916    -0.024    28.597     8.769
     7   6 C        2.961    -0.000    28.037     8.685
     8   6 C        2.918    -0.039    28.979     8.828
     9   6 C        2.915    -0.033    28.821     8.803
    10   6 C        2.975     0.012    27.745     8.640
    11   6 C        2.971     0.026    27.410     8.588
    12   6 C        2.914    -0.030    28.750     8.792
    13   6 C        2.913    -0.022    28.550     8.762
    14   6 C        2.980     0.020    27.551     8.610
    15   6 C        2.914    -0.025    28.627     8.774
    16   6 C        2.915    -0.026    28.642     8.776
    17   6 C        2.979     0.022    27.512     8.604
    18   6 C        2.919    -0.021    28.525     8.758
    19   6 C        2.909    -0.023    28.572     8.765
    20   6 C        2.918    -0.021    28.540     8.761
    21   6 C        2.979     0.023    27.487     8.600
    22   6 C        2.915    -0.026    28.650     8.777
    23   6 C        2.914    -0.024    28.606     8.770
    24   6 C        2.977     0.016    27.657     8.627
    25   6 C        2.993     0.010    27.794     8.648
    26   6 C        2.997     0.008    27.823     8.653
    27   6 C        2.915    -0.052    29.288     8.874
    28   6 C        2.785     0.157    24.589     8.122
    29   9 F        0.787    -0.253    11.792     4.056
    30   1 H        0.925     0.042     2.416     2.431
    31   1 H        0.926     0.049     2.327     2.386
    32   1 H        0.926     0.061     2.185     2.312
    33   1 H        0.926     0.054     2.272     2.357
    34   1 H        0.926     0.057     2.234     2.337
    35   1 H        0.926     0.055     2.263     2.353
    36   1 H        0.926     0.055     2.260     2.351
    37   1 H        0.926     0.055     2.253     2.347
    38   1 H        0.926     0.051     2.302     2.373
    39   1 H        0.926     0.054     2.266     2.354
    40   1 H        0.926     0.055     2.264     2.353
    41   1 H        0.926     0.056     2.246     2.343
    42   1 H        0.926     0.067     2.124     2.279

molecular dipole:
                 x           y           z       tot (Debye)
 q only:       -8.413      -0.958       0.136
   full:       -8.512      -1.324       0.252      21.905

 projected vibrational frequencies (cm⁻¹)
eigval :       -0.00    -0.00    -0.00     0.00     0.00     0.00
eigval :       20.33    23.72    31.25    49.65    79.58    83.61
eigval :      106.60   118.59   132.86   163.76   172.49   185.25
eigval :      204.22   206.45   234.92   244.28   255.51   271.08
eigval :      315.79   343.55   378.56   392.72   399.61   410.37
eigval :      430.51   436.30   441.16   450.07   457.07   489.35
eigval :      491.12   501.23   503.49   513.86   549.88   558.17
eigval :      560.88   587.00   597.97   626.90   634.82   657.33
eigval :      665.72   674.07   689.99   729.51   740.87   760.27
eigval :      781.88   784.48   792.07   801.38   817.93   822.73
eigval :      830.33   838.37   861.21   868.02   869.85   899.48
eigval :      899.77   903.93   917.05   920.89   943.85   991.14
eigval :     1018.20  1082.40  1106.73  1117.86  1133.97  1146.87
eigval :     1166.31  1170.81  1189.06  1191.47  1200.14  1210.82
eigval :     1223.87  1231.51  1236.33  1276.48  1293.24  1318.11
eigval :     1325.88  1329.60  1345.06  1349.26  1363.37  1369.05
eigval :     1378.93  1392.64  1416.72  1434.15  1443.00  1450.93
eigval :     1462.34  1471.38  1483.39  1495.00  1522.35  1523.46
eigval :     1540.49  1555.46  1583.38  2270.80  2315.93  3058.88
eigval :     3078.89  3080.69  3083.14  3083.86  3087.95  3090.61
eigval :     3093.48  3095.77  3098.46  3099.23  3107.28  3128.35

   temp. (K)  partition function   enthalpy   heat capacity  entropy
                                   cal/mol     cal/K/mol   cal/K/mol   J/K/mol
 298.15  VIB  0.556E+09            12588.447     81.829     75.818
         ROT  0.199E+08              888.752      2.981     36.375
         INT  0.110E+17            13477.200     84.810    112.193
         TR   0.695E+28             1481.254      4.968     43.617
         TOT                       14958.4537    89.7781   155.8104   651.9106

       T/K    H(0)-H(T)+PV         H(T)/Eh          T*S/Eh         G(T)/Eh
   ------------------------------------------------------------------------
    298.15    0.238378E-01    0.321002E+00    0.740305E-01    0.246971E+00
   ------------------------------------------------------------------------

         :::::::::::::::::::::::::::::::::::::::::::::::::::::
         ::                  THERMODYNAMIC                  ::
         :::::::::::::::::::::::::::::::::::::::::::::::::::::
         :: total free energy         -72.540899524870 Eh   ::
         ::.................................................::
         :: total energy              -72.787870919374 Eh   ::
         :: zero point energy           0.297164115897 Eh   ::
         :: G(RRHO) w/o ZPVE           -0.050192721394 Eh   ::
         :: G(RRHO) contrib.            0.246971394503 Eh   ::
         :::::::::::::::::::::::::::::::::::::::::::::::::::::

           -------------------------------------------------
          | TOTAL ENERGY              -72.787870919374 Eh   |
          | TOTAL ENTHALPY            -72.466868990122 Eh   |
          | TOTAL FREE ENERGY         -72.540899524870 Eh   |
          | GRADIENT NORM               0.000053293760 Eh/α |
          | HOMO-LUMO GAP               0.629803459283 eV   |
           -------------------------------------------------

 * finished run on 2025/08/24 at 14:20:55.809
