   * xtb version 6.7.1 (edcfbbe) compiled by 'albert@albert-system' on 2024-07-22

   ID    Z sym.   atoms
    1    8 O      1
    2   15 P      2
    3    6 C      3-18, 20-39
    4   14 Si     19
    5    1 H      40-68

          program call               : xtb data2507/gas/FTAT-FBO/FTAT-FBO_gas_S0_finalOpt.xtbopt.xyz --gfn 2 --spinpol --tblite --uhf 2 --ohess vtight --parallel 40 --molden --ceasefiles --namespace data2507/gas/FTAT-FBO/FTAT-FBO_gas_T1_preOpt
 * total energy  :  -100.0202989 Eh     change       -0.1505583E-08 Eh
 * total energy  :  -100.0228326 Eh     change       -0.2533689E-02 Eh
 * total energy  :  -100.0243155 Eh     change       -0.1482868E-02 Eh
 * total energy  :  -100.0237916 Eh     change        0.5238314E-03 Eh
 * total energy  :  -100.0271781 Eh     change       -0.3386494E-02 Eh
 * total energy  :  -100.0281747 Eh     change       -0.9965491E-03 Eh
 * total energy  :  -100.0298176 Eh     change       -0.1642871E-02 Eh
 * total energy  :  -100.0299864 Eh     change       -0.1688597E-03 Eh
 * total energy  :  -100.0301987 Eh     change       -0.2123063E-03 Eh
 * total energy  :  -100.0303584 Eh     change       -0.1597076E-03 Eh
 * total energy  :  -100.0312125 Eh     change       -0.6179942E-06 Eh
 * total energy  :  -100.0312131 Eh     change       -0.6367152E-06 Eh
 * total energy  :  -100.0312136 Eh     change       -0.5047572E-06 Eh
 * total energy  :  -100.0312141 Eh     change       -0.4788466E-06 Eh
 * total energy  :  -100.0312146 Eh     change       -0.4788865E-06 Eh
 * total energy  :  -100.0312150 Eh     change       -0.4887054E-06 Eh
 * total energy  :  -100.0312157 Eh     change       -0.6845507E-06 Eh
 * total energy  :  -100.0312167 Eh     change       -0.9833216E-06 Eh
 * total energy  :  -100.0312167 Eh     change       -0.6690982E-08 Eh
   *** GEOMETRY OPTIMIZATION CONVERGED AFTER 122 ITERATIONS ***

 final structure:
================
68
 xtb: 6.7.1 (edcfbbe)
O            3.85662325751791       -0.31229536691053       -2.50205695405660
P            3.56841525673092       -0.16500695844075       -1.06960512737543
C            4.22964215722134       -1.54528169863049       -0.06591309363653
C            4.27320818370012       -2.78577832097521       -0.68524906124877
C            4.75360514923755       -3.88548772050214        0.00219194553841
C            5.18498296929496       -3.74424185892171        1.31154315987586
C            5.14170120111025       -2.50480665672706        1.92918069130283
C            4.66286006924382       -1.40168632500082        1.24364375199761
C            4.32369299646298        1.33817288044703       -0.35425648652581
C            5.42284955623929        1.86153138662696       -1.02223463390838
C            6.03192538015243        3.01396488308754       -0.56078606420542
C            5.53956245736831        3.64995753014729        0.56748818304101
C            4.43201299436322        3.13818550149015        1.22594131252978
C            3.81972076931874        1.98662412716387        0.76642374630671
C            1.81272864442925       -0.17722456065265       -0.68980484898972
C            1.31441059412621       -0.32737240512054        0.64567327388488
C            0.06056209520985        0.07739515336591        0.95919493587823
C           -0.84944899768352        0.48175867943978       -0.06988060217183
Si          -2.68866157911198        0.13225280491359        0.09029980923449
C           -3.40563382760586       -0.54140292720888       -1.52610069748017
C           -4.63420498152394       -0.10871335745586       -2.01543660167776
C           -5.14789199182162       -0.61194591306346       -3.19694991078164
C           -4.43685292449644       -1.55962094108999       -3.91392071227041
C           -3.20982403312469       -1.99750869925924       -3.44401586448598
C           -2.70141768780135       -1.49095133076760       -2.26214361709202
C           -3.50426223546765        1.82471725663232        0.45198761235038
C           -2.93672370534482        3.02500182316300        0.04446511126943
C           -3.58234704782779        4.22674850609967        0.27852732887885
C           -4.80446972539469        4.24269961621332        0.92865562096817
C           -5.37741567299943        3.05228974982743        1.34354122030305
C           -4.72910858424431        1.85269507488951        1.10856041935857
C           -3.06467585409797       -1.03280019545700        1.52881513617930
C           -2.99802163164622       -0.57490617726702        2.84352798437786
C           -3.24039234208217       -1.42270355288318        3.90814981047472
C           -3.55642071425452       -2.75150733798725        3.67751719984992
C           -3.62858134822704       -3.22350720137531        2.37693591006122
C           -3.38327476453343       -2.37161620642889        1.31606269838303
C           -0.31247296253140        0.72693801474149       -1.38469211674748
C            0.93562449729683        0.30837279650529       -1.70179679950522
H            3.93925879267235       -2.86582094792291       -1.70996218409102
H            4.79266985591533       -4.85128898031167       -0.48008870399712
H            5.55966389121498       -4.60132392611815        1.85192530400404
H            5.48552745941085       -2.39604271988860        2.94784642724647
H            4.64028143268320       -0.43119607908776        1.71933970739672
H            5.78349650318791        1.35120553824209       -1.90369684913817
H            6.88935946799150        3.41795334335200       -1.07912749219018
H            6.01352550914575        4.55008157346243        0.93092438729472
H            4.04237801937647        3.64218389264716        2.09893786140259
H            2.94436862050237        1.59671676831934        1.26682170463313
H            1.96731133033737       -0.72649791290180        1.40915899560755
H           -0.29795118821342       -0.00033507526743        1.97476515371845
H           -5.19236559303170        0.63447338451328       -1.46321790666837
H           -6.10422071133208       -0.26419589874321       -3.56086754160398
H           -4.83606499155727       -1.95307878320775       -4.83747553859058
H           -2.64801008564387       -2.73302563419439       -4.00159965464724
H           -1.73972824337621       -1.82986694314046       -1.90282248382349
H           -1.98094767536118        3.02097168663795       -0.45809173426328
H           -3.12943750659636        5.15246635794857       -0.04620887839137
H           -5.30826157870932        5.18006371425571        1.11467258146396
H           -6.33098753442360        3.05710069479638        1.85196636085945
H           -5.17895739103096        0.92667215416310        1.43735253342627
H           -2.76224575706591        0.46396325651105        3.03040731620988
H           -3.18569345510704       -1.04801849501328        4.92054236006271
H           -3.74821857991788       -3.41555912298686        4.50777172783804
H           -3.87787040784494       -4.25852145605232        2.19151242670670
H           -3.44439255359077       -2.74456399356930        0.30345884755012
H           -0.94601384875424        1.17488492588971       -2.13584322249815
H            1.32963619051271        0.42893356963342       -2.70043491536495

 projected vibrational frequencies (cm⁻¹)
eigval :        0.00     0.00     0.00     0.00     0.00     0.00
eigval :        3.56     5.47    12.18    19.40    22.68    24.65
eigval :       25.36    33.68    36.48    38.01    40.33    43.95
eigval :       48.94    53.97    60.66    86.20   118.97   138.21
eigval :      152.38   158.41   166.84   176.37   180.31   203.11
eigval :      208.21   218.25   223.47   226.44   241.37   254.19
eigval :      280.31   292.65   331.39   357.98   358.72   360.41
eigval :      361.31   361.46   362.85   377.40   411.63   412.40
eigval :      418.15   432.84   443.24   454.45   475.91   478.75
eigval :      493.69   507.55   552.63   561.45   583.82   585.01
eigval :      586.00   589.27   589.66   653.83   655.38   655.58
eigval :      660.25   661.48   663.17   675.57   690.41   702.71
eigval :      708.98   719.89   728.35   734.00   734.45   735.28
eigval :      736.10   741.76   747.70   873.89   874.29   877.13
eigval :      880.89   882.33   885.16   888.87   899.34   903.43
eigval :      903.90   904.02   906.55   908.94   925.00   927.38
eigval :      929.50   930.69   931.08   931.22   932.10   932.81
eigval :      933.65   934.54   964.40   968.42   972.51   975.39
eigval :      976.87  1007.54  1053.25  1077.32  1077.89  1083.14
eigval :     1084.50  1085.64  1104.09  1112.36  1114.62  1115.57
eigval :     1118.25  1119.73  1121.29  1122.47  1124.36  1134.06
eigval :     1144.27  1150.59  1179.45  1180.24  1180.28  1182.31
eigval :     1182.46  1184.44  1189.61  1193.00  1204.48  1207.18
eigval :     1209.53  1251.65  1264.97  1268.21  1272.80  1283.76
eigval :     1287.97  1289.99  1296.96  1310.12  1311.84  1313.66
eigval :     1320.96  1321.77  1342.64  1417.60  1419.35  1420.57
eigval :     1423.08  1424.40  1450.58  1451.93  1455.25  1461.35
eigval :     1464.37  1481.64  1508.11  1570.81  1574.75  1575.09
eigval :     1577.38  1577.99  1579.42  1580.76  1582.11  1587.55
eigval :     1592.48  3058.00  3059.03  3063.56  3064.39  3065.96
eigval :     3066.12  3066.40  3066.84  3067.27  3070.79  3071.04
eigval :     3072.28  3073.06  3073.21  3076.45  3076.71  3076.98
eigval :     3077.35  3077.50  3078.43  3079.51  3082.87  3083.31
eigval :     3084.19  3087.13  3088.08  3089.28  3090.04  3090.73

   temp. (K)  partition function   enthalpy   heat capacity  entropy
                                   cal/mol     cal/K/mol   cal/K/mol   J/K/mol
 298.15  VIB  0.135E+21            21269.984    122.302    138.287
         ROT  0.506E+08              888.752      2.981     38.234
         INT  0.681E+28            22158.737    125.283    176.521
         TR   0.120E+29             1481.254      4.968     44.706
         TOT                       23639.9907   130.2514   221.2267   925.6123

       T/K    H(0)-H(T)+PV         H(T)/Eh          T*S/Eh         G(T)/Eh
   ------------------------------------------------------------------------
    298.15    0.376727E-01    0.557406E+00    0.105112E+00    0.452294E+00
   ------------------------------------------------------------------------

         :::::::::::::::::::::::::::::::::::::::::::::::::::::
         ::                  THERMODYNAMIC                  ::
         :::::::::::::::::::::::::::::::::::::::::::::::::::::
         :: total free energy         -99.578922784715 Eh   ::
         ::.................................................::
         :: total energy             -100.031216664183 Eh   ::
         :: zero point energy           0.519733078189 Eh   ::
         :: G(RRHO) w/o ZPVE           -0.067439198720 Eh   ::
         :: G(RRHO) contrib.            0.452293879468 Eh   ::
         :::::::::::::::::::::::::::::::::::::::::::::::::::::

           -------------------------------------------------
          | TOTAL ENERGY             -100.031216664183 Eh   |
          | TOTAL ENTHALPY            -99.473810862916 Eh   |
          | TOTAL FREE ENERGY         -99.578922784715 Eh   |
          | GRADIENT NORM               0.000068018160 Eh/α |
           -------------------------------------------------

 * finished run on 2025/08/24 at 18:50:46.962
