   * xtb version 6.7.1 (edcfbbe) compiled by 'albert@albert-system' on 2024-07-22

   ID    Z sym.   atoms
    1    8 O      1
    2   15 P      2
    3    6 C      3-18, 20-39
    4   14 Si     19
    5    1 H      40-68

          program call               : xtb data2507/gas/FTAT-FBO/FTAT-FBO_gas_T1_crest.xyz --gfn 2 --spinpol --tblite --uhf 2 --ohess vtight --parallel 40 --molden --ceasefiles --namespace data2507/gas/FTAT-FBO/FTAT-FBO_gas_T1_finalOpt
 * total energy  :  -100.0358531 Eh     change       -0.4313023E-08 Eh
 * total energy  :  -100.0360125 Eh     change       -0.1593783E-03 Eh
 * total energy  :  -100.0361116 Eh     change       -0.9911803E-04 Eh
 * total energy  :  -100.0361510 Eh     change       -0.3942105E-04 Eh
 * total energy  :  -100.0362035 Eh     change       -0.5245855E-04 Eh
 * total energy  :  -100.0362350 Eh     change       -0.3148801E-04 Eh
 * total energy  :  -100.0362714 Eh     change       -0.3638318E-04 Eh
 * total energy  :  -100.0362655 Eh     change        0.5852857E-05 Eh
 * total energy  :  -100.0362906 Eh     change       -0.2511947E-04 Eh
 * total energy  :  -100.0363193 Eh     change       -0.2871568E-04 Eh
 * total energy  :  -100.0364606 Eh     change       -0.5626719E-06 Eh
 * total energy  :  -100.0364611 Eh     change       -0.4240376E-06 Eh
 * total energy  :  -100.0364613 Eh     change       -0.2689985E-06 Eh
 * total energy  :  -100.0364615 Eh     change       -0.2080695E-06 Eh
 * total energy  :  -100.0364617 Eh     change       -0.1947569E-06 Eh
 * total energy  :  -100.0364619 Eh     change       -0.1924051E-06 Eh
 * total energy  :  -100.0364621 Eh     change       -0.1419416E-06 Eh
 * total energy  :  -100.0364622 Eh     change       -0.1172450E-06 Eh
 * total energy  :  -100.0364622 Eh     change       -0.5580483E-07 Eh
   *** GEOMETRY OPTIMIZATION CONVERGED AFTER 42 ITERATIONS ***

 final structure:
================
68
 xtb: 6.7.1 (edcfbbe)
O            3.39672140842194       -0.71071022474723       -2.51570558443653
P            3.02786753900592       -0.15135280544889       -1.20790392553701
C            2.90102517655179       -1.42271357676532        0.09629095063452
C            2.44881837820675       -1.13516512113939        1.37773044933114
C            2.37858315298362       -2.14130844431024        2.32167180524940
C            2.75215828437405       -3.43458357309442        1.98936726363949
C            3.18595455997548       -3.72575344202425        0.70686127567357
C            3.25526415060570       -2.72048469874001       -0.24092923291195
C            4.24817588605846        1.05996706824781       -0.58607074581894
C            4.28500352256417        2.29381307999949       -1.22154214917430
C            5.23310329765021        3.23203248963371       -0.85868457700780
C            6.14984628741047        2.93466194228048        0.13781363558627
C            6.12045222112793        1.69995613694318        0.76459555233014
C            5.17122837619991        0.75899138571391        0.40267008506453
C            1.43446410976261        0.66978292729980       -1.16476552534613
C            1.07954603528920        1.60910032631514       -0.15998798051422
C           -0.17891255749938        2.11111385012378       -0.11854159560776
C           -1.17462716059837        1.46162259899167       -0.94097158076824
Si          -2.41772522141116        0.33395462588088       -0.02041941815461
C           -3.81007268523780        0.04282240966112       -1.26831688585361
C           -4.31301252695879       -1.23258893752288       -1.50243306136752
C           -5.33792373489030       -1.43740667879749       -2.40878752602078
C           -5.87997418691935       -0.36532622120732       -3.09754587332643
C           -5.39064592510639        0.91135666829460       -2.87561599078971
C           -4.36529923616768        1.11038912403536       -1.96955834535039
C           -3.01224409108878        1.30428638082493        1.49119349145538
C           -4.33404631029487        1.72171910460355        1.60181588845495
C           -4.76864077311585        2.41920838392394        2.71492865176469
C           -3.88459454171128        2.71050675572702        3.73979636312424
C           -2.56509084560023        2.29927528179756        3.64591318776841
C           -2.13613542126095        1.60385498782491        2.53042346445809
C           -1.62654477837100       -1.30386067354334        0.50323454805641
C           -0.99156853027900       -2.09839550833299       -0.45057348860308
C           -0.37169802908553       -3.28105652761079       -0.09643039369352
C           -0.38003613269407       -3.70010809119076        1.22351084167671
C           -1.00161606588210       -2.92153485258921        2.18486157771352
C           -1.61388462940279       -1.73430679475755        1.82794347540184
C           -0.72508221424277        0.90912475968373       -2.20176148368278
C            0.53489156669083        0.40844177657438       -2.22892318548408
H            2.16009744632310       -0.12591573253681        1.63223891328916
H            2.03261813428821       -1.91925834749581        3.32076482896543
H            2.70289789755249       -4.21581371852344        2.73401211799005
H            3.47220112893618       -4.73480383821232        0.44731296410012
H            3.59245645490171       -2.91790042823425       -1.24831416729667
H            3.56234064556151        2.50103627537189       -2.00040886309440
H            5.26113564064218        4.19330143622401       -1.35096446898661
H            6.89204351110268        3.66595579155053        0.42295502279235
H            6.84075577996430        1.46822194240528        1.53592537257923
H            5.14453870199903       -0.20845398279036        0.88544080269702
H            1.85507991850042        2.00090108891622        0.48580240418328
H           -0.46414013971794        2.90189945450915        0.55743895197563
H           -3.89297603731276       -2.07300439413972       -0.96853116557100
H           -5.71533097419509       -2.43551668648566       -2.57891436845998
H           -6.68021657144846       -0.52379860415319       -3.80572948519407
H           -5.80932912218105        1.75161364032823       -3.41092305998965
H           -3.98409974344521        2.10832699297691       -1.80269850107790
H           -5.02935642325682        1.49409261697281        0.80674108537231
H           -5.79931279988473        2.73616806800809        2.78365721323896
H           -4.22169620887435        3.25595482244900        4.60916795475299
H           -1.87119752060702        2.52194783630449        4.44401593933820
H           -1.10531684914245        1.28524593947135        2.46089679197463
H           -0.98559422891760       -1.78291404045504       -1.48342833794325
H            0.11780161188268       -3.87899663462298       -0.85106829324318
H            0.09311000534152       -4.63053147898598        1.49977448045644
H           -1.01258275887607       -3.24338764990483        3.21658403542966
H           -2.10279535713170       -1.13696291240793        2.58453903591488
H           -1.41375082152346        0.79967960963444       -3.02449277270849
H            0.92047107876039       -0.12052451893325       -3.09004844742142

 projected vibrational frequencies (cm⁻¹)
eigval :       -0.00    -0.00     0.00     0.00     0.00     0.00
eigval :       10.40    15.00    18.18    22.10    26.32    28.85
eigval :       33.55    34.60    39.12    45.78    50.67    53.94
eigval :       62.63    74.81    85.09    93.32   134.66   150.95
eigval :      153.56   166.89   169.37   178.27   189.85   202.29
eigval :      216.85   221.31   224.23   232.19   245.60   265.74
eigval :      269.94   289.39   344.93   358.91   359.64   360.40
eigval :      362.72   363.21   367.81   370.79   418.47   421.05
eigval :      423.59   433.93   465.10   466.04   478.25   483.54
eigval :      494.60   528.24   534.43   585.19   585.98   588.27
eigval :      588.66   588.89   603.15   652.63   654.72   660.11
eigval :      661.59   662.10   662.80   672.76   690.46   705.58
eigval :      709.23   713.16   725.55   732.87   735.63   739.15
eigval :      739.76   740.99   752.98   873.17   876.78   878.58
eigval :      879.43   880.66   882.56   885.29   899.10   900.59
eigval :      902.35   906.14   910.12   910.87   923.99   926.29
eigval :      928.81   930.63   931.67   933.27   933.65   933.77
eigval :      934.73   938.57   964.77   971.14   972.93   975.15
eigval :      975.42   976.24  1077.38  1077.88  1083.90  1085.12
eigval :     1085.38  1091.86  1097.58  1113.09  1114.05  1119.23
eigval :     1120.66  1121.94  1123.60  1127.22  1138.32  1144.75
eigval :     1146.93  1162.43  1179.33  1180.62  1181.99  1182.33
eigval :     1182.76  1187.97  1190.30  1192.17  1205.70  1206.64
eigval :     1210.20  1254.57  1268.70  1271.24  1275.29  1285.29
eigval :     1288.01  1289.70  1311.85  1312.74  1313.02  1313.87
eigval :     1319.98  1324.98  1345.26  1418.08  1420.52  1420.93
eigval :     1424.56  1426.68  1446.60  1452.90  1456.39  1460.47
eigval :     1462.67  1463.14  1513.18  1571.59  1575.43  1575.76
eigval :     1582.10  1584.27  1585.55  1587.06  1588.04  1588.18
eigval :     1590.63  3038.57  3053.20  3058.15  3062.45  3062.77
eigval :     3063.90  3065.00  3068.25  3069.27  3070.50  3073.55
eigval :     3073.86  3074.15  3074.18  3074.46  3077.15  3078.74
eigval :     3079.75  3080.38  3080.45  3081.01  3082.25  3085.19
eigval :     3086.15  3088.49  3089.12  3089.85  3090.67  3093.43

   temp. (K)  partition function   enthalpy   heat capacity  entropy
                                   cal/mol     cal/K/mol   cal/K/mol   J/K/mol
 298.15  VIB  0.949E+18            20940.872    123.410    133.247
         ROT  0.390E+08              888.752      2.981     37.718
         INT  0.370E+26            21829.625    126.390    170.965
         TR   0.120E+29             1481.254      4.968     44.706
         TOT                       23310.8784   131.3586   215.6710   902.3675

       T/K    H(0)-H(T)+PV         H(T)/Eh          T*S/Eh         G(T)/Eh
   ------------------------------------------------------------------------
    298.15    0.371482E-01    0.557927E+00    0.102472E+00    0.455455E+00
   ------------------------------------------------------------------------

         :::::::::::::::::::::::::::::::::::::::::::::::::::::
         ::                  THERMODYNAMIC                  ::
         :::::::::::::::::::::::::::::::::::::::::::::::::::::
         :: total free energy         -99.581007557208 Eh   ::
         ::.................................................::
         :: total energy             -100.036462277241 Eh   ::
         :: zero point energy           0.520778724501 Eh   ::
         :: G(RRHO) w/o ZPVE           -0.065324004468 Eh   ::
         :: G(RRHO) contrib.            0.455454720033 Eh   ::
         :::::::::::::::::::::::::::::::::::::::::::::::::::::

           -------------------------------------------------
          | TOTAL ENERGY             -100.036462277241 Eh   |
          | TOTAL ENTHALPY            -99.478535303377 Eh   |
          | TOTAL FREE ENERGY         -99.581007557208 Eh   |
          | GRADIENT NORM               0.000032092175 Eh/α |
           -------------------------------------------------

 * finished run on 2025/08/24 at 18:58:21.834
