   * xtb version 6.7.1 (edcfbbe) compiled by 'albert@albert-system' on 2024-07-22

   ID    Z sym.   atoms
    1    8 O      1
    2   15 P      2
    3    6 C      3-18, 20-39
    4   14 Si     19
    5    1 H      40-68

          program call               : xtb data2507/gas/FTAT-FBO/FTAT-FBO_gas_S0_crest.xyz --gfn 2 --ohess vtight --parallel 40 --molden --ceasefiles --namespace data2507/gas/FTAT-FBO/FTAT-FBO_gas_S0_finalOpt
          :  Hamiltonian                  GFN2-xTB          :
 * total energy  :  -100.1501508 Eh     change       -0.1253497E-08 Eh
 * total energy  :  -100.1501523 Eh     change       -0.1564714E-05 Eh
 * total energy  :  -100.1501537 Eh     change       -0.1357579E-05 Eh
 * total energy  :  -100.1501563 Eh     change       -0.2603019E-05 Eh
 * total energy  :  -100.1501592 Eh     change       -0.2905460E-05 Eh
 * total energy  :  -100.1501611 Eh     change       -0.1895476E-05 Eh
 * total energy  :  -100.1501619 Eh     change       -0.7603158E-06 Eh
 * total energy  :  -100.1501620 Eh     change       -0.1090348E-06 Eh
 * total energy  :  -100.1501627 Eh     change       -0.7518160E-06 Eh
 * total energy  :  -100.1501639 Eh     change       -0.1148289E-05 Eh
 * total energy  :  -100.1501706 Eh     change       -0.1518308E-05 Eh
 * total energy  :  -100.1501714 Eh     change       -0.7816208E-06 Eh
 * total energy  :  -100.1501719 Eh     change       -0.4998370E-06 Eh
 * total energy  :  -100.1501724 Eh     change       -0.4532623E-06 Eh
 * total energy  :  -100.1501729 Eh     change       -0.5503954E-06 Eh
 * total energy  :  -100.1501734 Eh     change       -0.5280731E-06 Eh
 * total energy  :  -100.1501739 Eh     change       -0.4852859E-06 Eh
 * total energy  :  -100.1501743 Eh     change       -0.4080626E-06 Eh
 * total energy  :  -100.1501743 Eh     change       -0.5328062E-08 Eh
   *** GEOMETRY OPTIMIZATION CONVERGED AFTER 22 ITERATIONS ***

 final structure:
================
68
 xtb: 6.7.1 (edcfbbe)
O            3.95918697657899       -0.21414564546674       -2.49093914718342
P            3.65302470510425       -0.10576273910086       -1.05975147993590
C            4.39314850676349       -1.43830658223815       -0.06002538191678
C            4.65365119678268       -2.63354479665437       -0.71524661267000
C            5.20414617978074       -3.69759729360769       -0.02411909762087
C            5.49528977577885       -3.56606827056240        1.32403870674846
C            5.24260709573852       -2.37040011457164        1.97770083170000
C            4.69244327622414       -1.30406461166160        1.28904054184630
C            4.26102115324242        1.44011375093922       -0.30611379394299
C            5.40814427268768        1.98654903938298       -0.86472738117821
C            5.94866297071972        3.14756436546141       -0.34284013489993
C            5.34019170268940        3.76475351304874        0.73829591323874
C            4.19023171965145        3.22475278480979        1.29151748374771
C            3.64774866791068        2.06235448185521        0.77248440081573
C            1.86954934017195       -0.14986958071296       -0.69297571776404
C            1.34269172514088       -0.57508438949110        0.51907332584922
C           -0.02460353343154       -0.54228400818062        0.72008210595545
C           -0.88964294604183       -0.09210158018312       -0.27264682047980
Si          -2.76342132915242       -0.00916974136489        0.00790344633413
C           -3.62921200945166       -0.63381680974587       -1.55595353181618
C           -4.81060407596130       -0.05748706798397       -2.01164101829035
C           -5.44810641957327       -0.53653253395997       -3.14200457008843
C           -4.91199782845774       -1.60609185092643       -3.83913234928046
C           -3.73485705935104       -2.19003479432959       -3.40146488335387
C           -3.10209486926978       -1.70622807852615       -2.27110892992945
C           -3.26735453824770        1.77957726646608        0.37707854301072
C           -2.45092730891232        2.85413037112386        0.03889604055396
C           -2.84175655278202        4.15594037179872        0.29676427067406
C           -4.06278565605358        4.40665211635789        0.89948701055858
C           -4.88683327908667        3.34883649232149        1.24643038320981
C           -4.48948452501875        2.04992324581951        0.98751079569362
C           -3.23911882161815       -1.08618676866764        1.49275971634232
C           -3.05134621971872       -0.61794328540728        2.79083753483292
C           -3.38143949218982       -1.39579246548188        3.88544487208621
C           -3.91020891457157       -2.66244536940774        3.69991894151115
C           -4.10709004163346       -3.14249804172091        2.41615998337498
C           -3.77337527375700       -2.35975261326031        1.32532429850614
C           -0.34530744260753        0.31440191033266       -1.48859175032687
C            1.01941599298704        0.28804348834384       -1.69935581478602
H            4.42783914220751       -2.70491515706687       -1.76965968561588
H            5.40824295753957       -4.62771026209411       -0.53403721904336
H            5.92623917469342       -4.39467644766840        1.86678343039709
H            5.47861710379067       -2.26847748845330        3.02722428361001
H            4.50813295619592       -0.36547605321537        1.79311582558817
H            5.85567877774979        1.49202842400317       -1.71510970960296
H            6.84157828358842        3.57274649556116       -0.77716662040931
H            5.75928962040139        4.67209655465893        1.14814572217059
H            3.71332303984527        3.71267770041988        2.12943896316563
H            2.74457820451790        1.64542370436244        1.19602662406771
H            1.99970984968293       -0.94022679054933        1.29653910515496
H           -0.43274549282857       -0.87714821013596        1.66341515906765
H           -5.23113060290153        0.78083140287489       -1.47450871071215
H           -6.36454422578574       -0.07518931204365       -3.48143196107700
H           -5.40820590362121       -1.98197570770306       -4.72216695993834
H           -3.31000863601424       -3.02282006630429       -3.94354328425423
H           -2.18008924764325       -2.16201861591814       -1.93724538037494
H           -1.49480238245826        2.66594814713934       -0.42892478228001
H           -2.19318889524979        4.97736991925792        0.02730598369891
H           -4.37055998080794        5.42258630417771        1.10067630853439
H           -5.83962949621546        3.53842358586682        1.72002842212242
H           -5.13278164802657        1.22713226892895        1.26755909247814
H           -2.64621051156870        0.37346302041875        2.94072500487346
H           -3.22853342481909       -1.01487578289530        4.88531986519126
H           -4.17042096507702       -3.27180350796673        4.55333914612834
H           -4.52279665676410       -4.12868241823044        2.26612232103594
H           -3.93346811270002       -2.73796023244950        0.32554592412468
H           -1.00444053900374        0.64966951230026       -2.27724653679836
H            1.44883878700823        0.59438031867485       -2.64296470113010

          :  Hamiltonian                  GFN2-xTB          :
         :: gradient norm              0.000046593029 Eh/a0 ::
         :: HOMO-LUMO gap              3.562338176054 eV    ::
         :: SCC energy              -102.023223628535 Eh    ::
         :: -> dispersion             -0.092309763894 Eh    ::
         :: repulsion energy           1.873049294420 Eh    ::

    * Orbital Energies and Occupations

         #    Occupation            Energy/Eh            Energy/eV
      -------------------------------------------------------------
         1        2.0000           -0.7575909             -20.6151
       ...           ...                  ...                  ...
        82        2.0000           -0.4107387             -11.1768
        83        2.0000           -0.4095801             -11.1452
        84        2.0000           -0.4095400             -11.1442
        85        2.0000           -0.4067470             -11.0682
        86        2.0000           -0.4047539             -11.0139
        87        2.0000           -0.4039171             -10.9911
        88        2.0000           -0.4031153             -10.9693
        89        2.0000           -0.4028438             -10.9619
        90        2.0000           -0.4006953             -10.9035
        91        2.0000           -0.3971943             -10.8082
        92        2.0000           -0.3873135             -10.5393
        93        2.0000           -0.3863936             -10.5143
        94        2.0000           -0.3854697             -10.4892 (HOMO)
        95                         -0.2545561              -6.9268 (LUMO)
        96                         -0.2486326              -6.7656
        97                         -0.2414873              -6.5712
        98                         -0.2384426              -6.4884
        99                         -0.2376587              -6.4670
       100                         -0.2326989              -6.3321
       101                         -0.2320384              -6.3141
       102                         -0.2313414              -6.2951
       103                         -0.2282009              -6.2097
       104                         -0.2231832              -6.0731
       105                         -0.2217205              -6.0333
       ...                                ...                  ...
       195                          1.1919136              32.4336
      -------------------------------------------------------------
                  HL-Gap            0.1309136 Eh            3.5623 eV

     #   Z          covCN         q      C6AA      α(0)
     1   8 O        0.808    -0.357    20.868     6.123
     2  15 P        4.079     0.068   157.255    22.526
     3   6 C        2.921     0.012    27.739     8.637
     4   6 C        3.030    -0.020    28.465     8.751
     5   6 C        2.919    -0.027    28.671     8.781
     6   6 C        2.920    -0.025    28.636     8.775
     7   6 C        2.920    -0.028    28.706     8.786
     8   6 C        2.971    -0.026    28.658     8.781
     9   6 C        2.921     0.012    27.736     8.636
    10   6 C        3.032    -0.019    28.459     8.750
    11   6 C        2.919    -0.027    28.669     8.780
    12   6 C        2.920    -0.025    28.639     8.776
    13   6 C        2.920    -0.028    28.706     8.786
    14   6 C        2.969    -0.027    28.666     8.782
    15   6 C        2.921     0.012    27.747     8.638
    16   6 C        2.967    -0.028    28.690     8.786
    17   6 C        2.935    -0.032    28.803     8.802
    18   6 C        2.863    -0.092    30.293     9.022
    19  14 Si       3.615     0.486    98.244    19.025
    20   6 C        2.863    -0.093    30.335     9.028
    21   6 C        2.936    -0.032    28.787     8.799
    22   6 C        2.918    -0.029    28.719     8.788
    23   6 C        2.921    -0.027    28.684     8.783
    24   6 C        2.917    -0.029    28.718     8.788
    25   6 C        2.938    -0.030    28.749     8.794
    26   6 C        2.863    -0.093    30.332     9.027
    27   6 C        2.935    -0.031    28.780     8.798
    28   6 C        2.918    -0.029    28.719     8.788
    29   6 C        2.921    -0.028    28.691     8.784
    30   6 C        2.917    -0.029    28.730     8.790
    31   6 C        2.939    -0.030    28.757     8.795
    32   6 C        2.863    -0.093    30.342     9.029
    33   6 C        2.938    -0.031    28.766     8.796
    34   6 C        2.917    -0.029    28.736     8.791
    35   6 C        2.921    -0.028    28.695     8.784
    36   6 C        2.917    -0.029    28.719     8.788
    37   6 C        2.936    -0.031    28.782     8.799
    38   6 C        2.937    -0.029    28.736     8.792
    39   6 C        3.029    -0.021    28.498     8.756
    40   1 H        0.926     0.061     2.191     2.315
    41   1 H        0.926     0.039     2.461     2.453
    42   1 H        0.926     0.037     2.490     2.468
    43   1 H        0.926     0.035     2.517     2.481
    44   1 H        0.926     0.037     2.488     2.467
    45   1 H        0.926     0.059     2.206     2.323
    46   1 H        0.926     0.039     2.462     2.454
    47   1 H        0.926     0.037     2.490     2.468
    48   1 H        0.926     0.035     2.516     2.481
    49   1 H        0.926     0.037     2.487     2.466
    50   1 H        0.925     0.035     2.521     2.483
    51   1 H        0.926     0.026     2.648     2.545
    52   1 H        0.926     0.021     2.713     2.576
    53   1 H        0.926     0.028     2.608     2.525
    54   1 H        0.926     0.030     2.589     2.516
    55   1 H        0.926     0.029     2.595     2.519
    56   1 H        0.925     0.019     2.743     2.590
    57   1 H        0.926     0.020     2.729     2.583
    58   1 H        0.926     0.028     2.609     2.526
    59   1 H        0.926     0.029     2.594     2.519
    60   1 H        0.926     0.028     2.609     2.526
    61   1 H        0.925     0.020     2.739     2.588
    62   1 H        0.925     0.019     2.742     2.590
    63   1 H        0.926     0.028     2.617     2.530
    64   1 H        0.926     0.029     2.597     2.520
    65   1 H        0.926     0.029     2.607     2.525
    66   1 H        0.926     0.022     2.705     2.572
    67   1 H        0.926     0.028     2.616     2.529
    68   1 H        0.926     0.058     2.227     2.334

molecular dipole:
                 x           y           z       tot (Debye)
 q only:       -0.487       0.083       1.290
   full:       -0.509       0.105       1.573       4.210

 projected vibrational frequencies (cm⁻¹)
eigval :       -0.00    -0.00     0.00     0.00     0.00     0.00
eigval :        5.24    13.02    20.24    22.75    23.92    24.83
eigval :       27.46    31.01    34.55    40.83    42.11    43.20
eigval :       45.81    51.99    59.98   115.26   124.43   151.79
eigval :      157.44   161.43   167.60   176.79   187.64   210.56
eigval :      213.73   220.87   226.70   230.37   264.18   282.12
eigval :      286.89   303.24   354.08   358.46   358.58   361.06
eigval :      362.55   364.24   375.17   413.04   415.77   421.12
eigval :      435.19   436.58   452.68   478.88   481.41   494.33
eigval :      517.91   561.92   585.96   586.83   589.08   589.77
eigval :      590.69   600.10   658.20   658.96   663.01   663.11
eigval :      663.42   668.25   669.33   686.86   706.31   709.41
eigval :      714.81   734.64   735.81   736.65   740.14   743.40
eigval :      764.39   792.37   879.27   879.47   881.74   882.60
eigval :      883.18   884.88   903.04   905.22   905.77   907.03
eigval :      908.54   922.60   927.53   929.02   930.96   931.80
eigval :      932.69   933.92   934.50   934.80   935.32   935.47
eigval :      935.82   972.35   975.46   975.58   977.13   977.27
eigval :      996.97  1078.29  1078.72  1084.91  1085.78  1085.87
eigval :     1113.33  1115.32  1120.95  1121.82  1122.77  1123.59
eigval :     1127.38  1127.84  1136.98  1144.37  1150.95  1151.49
eigval :     1152.04  1180.70  1180.81  1182.70  1182.81  1182.90
eigval :     1191.48  1193.74  1204.29  1207.29  1207.75  1210.96
eigval :     1261.12  1269.75  1270.30  1275.19  1287.70  1288.14
eigval :     1290.82  1311.24  1311.70  1312.29  1314.18  1321.29
eigval :     1321.86  1377.61  1419.28  1420.11  1421.49  1424.53
eigval :     1425.24  1453.80  1454.71  1459.99  1464.58  1465.45
eigval :     1465.69  1558.00  1576.46  1576.74  1577.32  1581.88
eigval :     1583.92  1584.03  1587.12  1587.98  1593.48  1593.61
eigval :     1594.80  3060.02  3061.47  3061.71  3061.85  3065.00
eigval :     3065.27  3065.83  3066.03  3066.17  3066.88  3071.10
eigval :     3071.48  3072.27  3073.50  3074.19  3074.29  3076.59
eigval :     3077.10  3077.28  3077.42  3077.71  3078.16  3083.88
eigval :     3084.10  3086.30  3086.64  3087.36  3091.38  3091.90

   temp. (K)  partition function   enthalpy   heat capacity  entropy
                                   cal/mol     cal/K/mol   cal/K/mol   J/K/mol
 298.15  VIB  0.895E+19            20776.035    119.856    133.254
         ROT  0.516E+08              888.752      2.981     38.272
         INT  0.461E+27            21664.787    122.837    171.526
         TR   0.120E+29             1481.254      4.968     44.706
         TOT                       23146.0414   127.8051   216.2319   904.7144

       T/K    H(0)-H(T)+PV         H(T)/Eh          T*S/Eh         G(T)/Eh
   ------------------------------------------------------------------------
    298.15    0.368856E-01    0.561380E+00    0.102739E+00    0.458641E+00
   ------------------------------------------------------------------------

         :::::::::::::::::::::::::::::::::::::::::::::::::::::
         ::                  THERMODYNAMIC                  ::
         :::::::::::::::::::::::::::::::::::::::::::::::::::::
         :: total free energy         -99.691533031522 Eh   ::
         ::.................................................::
         :: total energy             -100.150174334119 Eh   ::
         :: zero point energy           0.524494505463 Eh   ::
         :: G(RRHO) w/o ZPVE           -0.065853202865 Eh   ::
         :: G(RRHO) contrib.            0.458641302597 Eh   ::
         :::::::::::::::::::::::::::::::::::::::::::::::::::::

           -------------------------------------------------
          | TOTAL ENERGY             -100.150174334119 Eh   |
          | TOTAL ENTHALPY            -99.588794263884 Eh   |
          | TOTAL FREE ENERGY         -99.691533031522 Eh   |
          | GRADIENT NORM               0.000046613338 Eh/α |
          | HOMO-LUMO GAP               3.562340807740 eV   |
           -------------------------------------------------

 * finished run on 2025/08/24 at 18:50:33.854
