   * xtb version 6.7.1 (edcfbbe) compiled by 'albert@albert-system' on 2024-07-22

   ID    Z sym.   atoms
    1    8 O      1
    2   15 P      2
    3    6 C      3-18, 20-39
    4   14 Si     19
    5    1 H      40-68

          program call               : xtb data2507/gas/FTAT-FBO/FTAT-FBO.xyz --gfn 2 --ohess vtight --parallel 40 --molden --ceasefiles --namespace data2507/gas/FTAT-FBO/FTAT-FBO_gas_S0_preOpt
          :  Hamiltonian                  GFN2-xTB          :
 * total energy  :  -100.1354387 Eh     change       -0.1025327E-08 Eh
 * total energy  :  -100.1469944 Eh     change       -0.1155568E-01 Eh
 * total energy  :  -100.1491519 Eh     change       -0.2157483E-02 Eh
 * total energy  :  -100.1493912 Eh     change       -0.2392943E-03 Eh
 * total energy  :  -100.1495022 Eh     change       -0.1110414E-03 Eh
 * total energy  :  -100.1495475 Eh     change       -0.4533037E-04 Eh
 * total energy  :  -100.1496027 Eh     change       -0.5514857E-04 Eh
 * total energy  :  -100.1496799 Eh     change       -0.7716474E-04 Eh
 * total energy  :  -100.1497454 Eh     change       -0.6558749E-04 Eh
 * total energy  :  -100.1498583 Eh     change       -0.1128172E-03 Eh
 * total energy  :  -100.1501200 Eh     change       -0.8110076E-06 Eh
 * total energy  :  -100.1501211 Eh     change       -0.1098476E-05 Eh
 * total energy  :  -100.1501225 Eh     change       -0.1427056E-05 Eh
 * total energy  :  -100.1501236 Eh     change       -0.1115791E-05 Eh
 * total energy  :  -100.1501242 Eh     change       -0.6175522E-06 Eh
 * total energy  :  -100.1501247 Eh     change       -0.4539395E-06 Eh
 * total energy  :  -100.1501251 Eh     change       -0.3949499E-06 Eh
 * total energy  :  -100.1501255 Eh     change       -0.4142298E-06 Eh
 * total energy  :  -100.1501255 Eh     change       -0.4334751E-08 Eh
   *** GEOMETRY OPTIMIZATION CONVERGED AFTER 44 ITERATIONS ***

 final structure:
================
68
 xtb: 6.7.1 (edcfbbe)
O            3.92971594077637       -0.20331154089145       -2.88359727473470
P            3.72029471777465       -0.12477680486671       -1.43320960356040
C            4.47396693972650       -1.51007036120060       -0.51845829744874
C            4.64911434035403       -2.69397968365742       -1.22104599944848
C            5.20148655780421       -3.79678388659454       -0.59512574167987
C            5.58027937501634       -3.71557331303805        0.73511107987056
C            5.41293757528832       -2.53155170672617        1.43569107579696
C            4.86090301903166       -1.42666486365210        0.81236091803297
C            4.42450704700324        1.37971295773537       -0.68135143424804
C            5.52204989538910        1.93630955608612       -1.32282516789280
C            6.12677450613997        3.06785302616467       -0.80644086846738
C            5.63242714917226        3.64448841626894        0.35239275914694
C            4.53128568000727        3.09443040441213        0.98906973622656
C            3.92432987937074        1.96223537733675        0.47519670976045
C            1.96292405711128       -0.12018493948107       -0.95287762485235
C            1.49249568079924       -0.61563328997508        0.25586562483616
C            0.14165977097752       -0.55279256240937        0.54007730062510
C           -0.76311148347351        0.00013737632590       -0.36321109005620
Si          -2.61573321241283        0.03327089750279        0.04221496806991
C           -3.37518468232108       -1.65635854977566       -0.35184025772914
C           -4.75259226964535       -1.78616231168422       -0.50979319745311
C           -5.32736485927556       -3.01382736874968       -0.78283431459841
C           -4.52949769167067       -4.13933657438687       -0.90558003658551
C           -3.15757999748995       -4.02756077149755       -0.75594156178375
C           -2.58888279996078       -2.79674245837817       -0.48126101556880
C           -3.48506902543370        1.35204736890678       -1.00307743250397
C           -3.81210797316390        1.09128989664404       -2.33144714524379
C           -4.43371243120709        2.04673913457193       -3.11430163700536
C           -4.74309317243728        3.28598241198538       -2.57865597637559
C           -4.42965345475190        3.56040612532198       -1.25819311582228
C           -3.80641291693193        2.60082444165940       -0.48068027882347
C           -2.81111308825659        0.42962442443052        1.88492652713934
C           -2.00149021205588        1.38831246163196        2.48896332173371
C           -2.14720590415103        1.70617091499268        3.82685720074607
C           -3.11045677578820        1.06635852136884        4.58919021060695
C           -3.92178732457151        0.10793914627609        4.00583638477071
C           -3.77119091827335       -0.20474985472409        2.66662933764116
C           -0.27443481656234        0.49004764333257       -1.57043873845103
C            1.07408840466043        0.43074932673420       -1.86558238431829
H            4.35583817383662       -2.72629449302970       -2.26066016827015
H            5.33894175903939       -4.71806829985791       -1.14203756539384
H            6.01287079368369       -4.57455456045836        1.22694350117216
H            5.71681624465982       -2.46897357555325        2.47074764060599
H            4.74229925612254       -0.49798806066223        1.35298340877329
H            5.87981886610278        1.47326082113268       -2.23139332444552
H            6.98096059626939        3.50153520515285       -1.30543535281492
H            6.10211556854062        4.52852084443261        0.75829672890309
H            4.14331442992072        3.55148981868555        1.88806926256498
H            3.05752295956874        1.53799155181301        0.96284603148151
H            2.17941782546950       -1.05840737430702        0.96420564671735
H           -0.22289884906696       -0.93712501396058        1.48290771129975
H           -5.37865708275492       -0.90880347374360       -0.42291606253086
H           -6.39848407565828       -3.09467306570879       -0.90200060016553
H           -4.97571208994612       -5.09960803501665       -1.12021121589359
H           -2.53006804262842       -4.90180654713451       -0.85498885063458
H           -1.51666581756409       -2.71574676438627       -0.37050000851703
H           -3.58030594980819        0.12249875456772       -2.75213085387474
H           -4.67896462738018        1.82603057426342       -4.14341112763669
H           -5.22934839452339        4.03408059727993       -3.18789862822983
H           -4.67269994208442        4.52437327350500       -0.83430334688071
H           -3.56865680925438        2.81931115373146        0.55084721535716
H           -1.24487890001421        1.88749198983515        1.89901720609782
H           -1.50991363670507        2.45375426192483        4.27773856474833
H           -3.22673150293395        1.31291819358474        5.63467266176513
H           -4.67296769387737       -0.39628787669059        4.59689678663610
H           -4.40465870429971       -0.95659636112224        2.21779355643066
H           -0.96147842687114        0.92475175503313       -2.28228568022900
H            1.45960954558695        0.79805371869005       -2.80640409738212

          :  Hamiltonian                  GFN2-xTB          :
         :: gradient norm              0.000046731854 Eh/a0 ::
         :: HOMO-LUMO gap              3.575044912237 eV    ::
         :: SCC energy              -102.023229155703 Eh    ::
         :: -> dispersion             -0.092351256375 Eh    ::
         :: repulsion energy           1.873103661648 Eh    ::

    * Orbital Energies and Occupations

         #    Occupation            Energy/Eh            Energy/eV
      -------------------------------------------------------------
         1        2.0000           -0.7575865             -20.6150
       ...           ...                  ...                  ...
        82        2.0000           -0.4107844             -11.1780
        83        2.0000           -0.4098454             -11.1525
        84        2.0000           -0.4093355             -11.1386
        85        2.0000           -0.4069172             -11.0728
        86        2.0000           -0.4048057             -11.0153
        87        2.0000           -0.4037717             -10.9872
        88        2.0000           -0.4031880             -10.9713
        89        2.0000           -0.4029788             -10.9656
        90        2.0000           -0.4005163             -10.8986
        91        2.0000           -0.3972710             -10.8103
        92        2.0000           -0.3876552             -10.5486
        93        2.0000           -0.3860461             -10.5048
        94        2.0000           -0.3855414             -10.4911 (HOMO)
        95                         -0.2541610              -6.9161 (LUMO)
        96                         -0.2489978              -6.7756
        97                         -0.2420854              -6.5875
        98                         -0.2379817              -6.4758
        99                         -0.2376469              -6.4667
       100                         -0.2327265              -6.3328
       101                         -0.2322645              -6.3202
       102                         -0.2316195              -6.3027
       103                         -0.2279628              -6.2032
       104                         -0.2229291              -6.0662
       105                         -0.2221406              -6.0448
       ...                                ...                  ...
       195                          1.1918698              32.4324
      -------------------------------------------------------------
                  HL-Gap            0.1313805 Eh            3.5750 eV

     #   Z          covCN         q      C6AA      α(0)
     1   8 O        0.808    -0.357    20.866     6.123
     2  15 P        4.078     0.068   157.252    22.526
     3   6 C        2.921     0.013    27.735     8.636
     4   6 C        3.031    -0.020    28.464     8.751
     5   6 C        2.919    -0.027    28.671     8.781
     6   6 C        2.920    -0.025    28.637     8.776
     7   6 C        2.920    -0.028    28.707     8.786
     8   6 C        2.971    -0.027    28.661     8.782
     9   6 C        2.921     0.012    27.739     8.637
    10   6 C        3.031    -0.019    28.462     8.751
    11   6 C        2.919    -0.027    28.669     8.780
    12   6 C        2.920    -0.025    28.638     8.776
    13   6 C        2.920    -0.028    28.707     8.786
    14   6 C        2.971    -0.027    28.661     8.781
    15   6 C        2.921     0.012    27.746     8.638
    16   6 C        2.966    -0.028    28.699     8.787
    17   6 C        2.938    -0.031    28.769     8.797
    18   6 C        2.863    -0.091    30.288     9.021
    19  14 Si       3.615     0.486    98.242    19.025
    20   6 C        2.863    -0.093    30.332     9.027
    21   6 C        2.939    -0.030    28.758     8.795
    22   6 C        2.917    -0.029    28.729     8.789
    23   6 C        2.921    -0.027    28.687     8.783
    24   6 C        2.918    -0.028    28.713     8.787
    25   6 C        2.936    -0.031    28.770     8.797
    26   6 C        2.863    -0.093    30.337     9.028
    27   6 C        2.938    -0.030    28.756     8.795
    28   6 C        2.917    -0.029    28.722     8.788
    29   6 C        2.921    -0.027    28.685     8.783
    30   6 C        2.917    -0.029    28.721     8.788
    31   6 C        2.936    -0.032    28.788     8.800
    32   6 C        2.863    -0.093    30.341     9.029
    33   6 C        2.938    -0.030    28.759     8.795
    34   6 C        2.917    -0.029    28.737     8.791
    35   6 C        2.921    -0.028    28.696     8.785
    36   6 C        2.917    -0.029    28.719     8.788
    37   6 C        2.936    -0.031    28.785     8.799
    38   6 C        2.934    -0.031    28.764     8.796
    39   6 C        3.029    -0.020    28.481     8.754
    40   1 H        0.926     0.061     2.189     2.314
    41   1 H        0.926     0.039     2.461     2.453
    42   1 H        0.926     0.037     2.490     2.468
    43   1 H        0.926     0.035     2.517     2.481
    44   1 H        0.926     0.037     2.483     2.464
    45   1 H        0.926     0.060     2.199     2.319
    46   1 H        0.926     0.039     2.461     2.453
    47   1 H        0.926     0.037     2.490     2.468
    48   1 H        0.926     0.035     2.518     2.481
    49   1 H        0.925     0.037     2.491     2.468
    50   1 H        0.925     0.034     2.527     2.486
    51   1 H        0.925     0.024     2.669     2.555
    52   1 H        0.925     0.020     2.737     2.587
    53   1 H        0.926     0.028     2.608     2.525
    54   1 H        0.926     0.030     2.592     2.517
    55   1 H        0.926     0.029     2.606     2.525
    56   1 H        0.926     0.020     2.737     2.587
    57   1 H        0.925     0.020     2.726     2.582
    58   1 H        0.926     0.029     2.598     2.521
    59   1 H        0.926     0.030     2.590     2.517
    60   1 H        0.926     0.028     2.610     2.527
    61   1 H        0.926     0.021     2.714     2.576
    62   1 H        0.925     0.018     2.762     2.599
    63   1 H        0.926     0.027     2.623     2.533
    64   1 H        0.926     0.029     2.598     2.520
    65   1 H        0.926     0.029     2.607     2.525
    66   1 H        0.926     0.022     2.704     2.572
    67   1 H        0.926     0.030     2.593     2.518
    68   1 H        0.926     0.057     2.238     2.339

molecular dipole:
                 x           y           z       tot (Debye)
 q only:       -0.406       0.068       1.316
   full:       -0.407       0.080       1.597       4.194

 projected vibrational frequencies (cm⁻¹)
eigval :       -0.00    -0.00    -0.00     0.00     0.00     0.00
eigval :        4.96    11.86    20.80    23.12    25.22    26.39
eigval :       28.98    33.83    34.86    37.66    40.92    44.23
eigval :       46.37    49.03    58.66   115.30   123.49   152.38
eigval :      158.26   161.97   167.66   175.84   188.99   210.93
eigval :      212.89   218.66   227.11   230.05   267.72   281.52
eigval :      285.33   302.56   353.07   358.56   358.75   361.16
eigval :      362.84   364.33   376.22   411.12   415.67   422.14
eigval :      434.40   436.30   453.99   479.35   482.08   493.02
eigval :      517.40   562.16   585.97   586.80   589.10   589.74
eigval :      590.72   600.07   658.22   658.90   662.97   663.21
eigval :      663.48   668.39   669.31   686.55   707.06   708.93
eigval :      715.10   734.64   736.11   736.26   740.15   743.45
eigval :      764.43   791.63   879.03   879.52   881.88   882.71
eigval :      882.88   884.86   902.96   905.37   905.91   907.08
eigval :      908.61   921.91   927.43   928.43   931.09   931.79
eigval :      932.58   933.89   934.15   934.98   935.39   935.49
eigval :      935.74   972.40   975.46   975.60   977.15   977.30
eigval :      996.91  1078.21  1078.67  1084.97  1085.80  1085.93
eigval :     1113.08  1115.34  1120.82  1121.94  1122.93  1123.39
eigval :     1127.51  1127.92  1137.38  1144.30  1151.05  1151.45
eigval :     1151.99  1180.70  1180.83  1182.72  1182.80  1182.93
eigval :     1191.24  1193.78  1204.48  1207.15  1207.86  1210.95
eigval :     1261.26  1269.61  1270.42  1275.16  1287.63  1288.25
eigval :     1290.84  1311.43  1311.59  1312.48  1313.97  1321.60
eigval :     1321.71  1377.70  1419.35  1420.08  1421.61  1424.44
eigval :     1425.41  1453.87  1454.57  1460.26  1464.52  1465.41
eigval :     1465.76  1558.01  1576.53  1576.76  1577.41  1581.89
eigval :     1583.74  1584.14  1587.05  1587.98  1593.51  1593.68
eigval :     1594.84  3058.12  3059.32  3061.15  3062.39  3065.17
eigval :     3065.35  3065.66  3066.26  3067.39  3068.97  3069.87
eigval :     3071.06  3071.43  3071.93  3074.25  3074.47  3077.26
eigval :     3077.34  3077.40  3077.76  3077.93  3078.67  3083.96
eigval :     3084.24  3086.37  3086.62  3087.26  3091.43  3091.95

   temp. (K)  partition function   enthalpy   heat capacity  entropy
                                   cal/mol     cal/K/mol   cal/K/mol   J/K/mol
 298.15  VIB  0.891E+19            20776.417    119.825    133.279
         ROT  0.515E+08              888.752      2.981     38.270
         INT  0.459E+27            21665.169    122.805    171.549
         TR   0.120E+29             1481.254      4.968     44.706
         TOT                       23146.4229   127.7736   216.2552   904.8116

       T/K    H(0)-H(T)+PV         H(T)/Eh          T*S/Eh         G(T)/Eh
   ------------------------------------------------------------------------
    298.15    0.368862E-01    0.561374E+00    0.102750E+00    0.458624E+00
   ------------------------------------------------------------------------

         :::::::::::::::::::::::::::::::::::::::::::::::::::::
         ::                  THERMODYNAMIC                  ::
         :::::::::::::::::::::::::::::::::::::::::::::::::::::
         :: total free energy         -99.691501490075 Eh   ::
         ::.................................................::
         :: total energy             -100.150125494055 Eh   ::
         :: zero point energy           0.524487631767 Eh   ::
         :: G(RRHO) w/o ZPVE           -0.065863627788 Eh   ::
         :: G(RRHO) contrib.            0.458624003980 Eh   ::
         :::::::::::::::::::::::::::::::::::::::::::::::::::::

           -------------------------------------------------
          | TOTAL ENERGY             -100.150125494055 Eh   |
          | TOTAL ENTHALPY            -99.588751689539 Eh   |
          | TOTAL FREE ENERGY         -99.691501490075 Eh   |
          | GRADIENT NORM               0.000046729590 Eh/α |
          | HOMO-LUMO GAP               3.575044399706 eV   |
           -------------------------------------------------

 * finished run on 2025/08/24 at 18:46:11.004
