   * xtb version 6.7.1 (edcfbbe) compiled by 'albert@albert-system' on 2024-07-22

   ID    Z sym.   atoms
    1    6 C      1-8, 10-19, 21-30, 32-44, 46-75
    2    7 N      9, 31, 45
    3    5 B      20
    4    1 H      76-145

          program call               : xtb data2507/gas/tDPAC-BN/tDPAC-BN_gas_S0_finalOpt.xtbopt.xyz --gfn 2 --spinpol --tblite --uhf 2 --ohess vtight --parallel 40 --molden --ceasefiles --namespace data2507/gas/tDPAC-BN/tDPAC-BN_gas_T1_preOpt
 * total energy  :  -197.8005154 Eh     change       -0.7702997E-07 Eh
 * total energy  :  -197.8014491 Eh     change       -0.9336773E-03 Eh
 * total energy  :  -197.8016677 Eh     change       -0.2186612E-03 Eh
 * total energy  :  -197.8016953 Eh     change       -0.2761471E-04 Eh
 * total energy  :  -197.8017271 Eh     change       -0.3175875E-04 Eh
 * total energy  :  -197.8017426 Eh     change       -0.1549108E-04 Eh
 * total energy  :  -197.8017802 Eh     change       -0.3756071E-04 Eh
 * total energy  :  -197.8017949 Eh     change       -0.1472632E-04 Eh
 * total energy  :  -197.8018021 Eh     change       -0.7218743E-05 Eh
 * total energy  :  -197.8018156 Eh     change       -0.1351659E-04 Eh
 * total energy  :  -197.8019401 Eh     change       -0.2678628E-06 Eh
 * total energy  :  -197.8019406 Eh     change       -0.5208874E-06 Eh
 * total energy  :  -197.8019411 Eh     change       -0.4220013E-06 Eh
 * total energy  :  -197.8019415 Eh     change       -0.3909137E-06 Eh
 * total energy  :  -197.8019416 Eh     change       -0.1040838E-06 Eh
 * total energy  :  -197.8019417 Eh     change       -0.1673418E-06 Eh
 * total energy  :  -197.8019419 Eh     change       -0.2010479E-06 Eh
 * total energy  :  -197.8019422 Eh     change       -0.2328256E-06 Eh
 * total energy  :  -197.8019422 Eh     change       -0.7858964E-07 Eh
   *** GEOMETRY OPTIMIZATION CONVERGED AFTER 58 ITERATIONS ***

 final structure:
================
145
 xtb: 6.7.1 (edcfbbe)
C           -0.98179232079644       -7.40215490054349        0.68476945126144
C            0.48600805566465       -7.54120627439010        0.25497628279464
C            1.27391270285889       -8.30420078760717        1.32930075374162
C            0.52943850853581       -8.35678241528638       -1.03995211244065
C            1.08361707127622       -6.15350459025990        0.09366460743056
C            1.62680345588963       -5.69475093810528       -1.10146003733621
C            2.13793946433361       -4.41441143708115       -1.21778828141849
C            2.12031260777671       -3.55297740933934       -0.12883920433714
N            2.57548115546088       -2.21202886889306       -0.22951145745315
C            3.93205028709895       -1.94781534048538       -0.30182203301249
C            4.82787528041974       -3.01546473855473       -0.38645534423074
C            6.18281063352027       -2.79563734501546       -0.54580353914093
C            6.69049302594785       -1.49782325399440       -0.64815468715831
C            8.17760943798726       -1.30056838125303       -0.88799849965631
C            8.55466361884427       -1.95847966980216       -2.22338070961736
C            8.96486087589049       -1.95867455999429        0.25458588954517
C            8.58067190378810        0.17482756547891       -0.95069353590228
C            5.79772689584729       -0.44676348779525       -0.50828122557495
C            4.42347139127261       -0.61153408385097       -0.27649780344213
B            3.42412470072801        0.52998778287446       -0.01370278791068
C            3.64725398477455        2.02162975782933        0.28873633638624
C            4.87630170582269        2.59494574788686        0.65406014831276
C            5.08446051613029        3.95720394902954        0.78875889051314
C            6.42211182363990        4.56173902651126        1.17918036117851
C            6.24050448949853        5.37007722049652        2.47226011820314
C            6.90587463710092        5.48696338858983        0.05304988503287
C            7.50424196297864        3.50692458725281        1.42305819154572
C            4.00301218412387        4.80505441185540        0.52686843882775
C            2.75333062045198        4.29068317964611        0.24171015900024
C            2.53809829612302        2.91198558544033        0.18449064236633
N            1.25292290889850        2.43076506495850        0.00260998255587
C            0.17249650435584        3.32092375245270       -0.21364787525105
C           -0.50505611053626        3.28081029406846       -1.43077350071652
C           -1.60328686521328        4.08338372321294       -1.64554608241529
C           -2.06532603948358        4.96648742253103       -0.66834069681617
C           -3.28760920773475        5.82220969362181       -0.95576822126934
C           -4.48521678647581        4.90843628421499       -1.25516861787397
C           -3.66321695667163        6.73121786755053        0.21773157947289
C           -2.99466002952984        6.70987258611135       -2.17433739789833
C           -1.36724291340594        5.01149382107082        0.53413751539038
C           -0.27221104279102        4.19815793222477        0.76847482486420
C            0.93797655052943        1.07797655282708       -0.02994656412645
C           -0.39575329918836        0.68502560893815        0.01478194957665
C           -0.74727403452005       -0.65280486679804       -0.19643486585681
N           -2.12693097323518       -0.94037682458992       -0.29816588907023
C           -2.79270814009627       -1.81445239431208        0.54868101268418
C           -2.11606497785730       -2.80306237433632        1.26457018194150
C           -2.81145454840909       -3.72756619268176        2.01687624443772
C           -4.19332927913730       -3.68948882468988        2.06789446690372
C           -4.86761672516745       -2.67126291771059        1.41616408303888
C           -4.18689505951916       -1.71810394271025        0.67642786796075
C           -4.88291193119212       -0.47515278886306        0.14523786223143
C           -6.35486790188753       -0.72771370696868       -0.11761834174033
C           -7.35766770396425        0.10719934449343        0.35387708393978
C           -8.68532945626733       -0.15112955221928        0.05435721008453
C           -9.02711757898721       -1.24116703792220       -0.72522275454034
C           -8.03068663030600       -2.06981988919829       -1.21514811128638
C           -6.70665917900182       -1.81167968495395       -0.91740776650380
C           -4.65342879598711        0.58858031133484        1.22150469362809
C           -3.98089929545595        1.77416897290193        0.95919059538536
C           -3.74142616192282        2.68875427564669        1.97152496048367
C           -4.17979761143355        2.43948895702657        3.25855985556446
C           -4.86132870804888        1.26425469790547        3.52838871714496
C           -5.08841707498952        0.34616453354132        2.52111263080647
C           -4.21497305509757       -0.05292061547607       -1.14509667912393
C           -4.90223448801406        0.61976455399249       -2.14247625566003
C           -4.24815309293382        1.08194595869910       -3.27146698314680
C           -2.88820643732370        0.85961843032860       -3.41300772323095
C           -2.18993878544190        0.18497960405337       -2.43344053858334
C           -2.83944318203994       -0.26611798149411       -1.28202411870372
C            0.25511893518046       -1.60570269916729       -0.36867579422695
C            1.59234996313593       -1.23379823276821       -0.21135903823998
C            1.97139670992186        0.11932814890731       -0.08388198997989
C            1.59557278494509       -4.00237860252510        1.07864157570931
C            1.08979566699561       -5.28091012458518        1.18175480908298
H           -1.06887612745430       -6.90793425017846        1.64804183635918
H           -1.44271475072864       -8.38422859318793        0.76479716800238
H           -1.53661853986920       -6.81817856758017       -0.04676616688815
H            0.86452670565225       -9.30437503798015        1.45360544826532
H            2.31859186844658       -8.39264054964935        1.03813139780689
H            1.23007180970247       -7.79695747523706        2.28908468706622
H            0.08483369836927       -9.33461428363363       -0.86663094102959
H            1.55325040854873       -8.50966937906949       -1.37352755392643
H           -0.03538378622497       -7.86697857055485       -1.82981430412245
H            1.65138634559155       -6.32915684346527       -1.97210056541658
H            2.54247155164073       -4.07205496366683       -2.15913786424046
H            4.46966771548855       -4.03246730374535       -0.33133127990179
H            6.83667095420298       -3.65185392789675       -0.60636815284708
H            9.61749294629881       -1.82993097016182       -2.41916086697193
H            8.33530988142881       -3.02266496174234       -2.21509819730190
H            7.99514507117409       -1.50143087272843       -3.03713521032668
H           10.03282058974574       -1.80725074393085        0.10981541487129
H            8.77698021007313       -3.02757595437638        0.30286069440881
H            8.67936312040101       -1.51898723649714        1.20813855729081
H            8.06033250795936        0.69054039260480       -1.75449493163204
H            8.36821554255332        0.67354217136912       -0.00804524417750
H            9.65029417789843        0.25188888596363       -1.13784316120387
H            6.15326616352706        0.56469675497930       -0.59041685042610
H            5.68567638328150        1.91300760590855        0.84489105465520
H            5.89026618457492        4.72174909958588        3.27299569031751
H            5.51659437193634        6.16955032160510        2.34033017145563
H            7.18744159408845        5.81299018351373        2.77484493243620
H            6.20990030651246        6.30366247084735       -0.11686069124141
H            7.00731283194087        4.92699264909518       -0.87443346767877
H            7.87452750016832        5.91263010153501        0.30781643279803
H            8.42950246340850        3.99731958907012        1.72040339613387
H            7.70202090422842        2.93909352396091        0.51715454620730
H            7.21444474386054        2.82376881975216        2.21811060870536
H            4.12035387970586        5.87710153993846        0.56054293334723
H            1.93966118022334        4.97681422534781        0.06235326010907
H           -0.16506253421544        2.60521894417439       -2.20156157964804
H           -2.10865961348869        4.01369533393268       -2.59642871378377
H           -4.72634432790866        4.30216037194216       -0.38469338825949
H           -4.28009763054728        4.23964458117638       -2.08678805111917
H           -5.35683224271284        5.50878930944693       -1.50728154812434
H           -3.90588529040695        6.14907062321406        1.10392180506277
H           -2.85718759362902        7.42284578262346        0.45244657517673
H           -4.54126053074769        7.31712792521215       -0.04608286693845
H           -2.79766966840460        6.11313191522043       -3.06044872333416
H           -2.12541872454427        7.33627691689828       -1.98421143899171
H           -3.84605172791337        7.35485165932222       -2.38076203797732
H           -1.67404368449211        5.68188447300770        1.32110229296554
H            0.23256984696542        4.22966379314094        1.72297898776840
H           -1.18834565943070        1.39891690723338        0.17548326581900
H           -1.03978348927097       -2.84281077461433        1.24340161729622
H           -2.26764531345040       -4.48617974158846        2.55993881803755
H           -4.74260210950385       -4.42502679972266        2.63551002149827
H           -5.94360295062754       -2.61249389821224        1.49550146862089
H           -7.10572850092437        0.96828402175047        0.95523147545661
H           -9.45465876688226        0.50708723274960        0.43158784132622
H          -10.06307619676499       -1.44189485224854       -0.95559364101780
H           -8.28688810122193       -2.91830024602562       -1.83284982153598
H           -5.93013633220296       -2.45578996948684       -1.30535445239902
H           -3.63972424516622        2.00000424972850       -0.04058264869165
H           -3.20142405663518        3.59649811757907        1.74502440066087
H           -3.99209582581814        3.15368209182961        4.04685589071169
H           -5.21230340249792        1.05884116717139        4.52928878524106
H           -5.61049429645299       -0.57182242646005        2.74578842701102
H           -5.95995048548584        0.80303061391796       -2.02488570645309
H           -4.79770677673025        1.61467988795002       -4.03278053532568
H           -2.36905868948538        1.20815255698018       -4.29395211767370
H           -1.13353884844984       -0.00288865057137       -2.55193270001604
H           -0.01095755089557       -2.61787182243812       -0.62931156665356
H            1.58724204741795       -3.33717883949678        1.93023858546399
H            0.68990382011185       -5.59810822726446        2.13253585386215

 projected vibrational frequencies (cm⁻¹)
eigval :       -0.00    -0.00    -0.00    -0.00     0.00     0.00
eigval :        7.65    11.48    12.32    15.94    18.13    20.81
eigval :       21.85    24.66    27.70    29.77    36.29    37.64
eigval :       40.31    46.97    47.07    56.21    63.73    64.28
eigval :       67.47    71.68    72.74    74.23    80.48    90.43
eigval :       93.22    94.77    98.25   107.99   115.57   118.97
eigval :      135.21   143.71   145.57   160.07   162.70   173.11
eigval :      176.10   178.72   179.07   179.90   183.48   193.79
eigval :      205.40   210.85   218.49   221.15   222.61   226.23
eigval :      229.81   233.02   235.33   241.51   248.03   250.37
eigval :      253.53   259.41   266.83   271.71   279.10   281.44
eigval :      287.57   302.97   306.94   311.97   313.21   314.02
eigval :      315.32   316.92   318.08   332.07   334.73   346.40
eigval :      348.30   352.87   354.08   361.39   367.77   370.70
eigval :      372.29   375.20   378.31   380.32   383.60   393.80
eigval :      396.57   398.36   402.83   407.64   408.47   419.00
eigval :      422.69   424.82   436.18   438.85   444.81   446.96
eigval :      455.66   458.94   460.48   468.93   470.03   474.41
eigval :      485.66   487.89   499.71   507.83   513.46   518.95
eigval :      523.42   527.39   530.93   552.57   560.48   563.94
eigval :      578.03   588.31   588.76   590.47   593.83   596.87
eigval :      600.28   606.05   609.37   610.74   615.34   616.53
eigval :      620.92   627.93   652.34   662.34   664.59   667.75
eigval :      672.93   675.42   688.65   688.99   693.65   696.72
eigval :      698.45   703.78   715.99   722.61   728.37   754.74
eigval :      758.54   768.94   773.69   777.62   791.08   791.49
eigval :      798.63   807.52   815.20   819.79   842.48   846.57
eigval :      862.94   868.44   868.87   870.03   871.83   873.70
eigval :      873.96   877.70   879.19   880.50   882.61   883.82
eigval :      886.98   893.04   899.54   900.57   904.00   905.25
eigval :      911.18   914.77   915.80   917.66   919.50   921.37
eigval :      922.06   923.32   925.41   928.47   930.12   931.02
eigval :      932.85   933.38   938.96   943.16   945.94   958.02
eigval :      958.87   960.21   960.39   961.40   962.06   962.17
eigval :      962.64   963.21   963.33   964.06   965.35   966.44
eigval :      986.01  1000.99  1007.37  1012.41  1031.93  1032.98
eigval :     1034.19  1034.40  1034.59  1034.88  1035.38  1036.13
eigval :     1036.89  1085.78  1088.11  1088.91  1092.01  1103.31
eigval :     1107.33  1119.89  1124.04  1128.17  1132.94  1133.82
eigval :     1140.47  1141.03  1145.20  1147.11  1154.99  1160.93
eigval :     1173.18  1181.85  1182.30  1182.64  1183.07  1184.06
eigval :     1189.90  1195.56  1198.95  1202.61  1206.29  1207.27
eigval :     1212.05  1220.26  1222.53  1224.00  1225.60  1225.85
eigval :     1226.95  1228.32  1229.45  1230.10  1232.55  1233.12
eigval :     1241.81  1244.21  1248.96  1257.35  1263.86  1265.42
eigval :     1267.81  1274.12  1276.16  1279.80  1280.62  1284.83
eigval :     1286.11  1288.39  1292.43  1295.56  1300.08  1306.18
eigval :     1307.07  1318.23  1319.33  1321.78  1322.56  1325.92
eigval :     1330.38  1334.88  1336.79  1340.31  1350.45  1363.69
eigval :     1373.23  1384.83  1398.03  1398.71  1403.23  1403.90
eigval :     1404.41  1404.83  1406.09  1406.86  1408.96  1409.73
eigval :     1412.40  1416.07  1426.97  1427.13  1428.62  1429.42
eigval :     1430.88  1435.36  1439.40  1441.03  1447.35  1462.78
eigval :     1471.80  1473.47  1474.74  1476.49  1478.15  1481.04
eigval :     1484.30  1491.31  1491.32  1491.85  1492.27  1493.08
eigval :     1494.64  1494.83  1494.99  1495.10  1499.40  1500.15
eigval :     1501.02  1501.06  1503.54  1505.20  1505.37  1506.59
eigval :     1509.93  1511.88  1513.88  1514.37  1515.11  1518.56
eigval :     1518.89  1518.95  1522.33  1532.79  1537.43  1542.37
eigval :     1555.28  1565.53  1575.52  1576.58  1582.38  1586.02
eigval :     1586.64  1589.44  1594.99  1600.36  1602.85  3016.98
eigval :     3017.44  3018.71  3018.89  3022.95  3024.01  3024.71
eigval :     3025.65  3025.95  3026.10  3026.43  3026.67  3026.96
eigval :     3027.96  3029.51  3029.72  3031.03  3031.37  3032.58
eigval :     3032.69  3035.07  3035.30  3036.45  3036.80  3036.85
eigval :     3039.33  3039.68  3039.93  3045.38  3045.41  3046.56
eigval :     3047.73  3049.00  3049.34  3050.53  3052.06  3070.41
eigval :     3072.54  3072.77  3074.04  3075.70  3077.78  3079.00
eigval :     3079.05  3079.66  3080.69  3080.79  3083.32  3083.43
eigval :     3084.24  3084.90  3085.25  3087.66  3091.90  3092.21
eigval :     3092.79  3092.93  3093.34  3094.06  3094.44  3096.03
eigval :     3096.51  3096.97  3100.17  3103.36  3107.78  3116.56
eigval :     3120.91  3136.66  3144.75

   temp. (K)  partition function   enthalpy   heat capacity  entropy
                                   cal/mol     cal/K/mol   cal/K/mol   J/K/mol
 298.15  VIB  0.567E+33            41953.327    258.566    261.171
         ROT  0.254E+09              888.752      2.981     41.437
         INT  0.144E+42            42842.079    261.547    302.608
         TR   0.295E+29             1481.254      4.968     46.488
         TOT                       44323.3332   266.5153   349.0961  1460.6182

       T/K    H(0)-H(T)+PV         H(T)/Eh          T*S/Eh         G(T)/Eh
   ------------------------------------------------------------------------
    298.15    0.706337E-01    0.126390E+01    0.165867E+00    0.109803E+01
   ------------------------------------------------------------------------

         :::::::::::::::::::::::::::::::::::::::::::::::::::::
         ::                  THERMODYNAMIC                  ::
         :::::::::::::::::::::::::::::::::::::::::::::::::::::
         :: total free energy        -196.703907508044 Eh   ::
         ::.................................................::
         :: total energy             -197.801942303522 Eh   ::
         :: zero point energy           1.193267903853 Eh   ::
         :: G(RRHO) w/o ZPVE           -0.095233108375 Eh   ::
         :: G(RRHO) contrib.            1.098034795478 Eh   ::
         :::::::::::::::::::::::::::::::::::::::::::::::::::::

           -------------------------------------------------
          | TOTAL ENERGY             -197.801942303522 Eh   |
          | TOTAL ENTHALPY           -196.538040672227 Eh   |
          | TOTAL FREE ENERGY        -196.703907508044 Eh   |
          | GRADIENT NORM               0.000060792008 Eh/α |
           -------------------------------------------------

 * finished run on 2025/09/11 at 13:09:21.272
