   * xtb version 6.7.1 (edcfbbe) compiled by 'albert@albert-system' on 2024-07-22

   ID    Z sym.   atoms
    1    6 C      1-8, 10-19, 21-30, 32-44, 46-75
    2    7 N      9, 31, 45
    3    5 B      20
    4    1 H      76-145

          program call               : xtb data2507/gas/tDPAC-BN/tDPAC-BN.xyz --gfn 2 --ohess vtight --parallel 40 --molden --ceasefiles --namespace data2507/gas/tDPAC-BN/tDPAC-BN_gas_S0_preOpt
          :  Hamiltonian                  GFN2-xTB          :
 * total energy  :  -197.7559287 Eh     change       -0.8180251E-08 Eh
 * total energy  :  -197.8233864 Eh     change       -0.6745769E-01 Eh
 * total energy  :  -197.8489655 Eh     change       -0.2557911E-01 Eh
 * total energy  :  -197.8585606 Eh     change       -0.9595054E-02 Eh
 * total energy  :  -197.8639425 Eh     change       -0.5381894E-02 Eh
 * total energy  :  -197.8677464 Eh     change       -0.3803950E-02 Eh
 * total energy  :  -197.8708966 Eh     change       -0.3150195E-02 Eh
 * total energy  :  -197.8736706 Eh     change       -0.2773975E-02 Eh
 * total energy  :  -197.8760516 Eh     change       -0.2381021E-02 Eh
 * total energy  :  -197.8779654 Eh     change       -0.1913763E-02 Eh
 * total energy  :  -197.8881720 Eh     change       -0.9647123E-06 Eh
 * total energy  :  -197.8881729 Eh     change       -0.8749526E-06 Eh
 * total energy  :  -197.8881736 Eh     change       -0.6853735E-06 Eh
 * total energy  :  -197.8881741 Eh     change       -0.5318875E-06 Eh
 * total energy  :  -197.8881746 Eh     change       -0.5156902E-06 Eh
 * total energy  :  -197.8881752 Eh     change       -0.5549808E-06 Eh
 * total energy  :  -197.8881758 Eh     change       -0.6416965E-06 Eh
 * total energy  :  -197.8881765 Eh     change       -0.6447689E-06 Eh
 * total energy  :  -197.8881765 Eh     change       -0.2158714E-08 Eh
   *** GEOMETRY OPTIMIZATION CONVERGED AFTER 152 ITERATIONS ***

 final structure:
================
145
 xtb: 6.7.1 (edcfbbe)
C           -0.44021649756902       -8.16327605395223        1.00724679947422
C           -0.00914860883554       -7.58722915723358       -0.34425138706879
C            1.06953848263989       -8.50663479026512       -0.93430714652593
C           -1.23597512382032       -7.56243409694622       -1.26692459495798
C            0.54973818260478       -6.17800517704617       -0.22946250163502
C            0.98943248742263       -5.51993520655190       -1.37632230137909
C            1.49930950885983       -4.23726541985467       -1.32465120372048
C            1.58661264917389       -3.57602574720720       -0.10818565787463
N            2.09349862216404       -2.24406419267712       -0.04439429733058
C            3.45177924245098       -2.06734386840080        0.14638434433693
C            4.26943349891361       -3.19771732613731        0.27255882741524
C            5.61462077967621       -3.07273404290639        0.51744301604729
C            6.20982554888547       -1.81897604850186        0.67884037859965
C            7.69499980952885       -1.73031040511579        0.99416847982832
C            8.19341535339542       -0.28598117517275        1.09379794557729
C            8.48859222441262       -2.42886739151165       -0.11934991531201
C            7.96266016900419       -2.42504774464003        2.33648218174340
C            5.39378069657202       -0.71407074087235        0.54076773050557
C            4.02730499180238       -0.78256888558784        0.23571856014840
B            3.10714794295623        0.44015081164521        0.02264131586940
C            3.44573628459882        1.93641524488843       -0.16158066396910
C            4.72418676710193        2.44892414483185       -0.40427093083499
C            5.01728641117833        3.79801347575177       -0.50135525287908
C            6.44949945406005        4.24573278964901       -0.75136375328493
C            6.57788781695259        5.76663303004970       -0.87342089448820
C            6.95826546436232        3.61947514181819       -2.05732440393283
C            7.32662888130672        3.78376794941042        0.42102085168364
C            3.95797834008823        4.68944693589424       -0.34088124786626
C            2.67204555629140        4.23631496833741       -0.15495868420699
C            2.38623569261393        2.86804700905931       -0.09510637720714
N            1.06883720485659        2.46316220548310        0.02326909855257
C            0.05102164132387        3.46247137701501        0.04092363057412
C           -0.40655969271231        4.01283827239576       -1.14895314527266
C           -1.40364786433349        4.96670899187666       -1.12933568152813
C           -1.98017183490572        5.39432401626943        0.06513541957231
C           -3.07404153437846        6.44880088691738        0.02785925384113
C           -4.22124359956778        5.94889344126717       -0.86159401611069
C           -3.64201452487102        6.75489541078516        1.41600493720852
C           -2.49186887659818        7.74629743163768       -0.55113854320443
C           -1.51172473895588        4.83032521683671        1.24561378636231
C           -0.50742789892934        3.87741416393563        1.23881596223078
C            0.65972217388063        1.15066224578966       -0.00234055107236
C           -0.70279736245053        0.84706059642679       -0.00917874203609
C           -1.10641251251430       -0.47497527204715       -0.07567659009081
N           -2.50196541484157       -0.74364628285998       -0.09880879849359
C           -3.11601978100547       -1.37370738847171        0.97084218619471
C           -2.36823368461926       -1.94371030749363        2.00378602286027
C           -2.98940574391718       -2.60382190569750        3.04442282326312
C           -4.36862880874557       -2.70588790909489        3.08175667408715
C           -5.11872367906173       -2.10382319567041        2.08704836520589
C           -4.51548874650044       -1.42885170485936        1.03751898216316
C           -5.35067054746804       -0.65546151227436        0.03474645258122
C           -6.67156191356451       -1.38253403390683       -0.14889908658975
C           -7.86447716949181       -0.93018420408211        0.39815486968390
C           -9.03264647653889       -1.65669427113721        0.23697075117045
C           -9.02368779041797       -2.84913899490854       -0.46376555015801
C           -7.83361532910439       -3.31952493737695       -0.99391882511740
C           -6.66836167378825       -2.59486939971508       -0.83254917697423
C           -5.54019698355728        0.78736429982086        0.50700703499155
C           -6.33361739628994        1.65191247690377       -0.24191487258994
C           -6.52828722704438        2.96099316414399        0.15416902646785
C           -5.91821174831822        3.43948836143154        1.30212105967072
C           -5.10294034427515        2.59855662347976        2.03631503530982
C           -4.91691972991354        1.28310799008093        1.64411756228802
C           -4.60080048796964       -0.55232784430212       -1.28165628478896
C           -5.27089783901749       -0.40775420344317       -2.48666489303845
C           -4.58575446852288       -0.18647899088730       -3.66796447891877
C           -3.20412270171647       -0.10745381825067       -3.64877062609968
C           -2.51672638207553       -0.27989350515943       -2.46534311599313
C           -3.20257563113211       -0.50827731265590       -1.27030235066732
C           -0.18767823183447       -1.50951671155052       -0.12879791464589
C            1.17604134208642       -1.21904566256543       -0.05466110614666
C            1.62279343453839        0.11863605356681       -0.00694362648039
C            1.15673785486709       -4.21607138077069        1.04444235217749
C            0.64444609471495       -5.49954480757136        0.98019331244411
H            0.40097901548759       -8.22424992677950        1.69395586789355
H           -0.82877462273172       -9.16942240788209        0.86371867463526
H           -1.22690941610855       -7.56157549156604        1.45646628588530
H            0.69396852370090       -9.52502985159267       -1.00619107734581
H            1.36751438678547       -8.18389462545394       -1.92794202387567
H            1.95170275129656       -8.50865243915611       -0.29728169827302
H           -1.66357979966733       -8.55950444705525       -1.34689001779423
H           -0.97570535885662       -7.22325954070015       -2.26571594771358
H           -1.99421998547893       -6.89279890437000       -0.86608980932794
H            0.93367184174408       -6.01011146367579       -2.33628217477879
H            1.83285706272695       -3.74139189230447       -2.22431727211204
H            3.84144960776886       -4.18569602708539        0.18786324972417
H            6.20433220575519       -3.97315347686367        0.60525708687230
H            9.25902944032441       -0.28352552852886        1.31550859896948
H            8.04640287691331        0.24061674059565        0.15328566687309
H            7.68458315714802        0.25190331054175        1.89054035651666
H            9.55650019270402       -2.35250870793610        0.07571586129739
H            8.27867427616679       -1.96208838988907       -1.07974761518785
H            8.23178777805943       -3.48212890602845       -0.18997261110933
H            7.39635331190086       -1.94016079397614        3.12914742753560
H            7.67285844633340       -3.47187824109798        2.30299367880075
H            9.02087045893217       -2.37133241549633        2.58475801554921
H            5.80521881355486        0.26636528787759        0.69954551459673
H            5.51974163858219        1.73664890377351       -0.54550901999378
H            6.27701928078283        6.26064974444141        0.04765837034433
H            5.97322673322317        6.14497830134244       -1.69465153237848
H            7.61568191647708        6.02915701125372       -1.07035698322020
H            6.94938415014200        2.53419505709577       -2.00794750354585
H            7.97829788591327        3.94246027964810       -2.25627804060503
H            6.32980395958683        3.92669034133515       -2.89080421101265
H            8.35524276391478        4.10704775369939        0.27348926683774
H            7.32025051582816        2.70183597510275        0.51545755015948
H            6.96134402081982        4.20878856289367        1.35385504857811
H            4.11870550281948        5.75480598711075       -0.37650960455293
H            1.87385055012272        4.95788889602780       -0.06217281892501
H            0.02633488038056        3.68923642247749       -2.08418465512103
H           -1.73627791974607        5.37953011544650       -2.06922459540774
H           -4.58206364015208        4.98657794109164       -0.50475338739047
H           -3.90290441998222        5.83108265914819       -1.89349585426816
H           -5.04543372774294        6.65885025403989       -0.84209141349420
H           -4.05914404231291        5.85929078499616        1.86943464550364
H           -2.87730356124948        7.16526186010829        2.07165214950429
H           -4.43698962710487        7.49277052852155        1.32793651690374
H           -1.67171726027027        8.10156548777139        0.06957733778009
H           -3.25819753086594        8.51768906430190       -0.58505371921346
H           -2.11505208378336        7.59520958457319       -1.55903319768645
H           -1.92283564386155        5.12561794733002        2.19663937572012
H           -0.15554822900997        3.44814490066456        2.16545945742786
H           -1.45607716510326        1.61875279703180        0.01361037310032
H           -1.29336717248493       -1.85948450367229        1.99478051916972
H           -2.38931213046668       -3.03875951849361        3.83032280928694
H           -4.85967106925259       -3.22592552432830        3.88998088204249
H           -6.19659186078889       -2.14182539131007        2.13877189945714
H           -7.88634296382908       -0.00818295196007        0.96043878623106
H           -9.95303194822531       -1.28806411521825        0.66661549356092
H           -9.93622362545845       -3.41305858709770       -0.58998810892313
H           -7.81324341622970       -4.25594419221237       -1.53238369852121
H           -5.74046305601901       -2.96862714700821       -1.24192814189685
H           -6.81513183672385        1.29465154397058       -1.13917655414292
H           -7.16060702513151        3.61045913471896       -0.43410177336203
H           -6.08366076093532        4.45860694869098        1.62001436328145
H           -4.61156009917607        2.96079737686009        2.92809118876797
H           -4.28771808964805        0.64259658065889        2.24331379558287
H           -6.34906888299133       -0.47328024960709       -2.50547843596938
H           -5.12874317616579       -0.07033336371380       -4.59359421181096
H           -2.65624479732011        0.07404329281661       -4.56172976882421
H           -1.43806779912585       -0.24610775446120       -2.45901203046071
H           -0.54271063044092       -2.52417148797424       -0.21645952876762
H            1.22368326259026       -3.70241342565595        1.99250357425484
H            0.31760116181229       -5.96137538783179        1.89697150919016

          :  Hamiltonian                  GFN2-xTB          :
         :: gradient norm              0.000039814127 Eh/a0 ::
         :: HOMO-LUMO gap              2.366692857122 eV    ::
         :: SCC energy              -201.423046226288 Eh    ::
         :: -> dispersion             -0.208965197773 Eh    ::
         :: repulsion energy           3.534869740729 Eh    ::

    * Orbital Energies and Occupations

         #    Occupation            Energy/Eh            Energy/eV
      -------------------------------------------------------------
         1        2.0000           -0.6622461             -18.0206
       ...           ...                  ...                  ...
       174        2.0000           -0.3952582             -10.7555
       175        2.0000           -0.3949346             -10.7467
       176        2.0000           -0.3894479             -10.5974
       177        2.0000           -0.3886088             -10.5746
       178        2.0000           -0.3852127             -10.4822
       179        2.0000           -0.3842194             -10.4551
       180        2.0000           -0.3835174             -10.4360
       181        2.0000           -0.3811532             -10.3717
       182        2.0000           -0.3724927             -10.1360
       183        2.0000           -0.3718727             -10.1192
       184        2.0000           -0.3547264              -9.6526
       185        2.0000           -0.3390131              -9.2250
       186        2.0000           -0.3365581              -9.1582 (HOMO)
       187                         -0.2495837              -6.7915 (LUMO)
       188                         -0.2293414              -6.2407
       189                         -0.2277154              -6.1965
       190                         -0.2268833              -6.1738
       191                         -0.2257577              -6.1432
       192                         -0.2241495              -6.0994
       193                         -0.2191909              -5.9645
       194                         -0.2178391              -5.9277
       195                         -0.2165729              -5.8932
       196                         -0.2155496              -5.8654
       197                         -0.2131101              -5.7990
       ...                                ...                  ...
       370                          0.7232942              19.6818
      -------------------------------------------------------------
                  HL-Gap            0.0869743 Eh            2.3667 eV

     #   Z          covCN         q      C6AA      α(0)
     1   6 C        3.761    -0.109    22.624     6.781
     2   6 C        3.903     0.026    20.082     6.370
     3   6 C        3.762    -0.106    22.574     6.773
     4   6 C        3.762    -0.106    22.572     6.773
     5   6 C        2.973     0.009    27.803     8.649
     6   6 C        2.928    -0.034    28.852     8.809
     7   6 C        2.920    -0.040    29.004     8.832
     8   6 C        2.935     0.065    26.552     8.451
     9   7 N        2.755    -0.051    22.235     7.003
    10   6 C        2.928     0.055    26.762     8.484
    11   6 C        2.918    -0.058    29.453     8.900
    12   6 C        2.928    -0.034    28.850     8.809
    13   6 C        2.969    -0.006    28.162     8.705
    14   6 C        3.903     0.025    20.101     6.373
    15   6 C        3.761    -0.104    22.534     6.767
    16   6 C        3.762    -0.104    22.532     6.767
    17   6 C        3.762    -0.104    22.534     6.767
    18   6 C        2.931    -0.045    29.129     8.851
    19   6 C        2.886    -0.086    30.155     9.003
    20   5 B        2.724     0.189    18.544     7.216
    21   6 C        2.886    -0.086    30.147     9.002
    22   6 C        2.933    -0.041    29.027     8.836
    23   6 C        2.969    -0.006    28.160     8.704
    24   6 C        3.903     0.025    20.099     6.373
    25   6 C        3.761    -0.105    22.561     6.771
    26   6 C        3.761    -0.104    22.541     6.768
    27   6 C        3.762    -0.105    22.543     6.768
    28   6 C        2.926    -0.038    28.955     8.824
    29   6 C        2.919    -0.059    29.468     8.902
    30   6 C        2.928     0.055    26.764     8.484
    31   7 N        2.755    -0.051    22.217     7.001
    32   6 C        2.935     0.064    26.563     8.453
    33   6 C        2.920    -0.040    28.983     8.828
    34   6 C        2.928    -0.034    28.849     8.808
    35   6 C        2.974     0.009    27.801     8.649
    36   6 C        3.903     0.026    20.083     6.370
    37   6 C        3.762    -0.107    22.592     6.776
    38   6 C        3.761    -0.108    22.606     6.778
    39   6 C        3.762    -0.106    22.566     6.772
    40   6 C        2.926    -0.038    28.947     8.823
    41   6 C        2.921    -0.040    29.006     8.832
    42   6 C        2.929     0.062    26.622     8.462
    43   6 C        2.922    -0.084    30.101     8.997
    44   6 C        2.926     0.065    26.552     8.450
    45   7 N        2.756    -0.071    22.624     7.064
    46   6 C        2.927     0.061    26.637     8.464
    47   6 C        2.922    -0.060    29.481     8.904
    48   6 C        2.920    -0.034    28.849     8.808
    49   6 C        2.917    -0.045    29.128     8.850
    50   6 C        2.924    -0.037    28.930     8.820
    51   6 C        2.986    -0.012    28.304     8.727
    52   6 C        3.922     0.010    20.351     6.412
    53   6 C        2.978     0.015    27.664     8.628
    54   6 C        2.923    -0.036    28.897     8.815
    55   6 C        2.920    -0.031    28.782     8.798
    56   6 C        2.920    -0.033    28.825     8.804
    57   6 C        2.919    -0.031    28.764     8.795
    58   6 C        2.926    -0.032    28.796     8.800
    59   6 C        2.982     0.014    27.699     8.633
    60   6 C        2.926    -0.034    28.858     8.810
    61   6 C        2.919    -0.032    28.809     8.802
    62   6 C        2.919    -0.034    28.858     8.809
    63   6 C        2.920    -0.031    28.778     8.797
    64   6 C        2.924    -0.036    28.898     8.816
    65   6 C        2.990    -0.011    28.284     8.724
    66   6 C        2.924    -0.036    28.896     8.815
    67   6 C        2.918    -0.045    29.123     8.850
    68   6 C        2.919    -0.034    28.841     8.807
    69   6 C        2.923    -0.057    29.408     8.893
    70   6 C        2.933     0.059    26.673     8.470
    71   6 C        2.920    -0.085    30.132     9.002
    72   6 C        2.929     0.060    26.647     8.466
    73   6 C        2.897    -0.111    30.805     9.100
    74   6 C        2.921    -0.039    28.975     8.827
    75   6 C        2.925    -0.038    28.949     8.824
    76   1 H        0.925     0.037     2.495     2.470
    77   1 H        0.925     0.038     2.475     2.460
    78   1 H        0.925     0.038     2.480     2.463
    79   1 H        0.925     0.039     2.461     2.453
    80   1 H        0.925     0.037     2.486     2.466
    81   1 H        0.925     0.034     2.524     2.484
    82   1 H        0.925     0.039     2.460     2.453
    83   1 H        0.925     0.037     2.487     2.466
    84   1 H        0.925     0.035     2.513     2.479
    85   1 H        0.926     0.036     2.497     2.471
    86   1 H        0.926     0.038     2.469     2.457
    87   1 H        0.926     0.018     2.762     2.599
    88   1 H        0.926     0.022     2.699     2.569
    89   1 H        0.925     0.033     2.541     2.493
    90   1 H        0.925     0.033     2.545     2.495
    91   1 H        0.925     0.035     2.519     2.482
    92   1 H        0.925     0.034     2.534     2.490
    93   1 H        0.925     0.032     2.559     2.502
    94   1 H        0.925     0.034     2.527     2.486
    95   1 H        0.925     0.032     2.555     2.500
    96   1 H        0.925     0.034     2.529     2.487
    97   1 H        0.925     0.034     2.533     2.489
    98   1 H        0.926     0.040     2.453     2.449
    99   1 H        0.926     0.034     2.526     2.485
   100   1 H        0.925     0.034     2.537     2.491
   101   1 H        0.925     0.033     2.539     2.492
   102   1 H        0.925     0.033     2.547     2.496
   103   1 H        0.925     0.035     2.510     2.478
   104   1 H        0.925     0.034     2.535     2.490
   105   1 H        0.925     0.032     2.565     2.504
   106   1 H        0.925     0.034     2.536     2.490
   107   1 H        0.925     0.037     2.489     2.467
   108   1 H        0.925     0.031     2.570     2.507
   109   1 H        0.926     0.029     2.602     2.523
   110   1 H        0.926     0.018     2.759     2.597
   111   1 H        0.926     0.038     2.475     2.460
   112   1 H        0.926     0.037     2.493     2.469
   113   1 H        0.925     0.039     2.469     2.457
   114   1 H        0.925     0.036     2.502     2.474
   115   1 H        0.925     0.038     2.480     2.463
   116   1 H        0.925     0.039     2.466     2.456
   117   1 H        0.925     0.035     2.510     2.478
   118   1 H        0.925     0.037     2.493     2.469
   119   1 H        0.925     0.034     2.531     2.488
   120   1 H        0.925     0.039     2.460     2.453
   121   1 H        0.925     0.037     2.493     2.469
   122   1 H        0.926     0.043     2.409     2.427
   123   1 H        0.926     0.038     2.471     2.458
   124   1 H        0.926     0.025     2.665     2.553
   125   1 H        0.926     0.031     2.578     2.511
   126   1 H        0.926     0.025     2.656     2.548
   127   1 H        0.926     0.024     2.669     2.555
   128   1 H        0.926     0.027     2.623     2.533
   129   1 H        0.926     0.030     2.588     2.516
   130   1 H        0.926     0.027     2.628     2.535
   131   1 H        0.926     0.027     2.627     2.534
   132   1 H        0.926     0.028     2.621     2.532
   133   1 H        0.926     0.028     2.617     2.530
   134   1 H        0.926     0.033     2.538     2.491
   135   1 H        0.926     0.028     2.618     2.530
   136   1 H        0.926     0.028     2.611     2.527
   137   1 H        0.926     0.025     2.655     2.548
   138   1 H        0.926     0.031     2.575     2.510
   139   1 H        0.926     0.027     2.629     2.535
   140   1 H        0.926     0.025     2.658     2.549
   141   1 H        0.926     0.026     2.637     2.539
   142   1 H        0.926     0.028     2.618     2.530
   143   1 H        0.926     0.026     2.641     2.541
   144   1 H        0.926     0.038     2.480     2.463
   145   1 H        0.926     0.044     2.398     2.422

molecular dipole:
                 x           y           z       tot (Debye)
 q only:        0.217      -0.027      -0.038
   full:        0.087      -0.086      -0.059       0.344

 projected vibrational frequencies (cm⁻¹)
eigval :       -0.00    -0.00    -0.00     0.00     0.00     0.00
eigval :        6.28     6.78    10.79    12.24    14.42    16.86
eigval :       17.03    22.02    28.03    30.15    32.79    35.98
eigval :       39.89    42.14    47.42    55.48    56.45    56.99
eigval :       63.98    68.07    70.39    73.88    76.57    86.11
eigval :       92.86    94.56    96.61    98.27   107.57   112.68
eigval :      128.64   143.07   146.68   152.75   165.83   175.43
eigval :      176.03   177.95   179.19   181.87   186.94   195.66
eigval :      205.09   216.63   219.98   221.79   221.86   222.66
eigval :      227.09   230.52   237.57   240.32   247.71   249.27
eigval :      253.12   258.25   262.43   273.55   284.41   289.39
eigval :      297.60   302.49   304.29   311.48   313.91   317.37
eigval :      318.41   319.88   320.19   325.85   336.86   349.40
eigval :      352.49   354.63   358.83   363.01   368.64   371.74
eigval :      376.84   379.47   379.92   380.78   383.60   394.21
eigval :      398.64   400.11   406.51   410.23   415.93   420.38
eigval :      426.90   431.78   441.40   447.52   448.82   451.23
eigval :      453.34   462.31   464.71   470.70   472.30   473.80
eigval :      486.32   490.26   500.23   514.15   517.37   521.10
eigval :      526.93   529.47   552.38   554.83   567.05   570.96
eigval :      583.75   587.90   588.64   588.97   595.13   595.63
eigval :      603.08   606.96   613.39   617.64   617.93   621.89
eigval :      629.62   651.16   659.91   666.21   666.95   672.51
eigval :      677.72   686.37   688.45   695.30   698.42   698.72
eigval :      710.53   712.34   719.73   726.17   733.16   754.21
eigval :      759.37   773.23   777.96   778.68   795.18   813.51
eigval :      817.28   818.54   820.29   820.95   843.07   866.27
eigval :      867.77   869.84   870.73   871.73   872.64   874.15
eigval :      874.73   875.87   881.32   882.20   894.30   894.70
eigval :      899.19   902.14   905.26   906.69   910.79   913.15
eigval :      913.53   913.94   914.74   918.69   918.82   921.28
eigval :      922.87   927.04   928.07   930.23   931.76   932.63
eigval :      933.31   934.36   935.66   945.37   948.21   959.91
eigval :      960.46   960.79   961.30   961.38   961.96   962.32
eigval :      963.09   963.20   964.00   964.02   964.19   970.13
eigval :      986.33  1000.43  1012.85  1016.74  1034.05  1034.94
eigval :     1035.38  1035.57  1035.96  1036.08  1036.20  1037.62
eigval :     1047.35  1088.66  1091.45  1099.27  1106.00  1108.31
eigval :     1110.93  1122.06  1127.00  1131.28  1138.35  1140.68
eigval :     1141.60  1143.96  1144.23  1145.15  1163.58  1170.68
eigval :     1181.93  1182.45  1183.55  1185.07  1185.53  1186.81
eigval :     1197.91  1200.23  1203.59  1203.91  1208.05  1213.78
eigval :     1217.44  1224.91  1227.86  1228.14  1228.18  1228.30
eigval :     1232.41  1233.35  1234.02  1234.39  1235.38  1240.60
eigval :     1244.19  1254.48  1261.79  1264.17  1269.40  1274.78
eigval :     1275.22  1279.81  1280.99  1283.98  1288.69  1293.04
eigval :     1294.28  1297.24  1298.95  1309.78  1310.85  1312.55
eigval :     1317.98  1318.65  1319.90  1323.00  1327.95  1335.49
eigval :     1339.79  1344.04  1347.81  1351.97  1380.68  1397.29
eigval :     1397.91  1398.59  1404.80  1405.51  1405.90  1406.68
eigval :     1406.92  1409.00  1409.62  1409.92  1427.62  1428.73
eigval :     1429.43  1429.79  1430.30  1430.50  1432.06  1435.89
eigval :     1439.63  1442.81  1443.95  1458.70  1472.30  1475.76
eigval :     1476.12  1477.58  1488.13  1489.61  1491.83  1492.46
eigval :     1492.57  1492.69  1493.00  1494.00  1495.12  1495.57
eigval :     1495.85  1501.63  1502.27  1502.59  1503.52  1505.91
eigval :     1506.23  1506.53  1507.32  1514.84  1515.11  1515.32
eigval :     1515.36  1519.38  1520.38  1520.99  1521.58  1539.44
eigval :     1545.36  1549.30  1566.78  1570.40  1571.27  1571.52
eigval :     1583.22  1586.74  1588.91  1589.83  1596.47  1599.60
eigval :     1601.42  1602.32  1603.22  1603.79  1604.00  3017.87
eigval :     3018.58  3019.75  3019.92  3022.43  3024.30  3024.36
eigval :     3025.40  3025.42  3026.13  3026.54  3027.37  3028.33
eigval :     3028.48  3029.22  3029.64  3031.50  3031.69  3032.83
eigval :     3033.22  3034.05  3035.63  3035.94  3036.65  3036.92
eigval :     3037.73  3040.19  3043.55  3044.53  3047.01  3047.08
eigval :     3047.57  3048.57  3051.15  3051.21  3055.18  3068.64
eigval :     3069.69  3071.89  3073.48  3074.35  3074.84  3075.47
eigval :     3078.18  3080.15  3081.83  3082.19  3082.85  3083.56
eigval :     3085.14  3085.39  3085.81  3086.91  3088.66  3091.85
eigval :     3092.00  3094.40  3095.63  3096.76  3097.94  3099.40
eigval :     3101.32  3103.52  3104.62  3108.00  3108.45  3115.58
eigval :     3118.37  3119.23  3147.15

   temp. (K)  partition function   enthalpy   heat capacity  entropy
                                   cal/mol     cal/K/mol   cal/K/mol   J/K/mol
 298.15  VIB  0.704E+34            41886.122    256.513    262.914
         ROT  0.264E+09              888.752      2.981     41.519
         INT  0.186E+43            42774.874    259.494    304.433
         TR   0.295E+29             1481.254      4.968     46.488
         TOT                       44256.1284   264.4623   350.9215  1468.2556

       T/K    H(0)-H(T)+PV         H(T)/Eh          T*S/Eh         G(T)/Eh
   ------------------------------------------------------------------------
    298.15    0.705266E-01    0.126766E+01    0.166734E+00    0.110092E+01
   ------------------------------------------------------------------------

         :::::::::::::::::::::::::::::::::::::::::::::::::::::
         ::                  THERMODYNAMIC                  ::
         :::::::::::::::::::::::::::::::::::::::::::::::::::::
         :: total free energy        -196.787253374091 Eh   ::
         ::.................................................::
         :: total energy             -197.888176485559 Eh   ::
         :: zero point energy           1.197130617468 Eh   ::
         :: G(RRHO) w/o ZPVE           -0.096207506001 Eh   ::
         :: G(RRHO) contrib.            1.100923111467 Eh   ::
         :::::::::::::::::::::::::::::::::::::::::::::::::::::

           -------------------------------------------------
          | TOTAL ENERGY             -197.888176485559 Eh   |
          | TOTAL ENTHALPY           -196.620519238342 Eh   |
          | TOTAL FREE ENERGY        -196.787253374091 Eh   |
          | GRADIENT NORM               0.000039815778 Eh/α |
          | HOMO-LUMO GAP               2.366692473696 eV   |
           -------------------------------------------------

 * finished run on 2025/09/11 at 12:31:17.743
