   * xtb version 6.7.1 (edcfbbe) compiled by 'albert@albert-system' on 2024-07-22

   ID    Z sym.   atoms
    1    6 C      1-8, 10-19, 21-30, 32-44, 46-75
    2    7 N      9, 31, 45
    3    5 B      20
    4    1 H      76-145

          program call               : xtb data2507/gas/tDPAC-BN/tDPAC-BN_gas_S0_crest.xyz --gfn 2 --ohess vtight --parallel 40 --molden --ceasefiles --namespace data2507/gas/tDPAC-BN/tDPAC-BN_gas_S0_finalOpt
          :  Hamiltonian                  GFN2-xTB          :
 * total energy  :  -197.8903021 Eh     change       -0.8500763E-08 Eh
 * total energy  :  -197.8903038 Eh     change       -0.1699679E-05 Eh
 * total energy  :  -197.8903060 Eh     change       -0.2245908E-05 Eh
 * total energy  :  -197.8903128 Eh     change       -0.6779620E-05 Eh
 * total energy  :  -197.8903198 Eh     change       -0.6968274E-05 Eh
 * total energy  :  -197.8903228 Eh     change       -0.3010720E-05 Eh
 * total energy  :  -197.8903250 Eh     change       -0.2221139E-05 Eh
 * total energy  :  -197.8903286 Eh     change       -0.3625659E-05 Eh
 * total energy  :  -197.8903345 Eh     change       -0.5874767E-05 Eh
 * total energy  :  -197.8903402 Eh     change       -0.5679783E-05 Eh
 * total energy  :  -197.8903906 Eh     change       -0.7963354E-06 Eh
 * total energy  :  -197.8903913 Eh     change       -0.7003181E-06 Eh
 * total energy  :  -197.8903920 Eh     change       -0.7608107E-06 Eh
 * total energy  :  -197.8903930 Eh     change       -0.9488124E-06 Eh
 * total energy  :  -197.8903941 Eh     change       -0.1142738E-05 Eh
 * total energy  :  -197.8903953 Eh     change       -0.1157589E-05 Eh
 * total energy  :  -197.8903964 Eh     change       -0.1119782E-05 Eh
 * total energy  :  -197.8903975 Eh     change       -0.1096538E-05 Eh
 * total energy  :  -197.8903975 Eh     change       -0.6892861E-08 Eh
   *** GEOMETRY OPTIMIZATION CONVERGED AFTER 44 ITERATIONS ***

 final structure:
================
145
 xtb: 6.7.1 (edcfbbe)
C           -0.94494915040484       -7.38441937704374        0.77600541602722
C            0.46791493728684       -7.52357687715972        0.19039587739994
C            1.34529037392153       -8.35683463475702        1.13508838607025
C            0.36083487748403       -8.26702504127675       -1.14369014538666
C            1.07421826838986       -6.13766407040831        0.04226618186751
C            1.49757668734168       -5.62252054678836       -1.17741202024191
C            2.01056611011876       -4.34078150003687       -1.27852702924253
C            2.11789241491502       -3.54174013578876       -0.15074850991145
N            2.56575471641775       -2.19164862847200       -0.23739068838585
C            3.91969781586280       -1.92186876873353       -0.31137558762758
C            4.81772066743083       -2.98958863495634       -0.43193470200482
C            6.16314276179269       -2.76529071207095       -0.58861046950279
C            6.68169840634484       -1.46900892664726       -0.65203027015560
C            8.17128140507764       -1.27190900107447       -0.88697370994905
C            8.54682010112092       -1.88431571708706       -2.24362438902458
C            8.95606272412867       -1.96995064200623        0.23292943605685
C            8.57735963871739        0.20404951387797       -0.89851841687465
C            5.79086427219306       -0.42693138666729       -0.48847970078093
C            4.41654093651914       -0.60100465823394       -0.27320312173095
B            3.41347244607220        0.54122951275337        0.00216304853396
C            3.63870296122899        2.03522726427936        0.32608201564001
C            4.86902700915385        2.59436749775554        0.69861112563155
C            5.07883446283265        3.94864752641035        0.86588461086743
C            6.41132292951185        4.54833050580208        1.28678445210574
C            6.21703559853309        5.31698147074754        2.60143392111568
C            6.90308841279099        5.50665998934584        0.19279804062254
C            7.49284661419289        3.48784009061134        1.50824580840051
C            3.99421275846111        4.79336041631609        0.61542405144987
C            2.75414132940956        4.29210174286650        0.30475152377436
C            2.53691513742737        2.91173988527184        0.21264398512740
N            1.25256467176552        2.43814906345158        0.00735753698511
C            0.18017943364861        3.34096154475482       -0.23626205377311
C           -0.42003403274980        3.35076711997896       -1.49031821360530
C           -1.51277408227933        4.15591405480537       -1.73287472675958
C           -2.03210245847093        4.99512520177377       -0.74871174311592
C           -3.24739140316394        5.85128892170723       -1.06650857770615
C           -4.42163103095707        4.93311977887448       -1.43638719111795
C           -3.67942428284031        6.72830137812458        0.11194360505463
C           -2.91350198425925        6.77176476664847       -2.24936071939533
C           -1.40398146531865        4.99503082314132        0.49125359919651
C           -0.32250400914945        4.17006383765688        0.75447349788278
C            0.93151189798336        1.09811602742354       -0.02558434603318
C           -0.40388074976278        0.70455794851143       -0.00000333491312
C           -0.73719663295667       -0.62896752177907       -0.18906652264812
N           -2.11741788710907       -0.93126225786067       -0.27104110080065
C           -2.76088869802794       -1.80306571166430        0.59633698237488
C           -2.06503448056942       -2.76232556146975        1.33316669730051
C           -2.74092004263383       -3.68430647026919        2.10670615977949
C           -4.12274159167615       -3.67268432036949        2.16101967054291
C           -4.81679216771114       -2.68048046800657        1.49096769647310
C           -4.15582909560002       -1.73027585549995        0.72939165164006
C           -4.87961359050357       -0.51273905455357        0.17625701132987
C           -6.34750981614012       -0.80160159910205       -0.07154685993733
C           -7.36576747715164        0.01577418079330        0.39748464793365
C           -8.68961419183496       -0.27851298802551        0.11457860199803
C           -9.01247010710690       -1.38758435976339       -0.64592070155598
C           -8.00096513373314       -2.19926060275782       -1.13345595752852
C           -6.68087888641919       -1.90538058408829       -0.85204528148041
C           -4.66751535389095        0.57970392492570        1.22660980133241
C           -4.03414937215666        1.77870816050073        0.93017219921574
C           -3.81174357551866        2.72261186045215        1.91895792666218
C           -4.22736418218212        2.48943837104273        3.21649704479432
C           -4.86936895785892        1.30046025859720        3.52053541445778
C           -5.08026458173715        0.35381609587013        2.53643491425849
C           -4.22639829723980       -0.10591254578166       -1.12655618002580
C           -4.93417114705976        0.52419281681797       -2.13795629736297
C           -4.29529714248318        0.97866028543745       -3.27810388503338
C           -2.93025001641171        0.79167998441774       -3.41657910465872
C           -2.21250484609935        0.15570155643614       -2.42475396281890
C           -2.84705976418313       -0.28681150327133       -1.26254615939876
C            0.24622064579224       -1.59095321673948       -0.34406162826030
C            1.58820730539473       -1.22305031626194       -0.21182731848656
C            1.95534530661155        0.13056898347975       -0.07825088820103
C            1.72193117030246       -4.04916039318307        1.07958820412141
C            1.20892658948887       -5.32751283318178        1.16783387339077
H           -0.92181419081254       -6.94777610863742        1.77029751972660
H           -1.41872250850349       -8.36114443324914        0.84575961884763
H           -1.55696899424621       -6.74748032595384        0.14055686885483
H            0.92892604191050       -9.35541444684834        1.24844318846677
H            2.35219751162024       -8.44654375270231        0.73244252471652
H            1.41178803071803       -7.90226405391760        2.11963608755473
H           -0.08373071278634       -9.24608800066520       -0.97735531168460
H            1.34135610265946       -8.41689343826854       -1.58981525908801
H           -0.27225173540801       -7.72590355154922       -1.84307616498692
H            1.42327914312954       -6.21031819700285       -2.07742887448839
H            2.32060347704834       -3.95124480438232       -2.23733047182407
H            4.45278691528673       -4.00594244323011       -0.41023723995256
H            6.81667941846825       -3.62001016250492       -0.68148605677926
H            9.60969671631407       -1.75160678269943       -2.43616307860996
H            8.32572710033443       -2.94792708601614       -2.27133221828096
H            7.98775059704047       -1.39940633118608       -3.04143703964184
H           10.02458933460418       -1.81677500805481        0.09466017140353
H            8.76595777030466       -3.03958104012336        0.24473031304139
H            8.67116145279276       -1.56256136326382        1.20094930514092
H            8.06177960956076        0.74758016452434       -1.68703217557547
H            8.36233982276351        0.67143905720200        0.05959200635751
H            9.64776629348196        0.28528397710135       -1.07874111219467
H            6.14547900269428        0.58690380315188       -0.54688422952004
H            5.67622724898319        1.90667470868990        0.88009761721841
H            5.85892442243100        4.64509418717489        3.37896902448988
H            5.49386991905851        6.11987847502029        2.48634359710017
H            7.16009940409906        5.75146713611333        2.92737693501808
H            6.20763564062978        6.32766422455853        0.04195985503358
H            7.01236622185045        4.97509893362173       -0.75043927260176
H            7.86916541627272        5.92597798337162        0.46701723166471
H            8.41551466407876        3.97024194970786        1.82575998141167
H            7.69786667427618        2.94595765850050        0.58804771279667
H            7.19853265308444        2.78254354831815        2.28215418711765
H            4.11019292705831        5.86507645437711        0.68124384499256
H            1.93969531677221        4.98024660102254        0.13536436832723
H           -0.03522296569469        2.70530685714565       -2.26597004444605
H           -1.96673811296243        4.12136676253252       -2.71123289949279
H           -4.68965674073803        4.30202384898429       -0.59174723330258
H           -4.17507915561760        4.28783454055365       -2.27530144057388
H           -5.28978312147749        5.52998355055401       -1.70788996370732
H           -3.96214793167115        6.12317974909194        0.97035694297825
H           -2.88670055848719        7.41437042042984        0.40199637122910
H           -4.54573553813593        7.31980943761057       -0.17700352429617
H           -2.67979536945276        6.20054490916997       -3.14324401100704
H           -2.05598294274036        7.39739367545885       -2.00979383397136
H           -3.76028939241024        7.41772140612040       -2.47103184690801
H           -1.75420188459078        5.63644101122224        1.28421605564785
H            0.12866260508442        4.16399209008022        1.73604461610408
H           -1.19811175642178        1.42081597748451        0.13696827552754
H           -0.98827851846995       -2.78232327719114        1.31443817619736
H           -2.18011051636868       -4.42021588657218        2.66376116857646
H           -4.65662581266579       -4.40651568944037        2.74538637746706
H           -5.89347655892912       -2.63932612066034        1.57255453180834
H           -7.12919801342970        0.89110564671886        0.98431947042643
H           -9.47099811289481        0.36642003752127        0.49008166116985
H          -10.04546511331716       -1.61647336704894       -0.86311452219350
H           -8.24254053583086       -3.06265130342768       -1.73627126371290
H           -5.89268028846476       -2.53664755169272       -1.23752687011967
H           -3.70919323527998        1.99078258064439       -0.07798307585846
H           -3.30204602273817        3.64060961834349        1.66598467255871
H           -4.05248529239300        3.22657384343989        3.98650534993241
H           -5.20217875077389        1.10688183707717        4.53001888116856
H           -5.57170653699376       -0.57416279270575        2.78765393950637
H           -5.99626304278059        0.68121655883941       -2.02153152695462
H           -4.86050933846288        1.47929609671563       -4.04970504877010
H           -2.42141976990928        1.13637655512968       -4.30504903210114
H           -1.15144063364059       -0.00388150867978       -2.54178075684150
H           -0.02762424447083       -2.60445759878996       -0.58769419568184
H            1.80792983732505       -3.42923166517772        1.96037907111624
H            0.90260017523145       -5.69103701766119        2.13666572124880

          :  Hamiltonian                  GFN2-xTB          :
         :: gradient norm              0.000062231427 Eh/a0 ::
         :: HOMO-LUMO gap              2.350844482749 eV    ::
         :: SCC energy              -201.425020729010 Eh    ::
         :: -> dispersion             -0.215735172117 Eh    ::
         :: repulsion energy           3.534623228541 Eh    ::

    * Orbital Energies and Occupations

         #    Occupation            Energy/Eh            Energy/eV
      -------------------------------------------------------------
         1        2.0000           -0.6619878             -18.0136
       ...           ...                  ...                  ...
       174        2.0000           -0.3955781             -10.7642
       175        2.0000           -0.3931826             -10.6990
       176        2.0000           -0.3917614             -10.6604
       177        2.0000           -0.3872240             -10.5369
       178        2.0000           -0.3855072             -10.4902
       179        2.0000           -0.3843286             -10.4581
       180        2.0000           -0.3838268             -10.4445
       181        2.0000           -0.3819394             -10.3931
       182        2.0000           -0.3709794             -10.0949
       183        2.0000           -0.3699893             -10.0679
       184        2.0000           -0.3543697              -9.6429
       185        2.0000           -0.3404008              -9.2628
       186        2.0000           -0.3355020              -9.1295 (HOMO)
       187                         -0.2491101              -6.7786 (LUMO)
       188                         -0.2292545              -6.2383
       189                         -0.2278953              -6.2013
       190                         -0.2259671              -6.1489
       191                         -0.2254855              -6.1358
       192                         -0.2238344              -6.0908
       193                         -0.2201045              -5.9893
       194                         -0.2187652              -5.9529
       195                         -0.2174424              -5.9169
       196                         -0.2159131              -5.8753
       197                         -0.2147726              -5.8443
       ...                                ...                  ...
       370                          0.7242950              19.7091
      -------------------------------------------------------------
                  HL-Gap            0.0863920 Eh            2.3508 eV

     #   Z          covCN         q      C6AA      α(0)
     1   6 C        3.762    -0.105    22.557     6.770
     2   6 C        3.903     0.026    20.081     6.370
     3   6 C        3.762    -0.106    22.571     6.773
     4   6 C        3.761    -0.108    22.619     6.780
     5   6 C        2.973     0.009    27.803     8.649
     6   6 C        2.925    -0.039    28.969     8.827
     7   6 C        2.920    -0.041    29.010     8.832
     8   6 C        2.935     0.064    26.564     8.453
     9   7 N        2.756    -0.051    22.229     7.002
    10   6 C        2.925     0.055    26.767     8.484
    11   6 C        2.918    -0.059    29.455     8.900
    12   6 C        2.928    -0.034    28.856     8.809
    13   6 C        2.969    -0.006    28.160     8.704
    14   6 C        3.903     0.025    20.100     6.373
    15   6 C        3.762    -0.104    22.532     6.767
    16   6 C        3.762    -0.104    22.534     6.767
    17   6 C        3.761    -0.105    22.562     6.771
    18   6 C        2.930    -0.045    29.128     8.851
    19   6 C        2.886    -0.086    30.155     9.003
    20   5 B        2.724     0.188    18.553     7.217
    21   6 C        2.887    -0.086    30.158     9.003
    22   6 C        2.930    -0.045    29.130     8.851
    23   6 C        2.969    -0.006    28.166     8.705
    24   6 C        3.903     0.025    20.099     6.373
    25   6 C        3.762    -0.104    22.531     6.766
    26   6 C        3.762    -0.104    22.532     6.767
    27   6 C        3.761    -0.106    22.567     6.772
    28   6 C        2.928    -0.035    28.862     8.810
    29   6 C        2.917    -0.059    29.467     8.902
    30   6 C        2.923     0.055    26.762     8.484
    31   7 N        2.755    -0.050    22.210     6.999
    32   6 C        2.934     0.063    26.578     8.455
    33   6 C        2.922    -0.040    28.987     8.829
    34   6 C        2.927    -0.034    28.840     8.807
    35   6 C        2.973     0.008    27.825     8.653
    36   6 C        3.903     0.026    20.075     6.369
    37   6 C        3.762    -0.105    22.557     6.770
    38   6 C        3.761    -0.107    22.589     6.775
    39   6 C        3.762    -0.106    22.571     6.772
    40   6 C        2.925    -0.038    28.949     8.824
    41   6 C        2.920    -0.041    29.020     8.834
    42   6 C        2.934     0.061    26.640     8.465
    43   6 C        2.926    -0.084    30.114     8.999
    44   6 C        2.926     0.064    26.577     8.454
    45   7 N        2.756    -0.071    22.615     7.063
    46   6 C        2.925     0.059    26.676     8.470
    47   6 C        2.922    -0.059    29.475     8.903
    48   6 C        2.920    -0.034    28.843     8.807
    49   6 C        2.917    -0.045    29.124     8.850
    50   6 C        2.923    -0.037    28.913     8.818
    51   6 C        2.993    -0.011    28.286     8.724
    52   6 C        3.923     0.010    20.346     6.411
    53   6 C        2.978     0.015    27.668     8.628
    54   6 C        2.923    -0.036    28.901     8.816
    55   6 C        2.920    -0.031    28.776     8.797
    56   6 C        2.920    -0.033    28.823     8.804
    57   6 C        2.919    -0.031    28.764     8.795
    58   6 C        2.926    -0.032    28.788     8.799
    59   6 C        2.984     0.013    27.708     8.635
    60   6 C        2.923    -0.036    28.895     8.815
    61   6 C        2.920    -0.033    28.823     8.804
    62   6 C        2.920    -0.033    28.825     8.804
    63   6 C        2.920    -0.031    28.775     8.797
    64   6 C        2.925    -0.034    28.854     8.809
    65   6 C        2.987    -0.009    28.241     8.717
    66   6 C        2.923    -0.037    28.915     8.818
    67   6 C        2.918    -0.044    29.089     8.844
    68   6 C        2.919    -0.034    28.836     8.806
    69   6 C        2.923    -0.053    29.324     8.880
    70   6 C        2.939     0.060    26.644     8.466
    71   6 C        2.919    -0.087    30.182     9.009
    72   6 C        2.934     0.060    26.659     8.468
    73   6 C        2.898    -0.111    30.811     9.101
    74   6 C        2.921    -0.040    28.996     8.830
    75   6 C        2.927    -0.033    28.822     8.804
    76   1 H        0.925     0.037     2.485     2.465
    77   1 H        0.925     0.039     2.466     2.456
    78   1 H        0.925     0.036     2.508     2.477
    79   1 H        0.925     0.039     2.461     2.453
    80   1 H        0.925     0.034     2.525     2.485
    81   1 H        0.925     0.037     2.488     2.467
    82   1 H        0.925     0.038     2.477     2.461
    83   1 H        0.925     0.036     2.499     2.472
    84   1 H        0.925     0.037     2.489     2.467
    85   1 H        0.926     0.043     2.414     2.430
    86   1 H        0.926     0.039     2.464     2.455
    87   1 H        0.926     0.018     2.757     2.596
    88   1 H        0.926     0.022     2.701     2.570
    89   1 H        0.925     0.033     2.537     2.491
    90   1 H        0.925     0.034     2.531     2.488
    91   1 H        0.925     0.032     2.560     2.502
    92   1 H        0.925     0.034     2.536     2.490
    93   1 H        0.925     0.034     2.530     2.487
    94   1 H        0.925     0.032     2.555     2.500
    95   1 H        0.925     0.034     2.530     2.487
    96   1 H        0.925     0.036     2.509     2.477
    97   1 H        0.925     0.033     2.548     2.496
    98   1 H        0.926     0.041     2.442     2.444
    99   1 H        0.926     0.040     2.450     2.448
   100   1 H        0.925     0.032     2.560     2.502
   101   1 H        0.925     0.034     2.530     2.487
   102   1 H        0.925     0.033     2.540     2.492
   103   1 H        0.925     0.034     2.530     2.487
   104   1 H        0.925     0.032     2.557     2.501
   105   1 H        0.925     0.034     2.536     2.490
   106   1 H        0.925     0.033     2.550     2.497
   107   1 H        0.925     0.036     2.507     2.476
   108   1 H        0.925     0.034     2.530     2.487
   109   1 H        0.926     0.022     2.703     2.571
   110   1 H        0.926     0.020     2.729     2.583
   111   1 H        0.926     0.036     2.498     2.472
   112   1 H        0.926     0.036     2.508     2.476
   113   1 H        0.925     0.037     2.484     2.465
   114   1 H        0.925     0.037     2.495     2.470
   115   1 H        0.925     0.038     2.479     2.462
   116   1 H        0.925     0.036     2.503     2.474
   117   1 H        0.925     0.036     2.509     2.477
   118   1 H        0.925     0.037     2.486     2.466
   119   1 H        0.925     0.037     2.484     2.465
   120   1 H        0.925     0.034     2.533     2.489
   121   1 H        0.925     0.038     2.471     2.458
   122   1 H        0.926     0.040     2.444     2.445
   123   1 H        0.926     0.039     2.460     2.453
   124   1 H        0.926     0.024     2.669     2.555
   125   1 H        0.926     0.035     2.523     2.484
   126   1 H        0.926     0.025     2.660     2.551
   127   1 H        0.926     0.025     2.662     2.551
   128   1 H        0.926     0.027     2.623     2.533
   129   1 H        0.926     0.029     2.594     2.518
   130   1 H        0.926     0.027     2.623     2.533
   131   1 H        0.926     0.027     2.623     2.532
   132   1 H        0.926     0.028     2.615     2.529
   133   1 H        0.926     0.029     2.606     2.524
   134   1 H        0.926     0.028     2.615     2.529
   135   1 H        0.926     0.028     2.608     2.525
   136   1 H        0.926     0.027     2.633     2.538
   137   1 H        0.926     0.028     2.615     2.529
   138   1 H        0.926     0.033     2.542     2.493
   139   1 H        0.926     0.028     2.608     2.526
   140   1 H        0.926     0.025     2.658     2.550
   141   1 H        0.926     0.026     2.642     2.542
   142   1 H        0.926     0.028     2.616     2.529
   143   1 H        0.926     0.028     2.616     2.529
   144   1 H        0.926     0.036     2.497     2.471
   145   1 H        0.926     0.036     2.499     2.472

molecular dipole:
                 x           y           z       tot (Debye)
 q only:        0.050      -0.158      -0.083
   full:       -0.061      -0.195      -0.079       0.556

 projected vibrational frequencies (cm⁻¹)
eigval :       -0.00    -0.00    -0.00    -0.00     0.00     0.00
eigval :        8.48    11.13    12.37    14.81    16.69    19.86
eigval :       20.81    25.16    27.60    30.21    36.20    37.36
eigval :       40.73    46.04    47.68    55.47    60.04    64.03
eigval :       66.55    71.08    72.51    76.26    80.42    89.73
eigval :       92.51    94.46    98.32   107.32   115.30   117.96
eigval :      135.09   145.00   147.97   161.07   165.29   173.75
eigval :      177.64   178.88   179.26   180.10   184.43   196.40
eigval :      208.74   212.79   219.06   221.68   222.93   225.03
eigval :      229.39   233.11   235.61   241.53   250.01   252.13
eigval :      253.54   259.39   264.42   274.45   281.38   285.85
eigval :      294.37   304.82   308.47   312.06   313.66   314.67
eigval :      315.96   318.20   318.69   332.72   335.51   348.07
eigval :      351.22   357.72   359.43   362.70   370.42   372.36
eigval :      376.84   378.40   379.05   380.98   384.99   396.72
eigval :      400.33   403.65   407.47   409.03   414.03   420.20
eigval :      428.25   431.34   439.62   445.54   449.34   450.67
eigval :      457.57   461.32   465.15   472.04   474.18   475.56
eigval :      488.33   490.18   502.15   514.66   516.52   519.90
eigval :      527.56   530.99   554.04   554.70   569.74   573.30
eigval :      583.50   588.43   588.99   591.45   594.79   596.50
eigval :      602.81   609.19   611.29   617.36   617.96   624.49
eigval :      628.88   645.48   660.51   665.96   669.12   673.46
eigval :      676.09   686.09   690.24   697.75   698.16   699.10
eigval :      709.21   711.88   718.98   726.12   733.24   754.71
eigval :      758.36   775.50   777.43   778.61   795.15   815.37
eigval :      820.00   822.96   826.60   827.51   848.90   865.86
eigval :      871.40   871.71   872.44   873.15   874.19   877.02
eigval :      879.99   881.23   881.89   883.66   894.03   895.83
eigval :      900.11   903.80   905.38   906.62   911.87   916.08
eigval :      916.30   917.65   919.81   920.24   922.03   923.70
eigval :      924.02   929.68   930.74   931.77   932.69   933.30
eigval :      933.45   935.72   937.59   945.45   949.76   958.78
eigval :      960.71   960.76   960.94   961.64   962.34   962.68
eigval :      962.89   963.57   963.83   964.28   965.67   971.46
eigval :      986.05  1001.20  1013.01  1016.19  1034.61  1034.93
eigval :     1035.07  1035.48  1035.59  1035.88  1036.56  1037.70
eigval :     1046.61  1088.16  1091.73  1096.97  1104.87  1106.91
eigval :     1111.71  1120.51  1126.23  1131.84  1137.24  1140.93
eigval :     1141.81  1144.18  1144.98  1146.22  1160.98  1169.28
eigval :     1181.53  1182.32  1182.52  1183.70  1184.50  1187.29
eigval :     1197.03  1198.73  1203.35  1203.95  1208.05  1212.92
eigval :     1217.84  1225.11  1226.98  1227.35  1227.73  1229.25
eigval :     1232.43  1232.96  1233.30  1233.73  1234.82  1244.05
eigval :     1246.75  1252.27  1262.56  1266.62  1267.44  1274.27
eigval :     1275.60  1279.41  1280.19  1284.40  1288.18  1291.59
eigval :     1292.73  1295.69  1296.94  1306.61  1310.78  1314.26
eigval :     1318.45  1318.49  1321.40  1322.60  1327.18  1333.04
eigval :     1336.76  1347.87  1351.20  1354.34  1379.06  1397.59
eigval :     1397.89  1399.20  1404.60  1405.78  1405.95  1406.86
eigval :     1407.75  1409.59  1409.83  1410.16  1427.35  1429.13
eigval :     1429.19  1430.23  1430.35  1431.33  1432.20  1435.58
eigval :     1439.98  1442.92  1444.81  1456.96  1468.85  1475.09
eigval :     1476.16  1477.49  1486.95  1488.46  1489.36  1491.71
eigval :     1492.69  1492.73  1493.18  1493.72  1495.20  1495.87
eigval :     1495.93  1500.16  1502.16  1502.38  1503.97  1505.91
eigval :     1506.09  1506.39  1507.55  1513.21  1514.97  1515.19
eigval :     1515.79  1519.12  1519.49  1519.58  1522.46  1536.62
eigval :     1542.08  1547.12  1565.81  1569.88  1570.47  1571.58
eigval :     1582.89  1587.29  1588.14  1589.98  1598.96  1599.55
eigval :     1601.37  1602.28  1602.84  1603.33  1603.93  3017.95
eigval :     3018.28  3019.51  3019.71  3023.20  3024.25  3025.18
eigval :     3025.49  3025.87  3026.22  3026.67  3027.27  3027.36
eigval :     3028.24  3029.36  3029.65  3031.65  3031.69  3033.06
eigval :     3033.19  3034.63  3034.80  3036.22  3036.79  3036.94
eigval :     3039.63  3040.04  3040.37  3044.48  3044.68  3047.16
eigval :     3048.11  3048.13  3048.46  3051.62  3052.35  3070.05
eigval :     3071.79  3072.32  3073.61  3073.66  3074.86  3074.91
eigval :     3078.84  3079.38  3079.49  3080.49  3082.98  3083.07
eigval :     3083.84  3084.45  3084.84  3087.42  3087.55  3091.02
eigval :     3092.40  3093.04  3093.32  3093.73  3094.01  3096.03
eigval :     3096.40  3097.52  3107.82  3109.31  3110.25  3116.90
eigval :     3121.81  3133.74  3141.65

   temp. (K)  partition function   enthalpy   heat capacity  entropy
                                   cal/mol     cal/K/mol   cal/K/mol   J/K/mol
 298.15  VIB  0.543E+33            41726.235    256.846    260.041
         ROT  0.254E+09              888.752      2.981     41.437
         INT  0.138E+42            42614.988    259.827    301.478
         TR   0.295E+29             1481.254      4.968     46.488
         TOT                       44096.2415   264.7949   347.9669  1455.8937

       T/K    H(0)-H(T)+PV         H(T)/Eh          T*S/Eh         G(T)/Eh
   ------------------------------------------------------------------------
    298.15    0.702718E-01    0.126780E+01    0.165330E+00    0.110247E+01
   ------------------------------------------------------------------------

         :::::::::::::::::::::::::::::::::::::::::::::::::::::
         ::                  THERMODYNAMIC                  ::
         :::::::::::::::::::::::::::::::::::::::::::::::::::::
         :: total free energy        -196.787924247706 Eh   ::
         ::.................................................::
         :: total energy             -197.890397500468 Eh   ::
         :: zero point energy           1.197531739649 Eh   ::
         :: G(RRHO) w/o ZPVE           -0.095058486887 Eh   ::
         :: G(RRHO) contrib.            1.102473252762 Eh   ::
         :::::::::::::::::::::::::::::::::::::::::::::::::::::

           -------------------------------------------------
          | TOTAL ENERGY             -197.890397500468 Eh   |
          | TOTAL ENTHALPY           -196.622593927003 Eh   |
          | TOTAL FREE ENERGY        -196.787924247706 Eh   |
          | GRADIENT NORM               0.000062231128 Eh/α |
          | HOMO-LUMO GAP               2.350844884607 eV   |
           -------------------------------------------------

 * finished run on 2025/09/11 at 13:08:42.446
