   * xtb version 6.7.1 (edcfbbe) compiled by 'albert@albert-system' on 2024-07-22

   ID    Z sym.   atoms
    1    6 C      1-8, 10-19, 21-30, 32-44, 46-75
    2    7 N      9, 31, 45
    3    5 B      20
    4    1 H      76-145

          program call               : xtb data2507/gas/tDPAC-BN/tDPAC-BN_gas_T1_crest.xyz --gfn 2 --spinpol --tblite --uhf 2 --ohess vtight --parallel 40 --molden --ceasefiles --namespace data2507/gas/tDPAC-BN/tDPAC-BN_gas_T1_finalOpt
 * total energy  :  -197.8019207 Eh     change       -0.6365457E-07 Eh
 * total energy  :  -197.8019256 Eh     change       -0.4840154E-05 Eh
 * total energy  :  -197.8019286 Eh     change       -0.3007719E-05 Eh
 * total energy  :  -197.8019299 Eh     change       -0.1369098E-05 Eh
 * total energy  :  -197.8019323 Eh     change       -0.2347504E-05 Eh
 * total energy  :  -197.8019337 Eh     change       -0.1411767E-05 Eh
 * total energy  :  -197.8019352 Eh     change       -0.1468741E-05 Eh
 * total energy  :  -197.8019365 Eh     change       -0.1293448E-05 Eh
 * total energy  :  -197.8019377 Eh     change       -0.1195055E-05 Eh
 * total energy  :  -197.8019385 Eh     change       -0.8144311E-06 Eh
 * total energy  :  -197.8019435 Eh     change       -0.1225738E-05 Eh
 * total energy  :  -197.8019447 Eh     change       -0.1187928E-05 Eh
 * total energy  :  -197.8019456 Eh     change       -0.8501018E-06 Eh
 * total energy  :  -197.8019463 Eh     change       -0.7117073E-06 Eh
 * total energy  :  -197.8019472 Eh     change       -0.8766654E-06 Eh
 * total energy  :  -197.8019479 Eh     change       -0.7385532E-06 Eh
 * total energy  :  -197.8019484 Eh     change       -0.4876975E-06 Eh
 * total energy  :  -197.8019490 Eh     change       -0.6219116E-06 Eh
 * total energy  :  -197.8019490 Eh     change       -0.1421779E-07 Eh
   *** GEOMETRY OPTIMIZATION CONVERGED AFTER 22 ITERATIONS ***

 final structure:
================
145
 xtb: 6.7.1 (edcfbbe)
C           -0.90175948561688       -7.41260734699102        0.76742974066655
C            0.56775184182091       -7.53265952583580        0.33788142285941
C            1.36987448256252       -8.26393747775555        1.42381205728231
C            0.62396352269057       -8.36846896996801       -0.94356411513092
C            1.14291236169239       -6.13835690396975        0.15364441327384
C            1.68847206160884       -5.69374914228840       -1.04579350814131
C            2.18528402637852       -4.40970569652254       -1.18150618953537
C            2.15023380471057       -3.52906116017759       -0.10805723440330
N            2.59499107264728       -2.18652906375113       -0.22465461242877
C            3.94861902765124       -1.90977920814918       -0.30530933556275
C            4.85509646181126       -2.96770842775086       -0.39895733034290
C            6.20578700919437       -2.73313593431898       -0.57258078564953
C            6.69842930480191       -1.42995350942758       -0.68021792990277
C            8.17983909747232       -1.21648711877412       -0.94032912347079
C            8.54481979931294       -1.86928307340597       -2.28159606888761
C            8.99030795287378       -1.86690350677186        0.19031351619046
C            8.56591176979001        0.26324973160438       -1.00760532834091
C            5.79653061665866       -0.38864669392097       -0.52641464799016
C            4.42710887502199       -0.56874131010203       -0.27895770372575
B            3.42023127750362        0.56149674385445        0.00403135704147
C            3.63308927270316        2.05097374001108        0.32286007680098
C            4.86091230720995        2.62987831465116        0.68344169581825
C            5.05770257762773        3.99150244857997        0.83938398799277
C            6.39470705382468        4.60219995683653        1.22252246795838
C            6.22490278628461        5.37896169684901        2.53635541498146
C            6.85052467190787        5.55805522821702        0.11037074711871
C            7.49221550445768        3.55449940927232        1.42488672732103
C            3.96433017917871        4.83295270060866        0.60820039626568
C            2.71674480681688        4.31154421829850        0.32669188569705
C            2.51479770903620        2.93220217034434        0.24321685831957
N            1.23293849992720        2.44245175061874        0.05950159435014
C            0.14394401700654        3.32846440022493       -0.13337838094318
C           -0.53097299731063        3.31743466908013       -1.35223339077375
C           -1.63636239862948        4.11601320746483       -1.54546887278408
C           -2.10825177808440        4.96538068091441       -0.54355373387672
C           -3.33708768305746        5.81915391600090       -0.80835365089797
C           -4.52479462437323        4.90626369361586       -1.14715044815750
C           -3.72807937305284        6.68308092742184        0.39384731469248
C           -3.04452340656531        6.75126017583551       -1.99336837130298
C           -1.41257468644080        4.98166530145219        0.66100326610282
C           -0.31002761244243        4.17224765572654        0.87314809470039
C            0.92920741002664        1.08826828381434        0.00282068251775
C           -0.40108768128691        0.68294224578612        0.03401428566990
C           -0.74008247436847       -0.65488048630475       -0.20045842080342
N           -2.11626723086106       -0.94974409014059       -0.32579751264994
C           -2.78713984423361       -1.84496015041018        0.49425508208382
C           -2.11164919118744       -2.83494095621178        1.20944228327003
C           -2.80949421165485       -3.78055298020878        1.93260046235748
C           -4.19255121491648       -3.76252255233252        1.95474902806666
C           -4.86730720077150       -2.74303556100876        1.30550608925892
C           -4.18482215920603       -1.76896674568547        0.59524462790966
C           -4.88700801345507       -0.52640085399570        0.07114331496019
C           -6.34901739281890       -0.79412652220955       -0.22934067619218
C           -7.37298246972954        0.02284281251712        0.22800487448098
C           -8.68978483464965       -0.24720096862859       -0.10694817304261
C           -8.99940677644883       -1.33100753785233       -0.90838070906888
C           -7.98144328246639       -2.14123492269146       -1.38460843807460
C           -6.66819396266956       -1.87134861018254       -1.05154959888863
C           -4.69491341713580        0.51827275259224        1.17295535686398
C           -4.01622374471691        1.70911942032803        0.95405716905268
C           -3.80760355966849        2.60361423179452        1.99092104628418
C           -4.28465174307363        2.32936129541622        3.25895825740155
C           -4.97315812787513        1.14896914725704        3.48516083723654
C           -5.16833554498350        0.25030704155437        2.45400093298175
C           -4.19813578110919       -0.07069738135803       -1.19658767152196
C           -4.87388781279826        0.61387069302044       -2.19376144567368
C           -4.20415888556343        1.10425476710710       -3.30144792145481
C           -2.83974897880826        0.89781950701131       -3.42214390535166
C           -2.15254265477074        0.21199840105282       -2.44252982581333
C           -2.81801002604544       -0.26665797895303       -1.31140690996493
C            0.27116103923368       -1.59744119839730       -0.37475705062335
C            1.60388249072814       -1.21571313949150       -0.20410840287803
C            1.97089358395410        0.13934847952363       -0.06287819327098
C            1.61893270302497       -3.96295530828616        1.10262633621571
C            1.12836379134027       -5.24543440180937        1.22526232704958
H           -0.99572716966505       -6.91140696236430        1.72642976243051
H           -1.34701359956370       -8.40106713625138        0.85720366364899
H           -1.46637997261136       -6.84431766915601        0.03105048814732
H            0.97658634389878       -9.26801778394750        1.56722468315412
H            2.41521504230304       -8.34112405753389        1.13180954802290
H            1.32015627797575       -7.73979872727479        2.37423272848333
H            0.19471194624688       -9.35020928006674       -0.75427587117263
H            1.64999581275981       -8.51095852804426       -1.27485863823371
H            0.05167637515158       -7.90021254433697       -1.74109286977121
H            1.72691073036704       -6.34312902136471       -1.90484733999809
H            2.59188355179061       -4.07967624596829       -2.12637564414970
H            4.50877734443541       -3.98856458761748       -0.34052009947556
H            6.86812375182037       -3.58223793653866       -0.64077883849184
H            9.60318269100142       -1.72871342996846       -2.49267051474331
H            8.33749043611472       -2.93586084576461       -2.27101574306410
H            7.96847506518528       -1.41796600407636       -3.08676809414995
H           10.05430779069856       -1.70245702351288        0.03131708447391
H            8.81591979745087       -2.93806331460485        0.23923149305857
H            8.71256558509471       -1.43217401112846        1.14841441939604
H            8.02790148112858        0.77394002928178       -1.80293042367613
H            8.36235086962792        0.75889280830204       -0.06139591737150
H            9.63167867244772        0.35208883203969       -1.21083315325368
H            6.14033918100197        0.62685838122855       -0.60916320733056
H            5.67884584557813        1.95251771628262        0.85295517059993
H            5.89712255639887        4.70827791625707        3.32813560578491
H            5.48826411524430        6.17120921468211        2.43465267052869
H            7.17102246505139        5.82781861209601        2.83269880679022
H            6.14315644779696        6.37048416374860       -0.03032262507985
H            6.94370534394111        5.02030327616149       -0.83102640616679
H            7.81827879287394        5.98887584009596        0.35985162545110
H            8.41742369525821        4.04877785069736        1.71589946413262
H            7.67947534305370        3.00795005732723        0.50375803015539
H            7.22430230747599        2.85170739080096        2.21043759373101
H            4.07104095855087        5.90527817900892        0.66261536986555
H            1.89418781700590        4.99276255000043        0.17040192673865
H           -0.18387301797631        2.66739437301498       -2.14159463007995
H           -2.13934905678989        4.06978248255137       -2.49904797400338
H           -4.76260839248311        4.26393524915268       -0.30202850475071
H           -4.31112002980196        4.27280367371151       -2.00385077824335
H           -5.40139079989469        5.50777626123024       -1.37831910852600
H           -3.96939960658143        6.06801720713463        1.25790571642817
H           -2.93059655955833        7.37437742429442        0.65697032029112
H           -4.61067539459005        7.26893607697446        0.14556994236035
H           -2.83577856458104        6.18721468523019       -2.89804276351100
H           -2.18261378139527        7.37880834673296       -1.77563906768151
H           -3.90066066569132        7.39498517871185       -2.18337641014817
H           -1.72693230662377        5.62560676597643        1.46682325903437
H            0.19409754459690        4.18144374413397        1.82848257176864
H           -1.20119826767792        1.38732174976956        0.19887147195233
H           -1.03468035876082       -2.85940631485685        1.21072187555543
H           -2.26648698955416       -4.54000610036381        2.47516425574501
H           -4.74311153116221       -4.51486750694305        2.49857107211286
H           -5.94540942301606       -2.70032682851289        1.36316861169370
H           -7.14598938414205        0.87917773537496        0.84587666709499
H           -9.47590735993149        0.39705488553804        0.25961595691316
H          -10.02697969878395       -1.54091850460067       -1.16645833167553
H           -8.21230354844332       -2.98438475204349       -2.01936508870322
H           -5.87480106255582       -2.50090558014875       -1.42910100988827
H           -3.64609717476145        1.95495808799622       -0.03059151401966
H           -3.26108743112562        3.51540182930098        1.79872081278917
H           -4.12142942338863        3.02810947177800        4.06632107085122
H           -5.35418861341018        0.92415406750561        4.47077814452597
H           -5.69534434045238       -0.67244145353771        2.64508624696770
H           -5.93553560282634        0.78367192584016       -2.09266904270415
H           -4.74512721459993        1.64596462950640       -4.06255206765783
H           -2.30821807181104        1.26775273289987       -4.28682022799110
H           -1.09237114574431        0.03684117558939       -2.54561587464592
H            0.01667076511428       -2.60900095955186       -0.64929582734690
H            1.59548024755967       -3.28263125226561        1.94194251837101
H            0.72512105792865       -5.55020069623660        2.17869782507618

 projected vibrational frequencies (cm⁻¹)
eigval :       -0.00    -0.00    -0.00     0.00     0.00     0.00
eigval :        7.60    11.20    12.24    15.72    18.38    21.01
eigval :       22.36    24.79    27.54    29.70    36.31    37.69
eigval :       40.40    47.01    47.39    56.69    63.91    65.07
eigval :       67.85    71.58    73.21    74.32    80.39    90.62
eigval :       93.37    94.96    98.33   108.21   115.55   118.73
eigval :      135.03   143.90   145.52   160.32   162.41   173.42
eigval :      176.39   178.94   179.40   179.75   183.49   193.67
eigval :      205.79   210.87   218.82   221.19   222.44   225.75
eigval :      229.61   232.68   235.37   241.44   247.78   250.68
eigval :      253.61   259.43   266.65   271.80   279.59   281.44
eigval :      287.50   302.95   306.75   312.09   313.22   314.05
eigval :      315.08   316.97   318.12   332.15   334.74   346.32
eigval :      348.29   352.80   354.17   361.50   367.65   370.87
eigval :      372.30   375.59   378.56   380.41   383.26   393.55
eigval :      396.54   398.39   403.23   407.79   408.55   419.83
eigval :      422.41   424.80   435.97   438.69   444.73   447.00
eigval :      455.74   458.95   460.44   468.80   470.08   474.50
eigval :      485.67   487.97   499.67   507.37   513.32   519.05
eigval :      523.14   527.48   530.92   552.74   560.45   563.82
eigval :      577.92   588.21   588.67   590.44   593.79   596.99
eigval :      600.17   605.83   609.25   610.74   615.26   616.87
eigval :      621.01   628.18   652.51   662.38   664.47   667.83
eigval :      672.65   675.50   688.57   689.04   693.76   696.68
eigval :      698.41   703.51   716.36   722.70   728.50   754.65
eigval :      758.51   769.47   773.63   777.49   791.43   791.59
eigval :      798.82   806.56   815.26   819.83   842.79   846.33
eigval :      862.87   868.58   868.85   870.03   871.64   873.92
eigval :      874.27   878.08   879.38   880.51   882.73   884.19
eigval :      886.84   893.06   899.49   900.38   904.00   905.38
eigval :      911.24   914.68   916.14   917.63   919.51   921.53
eigval :      922.16   923.16   925.65   928.49   929.91   930.86
eigval :      932.83   933.29   939.18   943.16   946.09   958.16
eigval :      958.96   960.34   960.37   961.46   962.17   962.19
eigval :      962.75   963.35   963.38   964.00   965.34   966.67
eigval :      986.04  1001.04  1007.58  1012.64  1032.05  1033.03
eigval :     1034.24  1034.37  1034.55  1034.92  1035.54  1036.32
eigval :     1036.96  1085.66  1088.18  1088.98  1092.10  1103.85
eigval :     1107.64  1119.93  1124.16  1128.23  1132.84  1133.91
eigval :     1140.46  1140.99  1145.51  1146.96  1155.15  1160.66
eigval :     1172.57  1181.56  1182.11  1182.54  1182.89  1183.89
eigval :     1189.96  1195.43  1198.85  1202.37  1206.18  1207.58
eigval :     1211.86  1220.23  1222.52  1224.18  1225.64  1225.98
eigval :     1226.89  1228.27  1229.08  1230.06  1232.62  1233.18
eigval :     1242.22  1243.98  1248.77  1257.50  1263.38  1265.50
eigval :     1267.68  1274.41  1276.04  1279.84  1281.00  1284.63
eigval :     1285.73  1288.11  1292.35  1296.06  1299.97  1306.03
eigval :     1306.70  1318.22  1319.75  1321.73  1322.65  1325.91
eigval :     1330.32  1334.85  1336.79  1340.30  1350.19  1363.48
eigval :     1373.39  1384.99  1398.08  1398.71  1403.34  1404.00
eigval :     1404.48  1404.86  1406.00  1407.00  1409.02  1409.85
eigval :     1412.45  1415.99  1426.92  1427.28  1428.50  1429.66
eigval :     1430.81  1435.23  1439.16  1440.73  1447.60  1462.52
eigval :     1471.57  1472.97  1474.10  1476.36  1477.97  1480.56
eigval :     1484.55  1491.28  1491.29  1491.82  1492.29  1493.21
eigval :     1494.77  1494.94  1495.03  1495.21  1499.45  1499.96
eigval :     1501.03  1501.10  1503.73  1505.12  1505.44  1506.56
eigval :     1510.01  1511.94  1513.82  1514.35  1515.44  1518.52
eigval :     1518.80  1519.23  1522.38  1534.56  1537.56  1540.92
eigval :     1555.26  1565.45  1575.52  1576.74  1582.40  1585.72
eigval :     1586.74  1589.62  1595.39  1600.46  1602.94  3017.25
eigval :     3017.62  3019.00  3019.04  3023.09  3023.98  3025.00
eigval :     3025.82  3025.94  3026.26  3026.53  3026.68  3027.18
eigval :     3028.09  3029.84  3029.97  3031.33  3031.53  3032.80
eigval :     3032.91  3035.25  3035.39  3036.53  3036.99  3037.29
eigval :     3039.70  3039.96  3040.20  3045.90  3045.94  3047.19
eigval :     3047.86  3049.43  3049.64  3050.67  3052.03  3070.12
eigval :     3072.21  3072.53  3073.89  3075.76  3077.34  3078.62
eigval :     3079.31  3079.88  3080.52  3080.66  3083.23  3083.34
eigval :     3083.81  3084.77  3084.82  3087.21  3091.79  3092.16
eigval :     3092.32  3092.71  3093.22  3093.25  3094.39  3095.89
eigval :     3096.35  3096.59  3098.72  3103.68  3107.78  3116.07
eigval :     3120.39  3135.66  3143.91

   temp. (K)  partition function   enthalpy   heat capacity  entropy
                                   cal/mol     cal/K/mol   cal/K/mol   J/K/mol
 298.15  VIB  0.545E+33            41947.234    258.600    261.129
         ROT  0.254E+09              888.752      2.981     41.439
         INT  0.138E+42            42835.986    261.581    302.569
         TR   0.295E+29             1481.254      4.968     46.488
         TOT                       44317.2400   266.5491   349.0570  1460.4543

       T/K    H(0)-H(T)+PV         H(T)/Eh          T*S/Eh         G(T)/Eh
   ------------------------------------------------------------------------
    298.15    0.706240E-01    0.126391E+01    0.165848E+00    0.109806E+01
   ------------------------------------------------------------------------

         :::::::::::::::::::::::::::::::::::::::::::::::::::::
         ::                  THERMODYNAMIC                  ::
         :::::::::::::::::::::::::::::::::::::::::::::::::::::
         :: total free energy        -196.703891839764 Eh   ::
         ::.................................................::
         :: total energy             -197.801949037771 Eh   ::
         :: zero point energy           1.193281408182 Eh   ::
         :: G(RRHO) w/o ZPVE           -0.095224210175 Eh   ::
         :: G(RRHO) contrib.            1.098057198007 Eh   ::
         :::::::::::::::::::::::::::::::::::::::::::::::::::::

           -------------------------------------------------
          | TOTAL ENERGY             -197.801949037771 Eh   |
          | TOTAL ENTHALPY           -196.538043612205 Eh   |
          | TOTAL FREE ENERGY        -196.703891839764 Eh   |
          | GRADIENT NORM               0.000074216406 Eh/α |
           -------------------------------------------------

 * finished run on 2025/09/11 at 13:45:03.803
