   * xtb version 6.7.1 (edcfbbe) compiled by 'albert@albert-system' on 2024-07-22

   ID    Z sym.   atoms
    1    6 C      1-5, 8-17, 19-32, 34-43, 45-56
    2    7 N      6, 7, 18, 33, 44
    3    1 H      57-89

          program call               : xtb data2507/toluene/4NTAZ-PPI/4NTAZ-PPI_toluene_S0_crest.xyz --gfn 2 --gbsa toluene --ohess vtight --parallel 40 --molden --ceasefiles --namespace data2507/toluene/4NTAZ-PPI/4NTAZ-PPI_toluene_S0_finalOpt
      * Solvation model:               GBSA
        Solvent                        toluene
        Solvent mass                       9.2140E+01 g/mol
          :  Hamiltonian                  GFN2-xTB          :
 * total energy  :  -140.7743252 Eh     change       -0.2211152E-08 Eh
 * total energy  :  -140.7743845 Eh     change       -0.5937456E-04 Eh
 * total energy  :  -140.7744161 Eh     change       -0.3152399E-04 Eh
 * total energy  :  -140.7744289 Eh     change       -0.1279400E-04 Eh
 * total energy  :  -140.7744414 Eh     change       -0.1251125E-04 Eh
 * total energy  :  -140.7744525 Eh     change       -0.1118145E-04 Eh
 * total energy  :  -140.7744597 Eh     change       -0.7125854E-05 Eh
 * total energy  :  -140.7744643 Eh     change       -0.4668827E-05 Eh
 * total energy  :  -140.7744689 Eh     change       -0.4564896E-05 Eh
 * total energy  :  -140.7744739 Eh     change       -0.5025453E-05 Eh
 * total energy  :  -140.7745951 Eh     change       -0.2667238E-06 Eh
 * total energy  :  -140.7745953 Eh     change       -0.2370535E-06 Eh
 * total energy  :  -140.7745955 Eh     change       -0.2030043E-06 Eh
 * total energy  :  -140.7745957 Eh     change       -0.1710689E-06 Eh
 * total energy  :  -140.7745958 Eh     change       -0.1671427E-06 Eh
 * total energy  :  -140.7745960 Eh     change       -0.2036385E-06 Eh
 * total energy  :  -140.7745963 Eh     change       -0.2236121E-06 Eh
 * total energy  :  -140.7745964 Eh     change       -0.1780523E-06 Eh
 * total energy  :  -140.7745964 Eh     change       -0.1541849E-08 Eh
   *** GEOMETRY OPTIMIZATION CONVERGED AFTER 68 ITERATIONS ***

 final structure:
================
89
 xtb: 6.7.1 (edcfbbe)
C           11.62629603152500        0.11886927388836        0.07357399078929
C           10.61466565049367        0.71385250764608       -0.66205333611808
C            9.30926909641733        0.27386401317002       -0.53848163524175
C            9.00429477026030       -0.76863128790325        0.33421098336696
C            7.65081024846373       -1.27239213714553        0.49426696686896
N            7.34821286517462       -2.52727310496870        0.71351688414183
N            6.01850039930015       -2.63490284575533        0.78295789010723
C            5.49462822015943       -1.44618832534227        0.61327610191245
C            4.06923216300500       -1.17384336649488        0.62890698559012
C            3.19764931362765       -2.19172258167530        0.23778649822138
C            1.83579181131443       -1.97974366289400        0.22060654032916
C            1.30084968121476       -0.74483169043461        0.58876403049853
C           -0.14830561989212       -0.50901595311854        0.54420691281559
C           -1.04544449544923       -1.48562282285566        0.97288686086019
C           -2.40840396970672       -1.27220118188121        0.92216418227445
C           -2.91666467399037       -0.07424419691659        0.42172306288242
C           -4.33786257988278        0.21635506913008        0.32901496555856
N           -4.82593306174651        1.42376464841873        0.48945581708942
C           -6.16969246431892        1.30973417895284        0.32448768817371
C           -7.15026526562206        2.33663901222163        0.42344273149229
C           -6.79519918323220        3.65158697985918        0.74465517837044
C           -7.75796703325669        4.62387700885829        0.85500383877138
C           -9.09473353868171        4.28911313008192        0.64627314738724
C           -9.45488136647726        3.00069251542724        0.32614451740000
C           -8.49960311600467        1.97996099627558        0.19740201831838
C           -8.84556559197267        0.61598354138786       -0.16633997609802
C          -10.16668005685900        0.24695602585692       -0.45938527379359
C          -10.50150496179614       -1.03189213617342       -0.83781721922138
C           -9.51448499087186       -2.00562702529008       -0.95513138022022
C           -8.20887138077977       -1.68691847475489       -0.67275057069745
C           -7.84889239168508       -0.39477817339388       -0.26272514037098
C           -6.51086180092761       -0.01144167191619        0.03858467808013
N           -5.32242948088083       -0.70733958381534        0.05791778675881
C           -5.10348839583065       -2.08283376981894       -0.18021018703321
C           -5.55361637032214       -3.02977999553258        0.73534026599901
C           -5.30837729185348       -4.37178837843195        0.50703636392354
C           -4.61416281082193       -4.77092878408607       -0.62443656471258
C           -4.16427914273850       -3.82607045386366       -1.53184013672401
C           -4.40641692645858       -2.48085694888958       -1.31446317236508
C           -2.01933577845424        0.91544243488359        0.01420588776462
C           -0.65923410967373        0.70185936744141        0.07595326408730
C            2.17370593907821        0.26005990700320        1.00209023556833
C            3.53736933094719        0.04968266438129        1.03176688685804
N            6.49907841753724       -0.52620408959664        0.41798416110789
C            6.39106245130328        0.86704965078386        0.23451964997645
C            6.93601701003323        1.70860908452108        1.17341498608134
C            6.82805918649114        3.09743846990367        1.02454694654169
C            6.16875970998414        3.62593607507608       -0.04992129446147
C            5.60400488481125        2.78943929467614       -1.03640812543883
C            4.92330649050323        3.31576670312942       -2.15486212673374
C            4.39543279511381        2.48988482595140       -3.10737414136969
C            4.53581890433482        1.09846023950298       -2.99255923151098
C            5.18712628695520        0.55403132484992       -1.92071141417529
C            5.72367141693388        1.37943487927754       -0.91069167949539
C           10.03020161896202       -1.37796690429261        1.05647335683959
C           11.33178420766518       -0.93299573788128        0.92720250115663
H           12.64320571907682        0.46874531185740       -0.02424247358764
H           10.84123434044563        1.52325925395485       -1.34041804833012
H            8.53310256922758        0.73095752038380       -1.13472823591811
H            3.61469882354589       -3.14316840207502       -0.05512350005280
H            1.17679644457469       -2.77073336421049       -0.10517579496586
H           -0.66953789276815       -2.41414073281901        1.37645374245402
H           -3.07461235154012       -2.03500539149444        1.29409287890595
H           -5.74973705700885        3.86706597798191        0.90548837181880
H           -7.48691145289365        5.63934524938997        1.10442747918974
H           -9.85735989055269        5.04927437627760        0.73765584946653
H          -10.50167988428998        2.78878913128924        0.17732429373336
H          -10.95403404982891        0.98051042627501       -0.39669844252004
H          -11.53092943458345       -1.27711649103061       -1.05472692720771
H           -9.77120729119303       -3.00641853036218       -1.26985810852262
H           -7.44521859917469       -2.44017263983032       -0.78012770317888
H           -6.09289070735352       -2.70593160313949        1.61409694338245
H           -5.65827582717681       -5.10603620421243        1.21700149109017
H           -4.42331199372886       -5.81917875218069       -0.79722073423980
H           -3.62367194686363       -4.13451119875887       -2.41379581424346
H           -4.05843829879578       -1.73453277833509       -2.01351777786073
H           -2.41585069514852        1.84895442749159       -0.35457310255424
H            0.01864018233027        1.47019943131585       -0.26547679647578
H            1.77738701161821        1.21045726450942        1.32743104846945
H            4.18528736317646        0.83760209484896        1.38519878271620
H            7.44427347590592        1.29305568242132        2.03193245377843
H            7.26390882480787        3.73945044980653        1.77465658466879
H            6.07160395769098        4.69558857770915       -0.16166550213304
H            4.82925766915994        4.38834511148876       -2.24257694222245
H            3.87362305068243        2.90092750784318       -3.95876769798563
H            4.12747338689949        0.45605237782242       -3.75844610290158
H            5.29767003444998       -0.51847534432620       -1.84591312520078
H            9.78409283910311       -2.19843773836230        1.71320036872747
H           12.11926422146486       -1.40711517685103        1.49418185272907

          :  Hamiltonian                  GFN2-xTB          :
         :: gradient norm              0.000035997158 Eh/a0 ::
         :: HOMO-LUMO gap              2.363760916617 eV    ::
         :: SCC energy              -143.379475821330 Eh    ::
         :: -> dispersion             -0.130229667150 Eh    ::
         :: -> Gsolv                  -0.061748420804 Eh    ::
         :: repulsion energy           2.604879382706 Eh    ::

    * Orbital Energies and Occupations

         #    Occupation            Energy/Eh            Energy/eV
      -------------------------------------------------------------
         1        2.0000           -0.7032485             -19.1364
       ...           ...                  ...                  ...
       119        2.0000           -0.4142588             -11.2726
       120        2.0000           -0.4140360             -11.2665
       121        2.0000           -0.4124987             -11.2247
       122        2.0000           -0.4085441             -11.1171
       123        2.0000           -0.4063551             -11.0575
       124        2.0000           -0.4033333             -10.9753
       125        2.0000           -0.3991825             -10.8623
       126        2.0000           -0.3929942             -10.6939
       127        2.0000           -0.3846484             -10.4668
       128        2.0000           -0.3833680             -10.4320
       129        2.0000           -0.3804687             -10.3531
       130        2.0000           -0.3683175             -10.0224
       131        2.0000           -0.3651912              -9.9374 (HOMO)
       132                         -0.2783246              -7.5736 (LUMO)
       133                         -0.2720561              -7.4030
       134                         -0.2576518              -7.0111
       135                         -0.2517090              -6.8494
       136                         -0.2493961              -6.7864
       137                         -0.2454507              -6.6791
       138                         -0.2411640              -6.5624
       139                         -0.2406425              -6.5482
       140                         -0.2363343              -6.4310
       141                         -0.2320018              -6.3131
       142                         -0.2314078              -6.2969
       ...                                ...                  ...
       257                          0.7243234              19.7098
      -------------------------------------------------------------
                  HL-Gap            0.0868666 Eh            2.3638 eV

     #   Z          covCN         q      C6AA      α(0)
     1   6 C        2.919    -0.028    28.690     8.784
     2   6 C        2.919    -0.029    28.720     8.788
     3   6 C        2.922    -0.034    28.846     8.808
     4   6 C        2.974    -0.005    28.136     8.701
     5   6 C        3.128     0.137    24.826     8.158
     6   7 N        2.063    -0.221    26.530     7.641
     7   7 N        2.066    -0.221    26.536     7.641
     8   6 C        3.125     0.138    24.816     8.157
     9   6 C        2.974    -0.006    28.163     8.705
    10   6 C        2.926    -0.030    28.755     8.794
    11   6 C        2.923    -0.032    28.797     8.800
    12   6 C        2.976     0.014    27.700     8.633
    13   6 C        2.976     0.012    27.739     8.639
    14   6 C        2.923    -0.034    28.837     8.806
    15   6 C        2.920    -0.036    28.898     8.815
    16   6 C        2.973    -0.003    28.084     8.693
    17   6 C        3.189     0.135    24.618     8.094
    18   7 N        1.895    -0.318    29.083     7.995
    19   6 C        3.204     0.060    26.097     8.322
    20   6 C        2.985    -0.003    28.095     8.695
    21   6 C        2.921    -0.033    28.834     8.806
    22   6 C        2.917    -0.032    28.794     8.799
    23   6 C        2.917    -0.034    28.853     8.808
    24   6 C        2.921    -0.036    28.907     8.817
    25   6 C        2.979    -0.005    28.136     8.701
    26   6 C        2.979    -0.001    28.057     8.689
    27   6 C        2.922    -0.035    28.874     8.812
    28   6 C        2.916    -0.034    28.847     8.807
    29   6 C        2.917    -0.032    28.809     8.802
    30   6 C        2.919    -0.041    29.030     8.836
    31   6 C        2.977    -0.005    28.144     8.702
    32   6 C        3.073     0.022    27.440     8.589
    33   7 N        2.840    -0.054    22.280     7.010
    34   6 C        2.912     0.066    26.512     8.443
    35   6 C        2.921    -0.037    28.917     8.818
    36   6 C        2.920    -0.026    28.651     8.778
    37   6 C        2.919    -0.028    28.705     8.786
    38   6 C        2.920    -0.025    28.621     8.773
    39   6 C        2.921    -0.038    28.938     8.822
    40   6 C        2.927    -0.029    28.728     8.790
    41   6 C        2.923    -0.032    28.807     8.802
    42   6 C        2.924    -0.034    28.845     8.808
    43   6 C        2.920    -0.035    28.873     8.812
    44   7 N        2.830    -0.060    22.388     7.027
    45   6 C        2.907     0.055    26.767     8.483
    46   6 C        2.919    -0.042    29.032     8.836
    47   6 C        2.915    -0.029    28.733     8.790
    48   6 C        2.918    -0.036    28.891     8.814
    49   6 C        2.986     0.015    27.668     8.628
    50   6 C        2.919    -0.033    28.814     8.803
    51   6 C        2.915    -0.026    28.659     8.779
    52   6 C        2.916    -0.027    28.676     8.781
    53   6 C        2.916    -0.032    28.789     8.799
    54   6 C        2.986     0.002    27.968     8.675
    55   6 C        2.927    -0.029    28.736     8.791
    56   6 C        2.918    -0.027    28.668     8.780
    57   1 H        0.926     0.043     2.409     2.427
    58   1 H        0.926     0.040     2.448     2.447
    59   1 H        0.926     0.027     2.635     2.539
    60   1 H        0.926     0.048     2.340     2.392
    61   1 H        0.926     0.045     2.378     2.411
    62   1 H        0.926     0.042     2.423     2.434
    63   1 H        0.926     0.032     2.554     2.499
    64   1 H        0.926     0.043     2.405     2.425
    65   1 H        0.926     0.032     2.551     2.498
    66   1 H        0.926     0.032     2.559     2.501
    67   1 H        0.926     0.035     2.521     2.483
    68   1 H        0.926     0.037     2.488     2.467
    69   1 H        0.926     0.033     2.547     2.496
    70   1 H        0.926     0.032     2.559     2.501
    71   1 H        0.926     0.030     2.590     2.517
    72   1 H        0.926     0.042     2.426     2.435
    73   1 H        0.926     0.048     2.346     2.395
    74   1 H        0.926     0.048     2.341     2.393
    75   1 H        0.926     0.048     2.347     2.396
    76   1 H        0.926     0.038     2.470     2.458
    77   1 H        0.926     0.048     2.343     2.394
    78   1 H        0.926     0.043     2.409     2.427
    79   1 H        0.926     0.042     2.422     2.433
    80   1 H        0.926     0.028     2.608     2.526
    81   1 H        0.926     0.034     2.536     2.490
    82   1 H        0.926     0.046     2.364     2.404
    83   1 H        0.926     0.050     2.322     2.383
    84   1 H        0.926     0.047     2.362     2.403
    85   1 H        0.926     0.044     2.397     2.421
    86   1 H        0.926     0.039     2.458     2.452
    87   1 H        0.926     0.023     2.685     2.563
    88   1 H        0.926     0.045     2.378     2.412
    89   1 H        0.926     0.043     2.408     2.427

molecular dipole:
                 x           y           z       tot (Debye)
 q only:        0.026       0.632      -0.765
   full:       -0.189       0.870      -0.896       3.210

 projected vibrational frequencies (cm⁻¹)
eigval :       -0.00    -0.00     0.00     0.00     0.00     0.00
eigval :        7.91    10.61    12.64    22.76    24.97    27.47
eigval :       30.47    34.56    43.14    47.96    55.30    60.50
eigval :       63.72    76.14    80.35    87.71    89.96    92.08
eigval :      105.21   109.27   123.57   137.01   157.08   165.24
eigval :      171.33   183.85   201.69   214.59   228.37   235.99
eigval :      238.50   248.43   261.75   266.34   270.89   295.74
eigval :      324.51   335.93   351.33   356.68   370.38   370.79
eigval :      377.12   379.93   383.44   396.50   398.15   402.54
eigval :      420.11   434.03   436.87   437.18   440.14   447.42
eigval :      458.80   474.71   482.37   493.97   498.54   509.48
eigval :      514.95   523.60   535.45   538.87   540.49   545.81
eigval :      569.72   584.59   587.59   588.45   599.77   605.06
eigval :      624.73   632.75   638.59   644.43   652.97   659.05
eigval :      667.00   668.68   677.27   677.56   683.35   691.33
eigval :      697.58   697.88   705.54   715.23   721.53   727.29
eigval :      736.46   759.68   762.15   764.12   767.44   771.79
eigval :      775.70   783.27   803.82   807.50   813.26   831.72
eigval :      840.16   861.96   866.37   872.41   873.98   874.55
eigval :      874.84   879.29   890.88   901.45   905.50   907.70
eigval :      914.30   914.44   916.45   920.94   922.46   922.87
eigval :      925.30   926.87   927.87   928.18   929.73   931.44
eigval :      931.71   932.92   934.04   938.76   946.54   957.64
eigval :      971.52   988.07  1006.10  1015.11  1027.59  1063.18
eigval :     1067.91  1078.42  1080.08  1081.70  1083.33  1084.78
eigval :     1106.25  1111.75  1113.88  1119.37  1132.46  1136.52
eigval :     1138.89  1144.21  1151.03  1162.88  1169.11  1172.60
eigval :     1176.64  1179.08  1179.50  1180.20  1183.55  1186.96
eigval :     1187.15  1195.65  1197.65  1200.33  1203.63  1207.92
eigval :     1221.06  1252.19  1253.29  1255.15  1266.91  1271.20
eigval :     1273.85  1278.33  1281.23  1283.20  1296.83  1305.93
eigval :     1310.25  1313.55  1317.01  1318.79  1321.54  1330.88
eigval :     1336.55  1336.77  1346.69  1352.94  1371.22  1388.20
eigval :     1392.02  1400.73  1405.30  1411.52  1416.99  1417.71
eigval :     1428.69  1429.00  1430.49  1434.65  1448.25  1453.33
eigval :     1456.30  1472.29  1481.69  1505.66  1511.24  1512.30
eigval :     1526.53  1528.38  1539.20  1554.62  1560.27  1561.01
eigval :     1564.84  1568.69  1580.18  1581.41  1587.76  1590.80
eigval :     1593.01  1595.49  1595.90  1600.51  1602.98  1608.10
eigval :     3069.13  3073.47  3073.80  3075.50  3077.27  3078.54
eigval :     3079.55  3079.56  3079.63  3080.55  3082.19  3082.89
eigval :     3083.33  3084.02  3084.31  3085.69  3085.95  3086.01
eigval :     3087.58  3092.66  3093.19  3094.69  3095.16  3095.87
eigval :     3098.02  3098.69  3100.18  3100.48  3100.85  3101.40
eigval :     3102.53  3108.97  3117.30

   temp. (K)  partition function   enthalpy   heat capacity  entropy
                                   cal/mol     cal/K/mol   cal/K/mol   J/K/mol
 298.15  VIB  0.552E+21            25552.907    160.367    160.471
         ROT  0.164E+09              888.752      2.981     40.577
         INT  0.908E+29            26441.659    163.348    201.047
         TR   0.185E+29             1481.254      4.968     45.564
         TOT                       27922.9129   168.3161   246.6116  1031.8228

       T/K    H(0)-H(T)+PV         H(T)/Eh          T*S/Eh         G(T)/Eh
   ------------------------------------------------------------------------
    298.15    0.444980E-01    0.723563E+00    0.117173E+00    0.606390E+00
   ------------------------------------------------------------------------

         :::::::::::::::::::::::::::::::::::::::::::::::::::::
         ::                  THERMODYNAMIC                  ::
         :::::::::::::::::::::::::::::::::::::::::::::::::::::
         :: total free energy        -140.168206871499 Eh   ::
         ::.................................................::
         :: total energy             -140.774596432107 Eh   ::
         :: zero point energy           0.679064678063 Eh   ::
         :: G(RRHO) w/o ZPVE           -0.072675117454 Eh   ::
         :: G(RRHO) contrib.            0.606389560609 Eh   ::
         :::::::::::::::::::::::::::::::::::::::::::::::::::::

           -------------------------------------------------
          | TOTAL ENERGY             -140.774596432107 Eh   |
          | TOTAL ENTHALPY           -140.051033759943 Eh   |
          | TOTAL FREE ENERGY        -140.168206871499 Eh   |
          | GRADIENT NORM               0.000036004677 Eh/α |
          | HOMO-LUMO GAP               2.363760744735 eV   |
           -------------------------------------------------

 * finished run on 2025/07/16 at 14:28:47.098
