   * xtb version 6.7.1 (edcfbbe) compiled by 'albert@albert-system' on 2024-07-22

   ID    Z sym.   atoms
    1    6 C      1-5, 8-17, 19-32, 34-43, 45-56
    2    7 N      6, 7, 18, 33, 44
    3    1 H      57-89

          program call               : xtb data2507/toluene/4NTAZ-PPI/4NTAZ-PPI_toluene_T1_crest.xyz --gfn 2 --uhf 2 --gbsa toluene --ohess vtight --parallel 40 --molden --ceasefiles --namespace data2507/toluene/4NTAZ-PPI/4NTAZ-PPI_toluene_T1_finalOpt
      * Solvation model:               GBSA
        Solvent                        toluene
        Solvent mass                       9.2140E+01 g/mol
          :  Hamiltonian                  GFN2-xTB          :
 * total energy  :  -140.6903364 Eh     change       -0.3143811E-08 Eh
 * total energy  :  -140.6903970 Eh     change       -0.6055936E-04 Eh
 * total energy  :  -140.6904298 Eh     change       -0.3277855E-04 Eh
 * total energy  :  -140.6904392 Eh     change       -0.9449311E-05 Eh
 * total energy  :  -140.6904489 Eh     change       -0.9726876E-05 Eh
 * total energy  :  -140.6904575 Eh     change       -0.8537031E-05 Eh
 * total energy  :  -140.6904668 Eh     change       -0.9298597E-05 Eh
 * total energy  :  -140.6904747 Eh     change       -0.7913380E-05 Eh
 * total energy  :  -140.6904798 Eh     change       -0.5098730E-05 Eh
 * total energy  :  -140.6904836 Eh     change       -0.3833882E-05 Eh
 * total energy  :  -140.6905131 Eh     change       -0.1841261E-06 Eh
 * total energy  :  -140.6905133 Eh     change       -0.2665262E-06 Eh
 * total energy  :  -140.6905135 Eh     change       -0.1935389E-06 Eh
 * total energy  :  -140.6905137 Eh     change       -0.1827065E-06 Eh
 * total energy  :  -140.6905138 Eh     change       -0.1353692E-06 Eh
 * total energy  :  -140.6905140 Eh     change       -0.1986164E-06 Eh
 * total energy  :  -140.6905143 Eh     change       -0.2815079E-06 Eh
 * total energy  :  -140.6905146 Eh     change       -0.2619414E-06 Eh
 * total energy  :  -140.6905146 Eh     change       -0.1800800E-09 Eh
   *** GEOMETRY OPTIMIZATION CONVERGED AFTER 44 ITERATIONS ***

 final structure:
================
89
 xtb: 6.7.1 (edcfbbe)
C           11.70412207472234       -0.09166747665292        0.15154503776241
C           10.72955130987589        0.69870160355810       -0.43609701048531
C            9.40384069510702        0.30765796107329       -0.41431470534861
C            9.03666180541955       -0.88654728460767        0.20683483591730
C            7.66633806530314       -1.35417924144071        0.24910313929278
N            7.32390217855303       -2.62363367484256        0.22358186076251
N            6.00538371727114       -2.71206795725110        0.23862233356553
C            5.49324063792233       -1.48947631988058        0.29041235399352
C            4.09343970157646       -1.22883984567237        0.36357825528041
C            3.20135560601366       -2.26879854309170        0.01447849239292
C            1.85149445784146       -2.08245960952248        0.03353910748497
C            1.26924658926464       -0.83836180417263        0.40679485287731
C           -0.13718791528061       -0.62729906893964        0.39330040544000
C           -1.06598532907213       -1.70922393172198        0.35308711592981
C           -2.41146493485977       -1.51932025452589        0.31289688165616
C           -2.97504663532096       -0.21212277717179        0.29722305189630
C           -4.34229556110957        0.10170945992140        0.22927835496876
N           -4.78326289964151        1.36464403023189        0.35840470487225
C           -6.10992550448480        1.32235803883263        0.26218538246179
C           -7.02779874471080        2.40816698863599        0.36272461993537
C           -6.57661968408783        3.70798685534578        0.61135737954854
C           -7.47206028656187        4.74575678402456        0.72834211839079
C           -8.83344581930330        4.48603948710497        0.60199076559912
C           -9.28863248869475        3.20858823131064        0.35233054936369
C           -8.40669527685553        2.12691593313154        0.21848360965619
C           -8.85463748624857        0.77233315710871       -0.06294368811032
C          -10.20549876101243        0.47668828207405       -0.27291896632771
C          -10.64328007905388       -0.79913795399345       -0.55525052194723
C           -9.72982867239761       -1.84799452520982       -0.64467710233794
C           -8.39524587764778       -1.60498760048450       -0.44562977987310
C           -7.92309047257791       -0.31014383912503       -0.15063527050485
C           -6.55789285291316       -0.00609557604721        0.04513446762134
N           -5.42289165744880       -0.77257326237656        0.03353596301246
C           -5.35614792688995       -2.17255598008890       -0.15653989096308
C           -5.59807570678668       -3.02816278787028        0.91440781848992
C           -5.53241860595908       -4.39683207235812        0.72298701479323
C           -5.22839370114310       -4.91181704493389       -0.52744335884887
C           -4.99069891192970       -4.05767039082260       -1.59248910849130
C           -5.05445185803530       -2.68701760023493       -1.41334962455158
C           -2.05217610473818        0.87723043831055        0.37143380569685
C           -0.71114927195060        0.67958380357092        0.41819909222847
C            2.17962095098277        0.18032445778737        0.80017243579839
C            3.53182647475609       -0.00626310689359        0.78645646987457
N            6.53259710337372       -0.57486818179690        0.29292215202425
C            6.48305781576356        0.82964114641906        0.36062650419254
C            7.03749068282987        1.46608260855318        1.44651645304651
C            7.00881901821066        2.86252724378753        1.53817937458334
C            6.42287931427511        3.60718839927153        0.55165802438993
C            5.85151257324459        2.98746457035722       -0.58049503321174
C            5.24523286291424        3.73716280896548       -1.61043558186748
C            4.71103775561454        3.11980274185650       -2.70737597150443
C            4.77026452475419        1.72425003990747       -2.83079503029382
C            5.34615689130922        0.96578488744010       -1.84855569358527
C            5.88828555222151        1.57203330496848       -0.69714480956668
C           10.02792374484922       -1.69011016486505        0.77574989408104
C           11.34939764466449       -1.29129614392567        0.75035747487780
H           12.73730413711933        0.22188603970167        0.13593401476441
H           11.00209163659034        1.62523126853578       -0.91997735079489
H            8.65911771845467        0.92164308052260       -0.89867484478281
H            3.62723314903026       -3.21372975299834       -0.28712510316899
H            1.21529094380903       -2.89350478151133       -0.28331745513515
H           -0.69505641217343       -2.72123673215946        0.39701558603028
H           -3.05720581931399       -2.38139454480055        0.31707038676083
H           -5.51322121524943        3.86297811126352        0.71025902192174
H           -7.12565628389000        5.75002949060940        0.92084125731636
H           -9.54425197229818        5.29377214271595        0.69979026833708
H          -10.35267602116302        3.05858451911140        0.26612670141035
H          -10.94027397813717        1.26350990923835       -0.22176791172305
H          -11.69542217614520       -0.98447098387163       -0.71186863150026
H          -10.07006004274265       -2.84703166011428       -0.87257085596099
H           -7.69125641179199       -2.41661289598685       -0.52459831139214
H           -5.83307024101693       -2.61354646017481        1.88381370578617
H           -5.71778545605661       -5.06117175739822        1.55338113278685
H           -5.17708885028789       -5.98024727436943       -0.67178226097386
H           -4.75549952120613       -4.45762827844198       -2.56715240613044
H           -4.86946460803563       -2.01017324435789       -2.23440288544135
H           -2.46643332309144        1.87304196647987        0.36973142001156
H           -0.06171489184804        1.54062387851699        0.43406570015033
H            1.79773567923569        1.12144701258262        1.16337224610015
H            4.17420911558195        0.78858413777807        1.13398183367221
H            7.49242447590092        0.87941322056731        2.23195134650958
H            7.44808448411227        3.33953890635133        2.40113722767002
H            6.38996532967526        4.68413941293571        0.62338012862755
H            5.21179252954730        4.81259485368599       -1.51331146593649
H            4.24637486153891        3.70182869768247       -3.48943196291503
H            4.35752236864354        1.24762730204722       -3.70757198956633
H            5.38992772965283       -0.10908094662079       -1.95392355931239
H            9.73593015095764       -2.62260525778914        1.23430706264344
H           12.10684855207031       -1.91682208764997        1.19921263287997

          :  Hamiltonian                  GFN2-xTB          :
         :: gradient norm              0.000047418127 Eh/a0 ::
         :: HOMO-LUMO gap              0.324925597323 eV    ::
         :: SCC energy              -143.276734520340 Eh    ::
         :: -> dispersion             -0.129761864254 Eh    ::
         :: -> Gsolv                  -0.061588826374 Eh    ::
         :: repulsion energy           2.586219930743 Eh    ::

    * Orbital Energies and Occupations

         #    Occupation            Energy/Eh            Energy/eV
      -------------------------------------------------------------
         1        2.0000           -0.6988942             -19.0179
       ...           ...                  ...                  ...
       120        2.0000           -0.4096344             -11.1467
       121        2.0000           -0.4088113             -11.1243
       122        2.0000           -0.4079288             -11.1003
       123        2.0000           -0.4067168             -11.0673
       124        2.0000           -0.4058851             -11.0447
       125        2.0000           -0.3982827             -10.8378
       126        2.0000           -0.3900460             -10.6137
       127        2.0000           -0.3890610             -10.5869
       128        2.0000           -0.3836926             -10.4408
       129        2.0000           -0.3791844             -10.3181
       130        1.9629           -0.3664555              -9.9718
       131        1.0371           -0.3602679              -9.8034
       132        0.9981           -0.2861643              -7.7869 (HOMO)
       133        0.0019           -0.2742239              -7.4620 (LUMO)
       134                         -0.2608818              -7.0990
       135                         -0.2570338              -6.9942
       136                         -0.2520293              -6.8581
       137                         -0.2449597              -6.6657
       138                         -0.2424409              -6.5972
       139                         -0.2416775              -6.5764
       140                         -0.2393782              -6.5138
       141                         -0.2298028              -6.2533
       142                         -0.2202556              -5.9935
       143                         -0.2171610              -5.9093
       ...                                ...                  ...
       257                          0.7196033              19.5814
      -------------------------------------------------------------
                  HL-Gap            0.0119405 Eh            0.3249 eV

     #   Z          covCN         q      C6AA      α(0)
     1   6 C        2.919    -0.029    28.716     8.788
     2   6 C        2.918    -0.029    28.726     8.789
     3   6 C        2.922    -0.035    28.866     8.811
     4   6 C        2.973    -0.005    28.152     8.703
     5   6 C        3.114     0.136    24.882     8.171
     6   7 N        2.054    -0.208    26.243     7.599
     7   7 N        2.063    -0.217    26.449     7.629
     8   6 C        3.103     0.136    24.920     8.180
     9   6 C        2.970    -0.014    28.361     8.735
    10   6 C        2.920    -0.034    28.856     8.809
    11   6 C        2.917    -0.036    28.907     8.817
    12   6 C        2.968     0.007    27.869     8.659
    13   6 C        2.968     0.008    27.834     8.654
    14   6 C        2.915    -0.036    28.886     8.813
    15   6 C        2.910    -0.041    29.028     8.835
    16   6 C        2.968    -0.012    28.311     8.728
    17   6 C        3.142     0.132    24.896     8.165
    18   7 N        1.887    -0.313    28.966     7.979
    19   6 C        3.170     0.079    25.883     8.312
    20   6 C        2.984    -0.005    28.140     8.702
    21   6 C        2.922    -0.027    28.675     8.782
    22   6 C        2.916    -0.030    28.758     8.794
    23   6 C        2.917    -0.028    28.702     8.785
    24   6 C        2.921    -0.034    28.838     8.806
    25   6 C        2.977    -0.000    28.031     8.685
    26   6 C        2.977     0.001    27.995     8.679
    27   6 C        2.920    -0.032    28.802     8.801
    28   6 C        2.916    -0.030    28.740     8.791
    29   6 C        2.915    -0.031    28.769     8.795
    30   6 C        2.918    -0.036    28.905     8.816
    31   6 C        2.974    -0.008    28.222     8.714
    32   6 C        3.048     0.039    27.086     8.536
    33   7 N        2.822    -0.062    22.445     7.036
    34   6 C        2.911     0.068    26.487     8.439
    35   6 C        2.920    -0.037    28.920     8.819
    36   6 C        2.919    -0.025    28.630     8.774
    37   6 C        2.919    -0.028    28.693     8.784
    38   6 C        2.920    -0.025    28.617     8.772
    39   6 C        2.920    -0.037    28.912     8.818
    40   6 C        2.921    -0.032    28.801     8.801
    41   6 C        2.914    -0.037    28.910     8.817
    42   6 C        2.918    -0.037    28.916     8.818
    43   6 C        2.913    -0.039    28.964     8.825
    44   7 N        2.823    -0.065    22.503     7.045
    45   6 C        2.907     0.055    26.771     8.484
    46   6 C        2.919    -0.043    29.078     8.843
    47   6 C        2.915    -0.031    28.761     8.794
    48   6 C        2.918    -0.039    28.962     8.825
    49   6 C        2.986     0.014    27.703     8.634
    50   6 C        2.919    -0.034    28.852     8.808
    51   6 C        2.915    -0.027    28.684     8.782
    52   6 C        2.916    -0.028    28.703     8.785
    53   6 C        2.916    -0.032    28.795     8.799
    54   6 C        2.986     0.002    27.969     8.675
    55   6 C        2.927    -0.030    28.758     8.795
    56   6 C        2.918    -0.027    28.681     8.782
    57   1 H        0.926     0.042     2.423     2.434
    58   1 H        0.926     0.039     2.464     2.455
    59   1 H        0.926     0.026     2.646     2.544
    60   1 H        0.926     0.044     2.391     2.418
    61   1 H        0.926     0.039     2.461     2.453
    62   1 H        0.926     0.037     2.485     2.465
    63   1 H        0.926     0.030     2.583     2.513
    64   1 H        0.926     0.049     2.329     2.386
    65   1 H        0.926     0.039     2.459     2.452
    66   1 H        0.926     0.040     2.451     2.448
    67   1 H        0.926     0.042     2.423     2.434
    68   1 H        0.926     0.043     2.406     2.426
    69   1 H        0.926     0.039     2.460     2.453
    70   1 H        0.926     0.037     2.487     2.466
    71   1 H        0.926     0.034     2.524     2.484
    72   1 H        0.926     0.042     2.424     2.434
    73   1 H        0.926     0.049     2.333     2.388
    74   1 H        0.926     0.049     2.332     2.388
    75   1 H        0.926     0.049     2.332     2.388
    76   1 H        0.926     0.041     2.430     2.438
    77   1 H        0.926     0.051     2.309     2.376
    78   1 H        0.926     0.038     2.481     2.463
    79   1 H        0.926     0.036     2.501     2.473
    80   1 H        0.926     0.022     2.700     2.570
    81   1 H        0.926     0.031     2.576     2.510
    82   1 H        0.926     0.043     2.404     2.425
    83   1 H        0.926     0.046     2.366     2.406
    84   1 H        0.926     0.044     2.396     2.420
    85   1 H        0.926     0.042     2.427     2.436
    86   1 H        0.926     0.037     2.493     2.469
    87   1 H        0.926     0.022     2.708     2.573
    88   1 H        0.926     0.045     2.384     2.414
    89   1 H        0.926     0.042     2.422     2.434

molecular dipole:
                 x           y           z       tot (Debye)
 q only:       -2.473       0.899      -0.320
   full:       -2.676       1.117      -0.341       7.423

 projected vibrational frequencies (cm⁻¹)
eigval :       -0.00    -0.00    -0.00    -0.00     0.00     0.00
eigval :       -7.64     9.40    12.07    19.50    25.48    27.39
eigval :       31.14    32.09    39.29    44.92    52.93    59.75
eigval :       61.10    66.41    79.75    84.08    88.80    91.20
eigval :       97.58   110.89   130.90   133.89   155.32   159.19
eigval :      170.38   173.30   207.58   211.18   218.37   232.33
eigval :      237.71   243.72   255.69   262.03   273.77   277.27
eigval :      316.58   323.35   339.24   356.33   364.81   373.83
eigval :      375.47   377.88   381.78   389.34   391.99   398.60
eigval :      404.15   412.43   430.80   435.44   437.37   437.95
eigval :      445.72   454.60   470.79   480.05   488.70   494.60
eigval :      502.59   507.58   511.49   524.74   535.64   547.53
eigval :      567.61   582.27   586.29   587.08   588.42   600.51
eigval :      616.90   621.21   628.85   633.75   639.77   643.12
eigval :      651.64   657.85   664.39   667.40   671.39   672.92
eigval :      679.43   688.46   692.17   699.61   715.52   720.64
eigval :      730.28   752.79   758.40   759.25   761.87   764.47
eigval :      774.98   775.51   791.76   797.01   798.40   809.58
eigval :      811.57   822.31   838.16   854.80   866.60   873.16
eigval :      873.55   873.79   886.00   900.27   900.85   902.20
eigval :      902.61   903.26   909.83   912.22   913.00   913.07
eigval :      915.73   918.57   919.42   921.52   922.04   928.72
eigval :      928.88   929.34   930.54   933.10   933.77   943.57
eigval :      944.47   968.10   983.94   991.81  1002.88  1023.17
eigval :     1046.47  1060.38  1078.46  1080.45  1082.52  1083.44
eigval :     1099.21  1104.59  1110.82  1116.43  1118.96  1129.69
eigval :     1134.30  1141.01  1150.61  1153.33  1158.93  1159.45
eigval :     1168.91  1177.17  1178.34  1179.67  1180.01  1183.17
eigval :     1188.46  1193.76  1197.25  1201.31  1205.36  1213.19
eigval :     1221.79  1244.96  1247.39  1252.76  1254.59  1259.73
eigval :     1272.78  1274.56  1277.05  1277.44  1282.41  1294.34
eigval :     1296.29  1304.07  1305.36  1320.30  1324.16  1331.60
eigval :     1332.30  1335.74  1336.55  1347.39  1352.82  1375.16
eigval :     1381.48  1392.00  1394.08  1398.35  1409.76  1414.19
eigval :     1421.51  1425.94  1429.47  1431.46  1435.93  1440.55
eigval :     1442.52  1447.88  1455.86  1464.86  1472.06  1484.49
eigval :     1491.06  1496.62  1502.89  1507.51  1520.37  1539.71
eigval :     1544.77  1547.91  1565.33  1572.29  1575.47  1577.45
eigval :     1583.37  1584.97  1586.42  1588.14  1589.42  1604.11
eigval :     3071.44  3074.82  3075.24  3075.44  3076.24  3078.86
eigval :     3079.28  3082.04  3083.59  3083.74  3085.68  3086.29
eigval :     3086.64  3087.00  3089.21  3089.48  3090.93  3092.73
eigval :     3092.99  3093.21  3095.21  3095.70  3095.94  3098.79
eigval :     3100.58  3101.81  3102.37  3103.42  3104.35  3108.46
eigval :     3112.35  3126.40  3129.27

   temp. (K)  partition function   enthalpy   heat capacity  entropy
                                   cal/mol     cal/K/mol   cal/K/mol   J/K/mol
 298.15  VIB  0.188E+22            25963.515    162.241    163.238
         ROT  0.171E+09              888.752      2.981     40.658
         INT  0.322E+30            26852.268    165.222    203.896
         TR   0.185E+29             1481.254      4.968     45.564
         TOT                       28333.5217   170.1899   249.4602  1043.7415

       T/K    H(0)-H(T)+PV         H(T)/Eh          T*S/Eh         G(T)/Eh
   ------------------------------------------------------------------------
    298.15    0.451523E-01    0.719742E+00    0.118527E+00    0.601215E+00
   ------------------------------------------------------------------------

         :::::::::::::::::::::::::::::::::::::::::::::::::::::
         ::                  THERMODYNAMIC                  ::
         :::::::::::::::::::::::::::::::::::::::::::::::::::::
         :: total free energy        -140.089299281534 Eh   ::
         ::.................................................::
         :: total energy             -140.690514581969 Eh   ::
         :: zero point energy           0.674589549678 Eh   ::
         :: G(RRHO) w/o ZPVE           -0.073374249243 Eh   ::
         :: G(RRHO) contrib.            0.601215300435 Eh   ::
         :::::::::::::::::::::::::::::::::::::::::::::::::::::

           -------------------------------------------------
          | TOTAL ENERGY             -140.690514581969 Eh   |
          | TOTAL ENTHALPY           -139.970772691418 Eh   |
          | TOTAL FREE ENERGY        -140.089299281534 Eh   |
          | GRADIENT NORM               0.000047221611 Eh/α |
          | HOMO-LUMO GAP               0.324916488596 eV   |
           -------------------------------------------------

 * finished run on 2025/07/16 at 14:35:22.370
