   * xtb version 6.7.1 (edcfbbe) compiled by 'albert@albert-system' on 2024-07-22

   ID    Z sym.   atoms
    1    6 C      1-5, 8-17, 19-32, 34-43, 45-56
    2    7 N      6, 7, 18, 33, 44
    3    1 H      57-89

          program call               : xtb data2507/toluene/4NTAZ-PPI/4NTAZ-PPI_toluene_S0_finalOpt.xtbopt.xyz --gfn 2 --uhf 2 --gbsa toluene --ohess vtight --parallel 40 --molden --ceasefiles --namespace data2507/toluene/4NTAZ-PPI/4NTAZ-PPI_toluene_T1_preOpt
      * Solvation model:               GBSA
        Solvent                        toluene
        Solvent mass                       9.2140E+01 g/mol
          :  Hamiltonian                  GFN2-xTB          :
 * total energy  :  -140.6787044 Eh     change       -0.2646905E-07 Eh
 * total energy  :  -140.6833443 Eh     change       -0.4639872E-02 Eh
 * total energy  :  -140.6863993 Eh     change       -0.3055062E-02 Eh
 * total energy  :  -140.6871808 Eh     change       -0.7814833E-03 Eh
 * total energy  :  -140.6883191 Eh     change       -0.1138277E-02 Eh
 * total energy  :  -140.6888512 Eh     change       -0.5321476E-03 Eh
 * total energy  :  -140.6891891 Eh     change       -0.3378708E-03 Eh
 * total energy  :  -140.6894099 Eh     change       -0.2207979E-03 Eh
 * total energy  :  -140.6895636 Eh     change       -0.1537431E-03 Eh
 * total energy  :  -140.6896697 Eh     change       -0.1060301E-03 Eh
 * total energy  :  -140.6903688 Eh     change       -0.1470931E-06 Eh
 * total energy  :  -140.6903690 Eh     change       -0.2023289E-06 Eh
 * total energy  :  -140.6903692 Eh     change       -0.2385842E-06 Eh
 * total energy  :  -140.6903694 Eh     change       -0.2495043E-06 Eh
 * total energy  :  -140.6903697 Eh     change       -0.2336584E-06 Eh
 * total energy  :  -140.6903699 Eh     change       -0.2374193E-06 Eh
 * total energy  :  -140.6903701 Eh     change       -0.2254751E-06 Eh
 * total energy  :  -140.6903703 Eh     change       -0.1980215E-06 Eh
 * total energy  :  -140.6903704 Eh     change       -0.6519917E-07 Eh
   *** GEOMETRY OPTIMIZATION CONVERGED AFTER 85 ITERATIONS ***

 final structure:
================
89
 xtb: 6.7.1 (edcfbbe)
C           11.69808250548392        0.09288783028550        0.12804145853795
C           10.70558361447604        0.77652494635544       -0.55558473175839
C            9.38840216337803        0.36483202740424       -0.47384690079009
C            9.04826203526168       -0.74136684355616        0.30539587223981
C            7.68756512487813       -1.22516688235298        0.41991299556914
N            7.36959518663074       -2.49222713780408        0.56949956156368
N            6.05251026368970       -2.60240219398408        0.60741024590491
C            5.51827733813149       -1.39402751443187        0.49724517251237
C            4.11470635582539       -1.14541848979947        0.54696408933324
C            3.23322377120930       -2.22363412107072        0.30663285033882
C            1.88156146490036       -2.04884132055395        0.30889191963699
C            1.28620033716255       -0.78046366207090        0.56195312239518
C           -0.12220764513488       -0.58610435704654        0.53131209271842
C           -1.04045740805444       -1.67815398629826        0.56166300678102
C           -2.38722008567195       -1.50677086629132        0.49492753316847
C           -2.96431357505650       -0.20995588168202        0.38519362901578
C           -4.33366285560936        0.08149044498624        0.27615898233179
N           -4.79814666995591        1.33947610742983        0.36290961963640
C           -6.12090098870348        1.27196184599328        0.23198561110562
C           -7.05948172391264        2.34330227420426        0.28547274815552
C           -6.63868468682157        3.65371217634318        0.53178393039207
C           -7.55457230412915        4.67775342776783        0.60254577203146
C           -8.90584349433457        4.39395494124484        0.42890840698212
C           -9.33105562402831        3.10568442777883        0.18190645808180
C           -8.42756918744777        2.03700356753585        0.09668056218260
C           -8.84326161716430        0.67100054754678       -0.17893081758986
C          -10.18013485925527        0.35015654040052       -0.43602732199052
C          -10.58636958075050       -0.93669389034303       -0.71563912020857
C           -9.65343039997077       -1.97131702014204       -0.75541434107465
C           -8.33175081529388       -1.70364746599352       -0.50772252752101
C           -7.89227615385251       -0.39745200997294       -0.21240043740324
C           -6.54046405065203       -0.06825918673391        0.02995055994883
N           -5.39353801480564       -0.81577399487094        0.07213723118264
C           -5.29248981894612       -2.21632251958174       -0.09450098485479
C           -5.58919382108058       -3.06362341621874        0.96945514100867
C           -5.49002113448111       -4.43313949652840        0.80005944004652
C           -5.09792023966513       -4.95757828127538       -0.42166679312092
C           -4.80341376096839       -4.11181588257891       -1.47910116945419
C           -4.89951574126667       -2.74037109051108       -1.32160965937739
C           -2.05456429299616        0.89241321405500        0.40419501804176
C           -0.71184791147521        0.71316614449287        0.46991209522555
C            2.18801938321401        0.28044137960902        0.85165450057370
C            3.54197855373520        0.10723937151910        0.84842746504994
N            6.53916030078821       -0.46832844987589        0.36828248561579
C            6.45474001235780        0.92975885167475        0.23305894810280
C            6.99892742335359        1.73107004581414        1.20930232659707
C            6.93008769892431        3.12490510652455        1.09949276198296
C            6.31323166349168        3.70304748458412        0.02430072317492
C            5.75251577928762        2.91111444688842       -1.00065807513746
C            5.11732402767611        3.48780169760079       -2.12070684681183
C            4.59539595907677        2.70467550865893       -3.11262288786561
C            4.69559051420394        1.30804154499993       -3.03551154882353
C            5.30060437937476        0.71523998910331       -1.96127537207690
C            5.83087934993555        1.49526269256856       -0.91358748747928
C           10.05756202107275       -1.44030912229742        0.97211759836335
C           11.37045532440604       -1.02211026061426        0.88499949497879
H           12.72440181001400        0.42237761499223        0.06404550252652
H           10.95729069940052        1.63475967256061       -1.16132884962685
H            8.62949690290600        0.89168441246046       -1.03303514470291
H            3.66746393738639       -3.19023464214075        0.10052549614997
H            1.25443680616053       -2.89442874095633        0.07585432405101
H           -0.66086364755898       -2.68071793630678        0.68063521550762
H           -3.02453373970041       -2.37314648621927        0.55610246456268
H           -5.58219694241244        3.82758226200050        0.66691661471991
H           -7.23181582596755        5.69009608880412        0.79393991867973
H           -9.63255107636554        5.19118451190762        0.48870648567553
H          -10.38864495716222        2.93676944076073        0.05904645854950
H          -10.92862670079093        1.12556958852837       -0.42596464005182
H          -11.62854961862426       -1.14145041722391       -0.91011015327777
H           -9.96822959022596       -2.97870616719788       -0.98315865431807
H           -7.61190485954592       -2.50413750061402       -0.54905178589930
H           -5.89342909858264       -2.64202118527444        1.91637069131530
H           -5.71828928947715       -5.09059150597802        1.62525879954174
H           -5.02134782544270       -6.02665490828292       -0.54917694838228
H           -4.49847601821004       -4.51892491758406       -2.43121200795844
H           -4.67034442553040       -2.07038482789885       -2.13712069754250
H           -2.47965757332071        1.88155101058067        0.33893905473308
H           -0.07384672623721        1.58201855965962        0.43708134824074
H            1.79955014015894        1.24960035615969        1.12167255437401
H            4.17854037875220        0.93873790931114        1.11122682634269
H            7.47624704088000        1.27686682984004        2.06599689977951
H            7.36216424042954        3.73339742624728        1.87931237105730
H            6.24856057548698        4.77778723637355       -0.05843254947271
H            5.05267608181308        4.56467106329070       -2.17802638660290
H            4.10856228267713        3.15484295238290       -3.96505859776594
H            4.29224915413555        0.69876798817189       -3.83066170426597
H            5.37712157764314       -0.36181979914293       -1.91352699662809
H            9.78656883729174       -2.30790270868388        1.55425379322873
H           12.14213435014139       -1.56587559532053        1.40973586815065

          :  Hamiltonian                  GFN2-xTB          :
         :: gradient norm              0.000057653916 Eh/a0 ::
         :: HOMO-LUMO gap              0.321345660054 eV    ::
         :: SCC energy              -143.276750563564 Eh    ::
         :: -> dispersion             -0.129780776769 Eh    ::
         :: -> Gsolv                  -0.061618705764 Eh    ::
         :: repulsion energy           2.586380034057 Eh    ::

    * Orbital Energies and Occupations

         #    Occupation            Energy/Eh            Energy/eV
      -------------------------------------------------------------
         1        2.0000           -0.6990722             -19.0227
       ...           ...                  ...                  ...
       120        2.0000           -0.4096203             -11.1463
       121        2.0000           -0.4088538             -11.1255
       122        2.0000           -0.4079682             -11.1014
       123        2.0000           -0.4067015             -11.0669
       124        2.0000           -0.4056864             -11.0393
       125        2.0000           -0.3981823             -10.8351
       126        2.0000           -0.3900403             -10.6135
       127        2.0000           -0.3891726             -10.5899
       128        2.0000           -0.3837651             -10.4428
       129        2.0000           -0.3793699             -10.3232
       130        1.9661           -0.3666229              -9.9763
       131        1.0339           -0.3602584              -9.8031
       132        0.9980           -0.2861794              -7.7873 (HOMO)
       133        0.0020           -0.2743700              -7.4660 (LUMO)
       134                         -0.2609379              -7.1005
       135                         -0.2570512              -6.9947
       136                         -0.2520952              -6.8599
       137                         -0.2447218              -6.6592
       138                         -0.2422855              -6.5929
       139                         -0.2418725              -6.5817
       140                         -0.2391079              -6.5065
       141                         -0.2299017              -6.2559
       142                         -0.2203540              -5.9961
       143                         -0.2170725              -5.9068
       ...                                ...                  ...
       257                          0.7196112              19.5816
      -------------------------------------------------------------
                  HL-Gap            0.0118094 Eh            0.3214 eV

     #   Z          covCN         q      C6AA      α(0)
     1   6 C        2.919    -0.029    28.716     8.788
     2   6 C        2.918    -0.029    28.726     8.789
     3   6 C        2.922    -0.035    28.866     8.811
     4   6 C        2.973    -0.005    28.152     8.703
     5   6 C        3.114     0.136    24.884     8.172
     6   7 N        2.055    -0.208    26.246     7.599
     7   7 N        2.062    -0.217    26.459     7.630
     8   6 C        3.104     0.136    24.907     8.178
     9   6 C        2.971    -0.014    28.362     8.736
    10   6 C        2.920    -0.034    28.851     8.808
    11   6 C        2.918    -0.037    28.909     8.817
    12   6 C        2.967     0.007    27.868     8.659
    13   6 C        2.967     0.008    27.837     8.654
    14   6 C        2.915    -0.036    28.888     8.814
    15   6 C        2.910    -0.041    29.023     8.834
    16   6 C        2.968    -0.012    28.314     8.728
    17   6 C        3.143     0.132    24.889     8.163
    18   7 N        1.887    -0.313    28.970     7.979
    19   6 C        3.170     0.079    25.877     8.310
    20   6 C        2.984    -0.005    28.140     8.702
    21   6 C        2.922    -0.027    28.675     8.781
    22   6 C        2.916    -0.030    28.757     8.794
    23   6 C        2.917    -0.028    28.701     8.785
    24   6 C        2.921    -0.034    28.838     8.806
    25   6 C        2.977    -0.000    28.031     8.685
    26   6 C        2.977     0.001    27.996     8.679
    27   6 C        2.920    -0.032    28.802     8.801
    28   6 C        2.916    -0.030    28.741     8.791
    29   6 C        2.915    -0.031    28.768     8.795
    30   6 C        2.918    -0.036    28.905     8.816
    31   6 C        2.974    -0.008    28.222     8.714
    32   6 C        3.048     0.039    27.088     8.536
    33   7 N        2.822    -0.062    22.442     7.036
    34   6 C        2.911     0.067    26.489     8.440
    35   6 C        2.920    -0.037    28.924     8.819
    36   6 C        2.919    -0.025    28.634     8.775
    37   6 C        2.919    -0.028    28.695     8.784
    38   6 C        2.920    -0.025    28.616     8.772
    39   6 C        2.920    -0.037    28.912     8.818
    40   6 C        2.920    -0.032    28.801     8.801
    41   6 C        2.914    -0.037    28.912     8.817
    42   6 C        2.919    -0.037    28.920     8.819
    43   6 C        2.913    -0.039    28.959     8.824
    44   7 N        2.824    -0.065    22.500     7.045
    45   6 C        2.906     0.055    26.766     8.483
    46   6 C        2.919    -0.043    29.076     8.842
    47   6 C        2.915    -0.030    28.760     8.794
    48   6 C        2.918    -0.038    28.957     8.824
    49   6 C        2.986     0.014    27.699     8.633
    50   6 C        2.919    -0.034    28.848     8.808
    51   6 C        2.915    -0.027    28.683     8.782
    52   6 C        2.916    -0.028    28.701     8.785
    53   6 C        2.916    -0.032    28.795     8.799
    54   6 C        2.986     0.002    27.970     8.675
    55   6 C        2.927    -0.030    28.758     8.794
    56   6 C        2.918    -0.027    28.681     8.782
    57   1 H        0.926     0.042     2.423     2.434
    58   1 H        0.926     0.039     2.463     2.454
    59   1 H        0.926     0.026     2.646     2.544
    60   1 H        0.926     0.044     2.401     2.423
    61   1 H        0.926     0.039     2.460     2.453
    62   1 H        0.926     0.037     2.486     2.466
    63   1 H        0.926     0.030     2.588     2.515
    64   1 H        0.926     0.049     2.328     2.386
    65   1 H        0.926     0.039     2.459     2.452
    66   1 H        0.926     0.040     2.450     2.448
    67   1 H        0.926     0.042     2.423     2.434
    68   1 H        0.926     0.043     2.406     2.426
    69   1 H        0.926     0.039     2.461     2.453
    70   1 H        0.926     0.037     2.487     2.466
    71   1 H        0.926     0.034     2.524     2.484
    72   1 H        0.926     0.042     2.423     2.434
    73   1 H        0.926     0.049     2.334     2.389
    74   1 H        0.926     0.049     2.334     2.389
    75   1 H        0.926     0.049     2.334     2.389
    76   1 H        0.926     0.041     2.435     2.440
    77   1 H        0.926     0.050     2.314     2.379
    78   1 H        0.926     0.038     2.481     2.463
    79   1 H        0.926     0.036     2.500     2.473
    80   1 H        0.926     0.022     2.706     2.572
    81   1 H        0.926     0.031     2.571     2.508
    82   1 H        0.926     0.044     2.401     2.423
    83   1 H        0.926     0.047     2.363     2.404
    84   1 H        0.926     0.044     2.392     2.419
    85   1 H        0.926     0.042     2.425     2.435
    86   1 H        0.926     0.037     2.491     2.468
    87   1 H        0.926     0.022     2.707     2.573
    88   1 H        0.926     0.045     2.384     2.414
    89   1 H        0.926     0.042     2.421     2.433

molecular dipole:
                 x           y           z       tot (Debye)
 q only:       -2.448       0.858      -0.595
   full:       -2.654       1.070      -0.685       7.479

 projected vibrational frequencies (cm⁻¹)
eigval :       -0.00    -0.00    -0.00     0.00     0.00     0.00
eigval :        8.29    11.22    13.73    19.38    22.46    27.46
eigval :       31.28    32.35    39.27    47.21    50.78    59.69
eigval :       61.61    69.19    81.07    82.00    89.68    93.53
eigval :       97.70   111.12   131.05   135.01   155.69   159.89
eigval :      170.79   172.73   206.98   212.69   218.89   231.95
eigval :      237.55   244.53   256.84   262.93   273.80   276.92
eigval :      317.46   323.93   339.71   356.19   365.40   371.45
eigval :      376.18   376.67   382.60   389.26   393.90   399.27
eigval :      404.24   412.96   429.80   435.98   438.03   438.31
eigval :      445.44   454.66   470.60   479.94   488.49   494.61
eigval :      503.09   507.72   511.73   525.73   535.88   547.73
eigval :      568.06   582.18   586.30   587.35   588.27   600.73
eigval :      616.82   621.52   628.95   633.72   642.10   643.03
eigval :      651.83   657.68   664.17   667.38   670.92   672.69
eigval :      679.80   689.65   692.06   699.64   716.02   721.42
eigval :      729.79   752.51   757.64   758.40   760.81   763.70
eigval :      775.51   775.82   791.80   796.48   797.85   809.31
eigval :      811.97   819.13   838.11   854.95   868.64   872.07
eigval :      872.63   872.72   887.92   897.87   900.45   901.21
eigval :      902.71   904.58   910.29   912.61   913.64   914.09
eigval :      915.65   918.51   920.37   921.85   922.57   926.42
eigval :      928.61   929.31   929.37   932.07   933.10   943.39
eigval :      944.85   968.03   984.11   991.90  1003.03  1021.74
eigval :     1046.90  1060.34  1078.76  1080.29  1082.33  1083.51
eigval :     1099.43  1104.06  1111.81  1116.83  1118.73  1129.03
eigval :     1133.02  1140.81  1151.14  1153.19  1158.98  1159.87
eigval :     1169.42  1177.48  1177.93  1178.81  1180.16  1181.59
eigval :     1188.51  1194.05  1196.90  1200.85  1205.15  1213.23
eigval :     1221.43  1244.61  1248.09  1251.78  1255.25  1258.48
eigval :     1272.96  1275.00  1276.91  1277.28  1282.07  1293.97
eigval :     1295.73  1303.67  1305.69  1320.20  1324.32  1332.07
eigval :     1332.44  1335.50  1336.36  1347.55  1353.38  1375.64
eigval :     1382.05  1391.83  1394.38  1398.08  1409.45  1414.42
eigval :     1421.20  1426.13  1429.74  1431.79  1436.16  1440.01
eigval :     1442.50  1447.78  1455.78  1464.57  1472.48  1484.91
eigval :     1491.08  1497.46  1503.23  1508.03  1520.26  1539.79
eigval :     1544.84  1548.67  1565.42  1572.50  1575.54  1577.28
eigval :     1583.43  1585.23  1587.29  1588.24  1589.68  1604.66
eigval :     3072.67  3074.80  3074.87  3075.14  3077.85  3078.44
eigval :     3079.12  3082.80  3083.16  3083.95  3084.90  3085.33
eigval :     3086.69  3087.19  3089.18  3089.96  3090.09  3092.86
eigval :     3093.11  3093.24  3095.38  3095.97  3096.60  3099.96
eigval :     3100.58  3102.08  3102.43  3102.97  3105.46  3108.64
eigval :     3112.30  3123.46  3128.62

   temp. (K)  partition function   enthalpy   heat capacity  entropy
                                   cal/mol     cal/K/mol   cal/K/mol   J/K/mol
 298.15  VIB  0.131E+22            25945.297    162.262    162.780
         ROT  0.170E+09              888.752      2.981     40.645
         INT  0.223E+30            26834.049    165.243    203.425
         TR   0.185E+29             1481.254      4.968     45.564
         TOT                       28315.3034   170.2112   248.9896  1041.7724

       T/K    H(0)-H(T)+PV         H(T)/Eh          T*S/Eh         G(T)/Eh
   ------------------------------------------------------------------------
    298.15    0.451233E-01    0.719747E+00    0.118303E+00    0.601444E+00
   ------------------------------------------------------------------------

         :::::::::::::::::::::::::::::::::::::::::::::::::::::
         ::                  THERMODYNAMIC                  ::
         :::::::::::::::::::::::::::::::::::::::::::::::::::::
         :: total free energy        -140.088926114708 Eh   ::
         ::.................................................::
         :: total energy             -140.690370521685 Eh   ::
         :: zero point energy           0.674624087350 Eh   ::
         :: G(RRHO) w/o ZPVE           -0.073179680373 Eh   ::
         :: G(RRHO) contrib.            0.601444406977 Eh   ::
         :::::::::::::::::::::::::::::::::::::::::::::::::::::

           -------------------------------------------------
          | TOTAL ENERGY             -140.690370521685 Eh   |
          | TOTAL ENTHALPY           -139.970623126224 Eh   |
          | TOTAL FREE ENERGY        -140.088926114708 Eh   |
          | GRADIENT NORM               0.000058221980 Eh/α |
          | HOMO-LUMO GAP               0.321350701636 eV   |
           -------------------------------------------------

 * finished run on 2025/07/16 at 14:29:00.693
