   * xtb version 6.7.1 (edcfbbe) compiled by 'albert@albert-system' on 2024-07-22

   ID    Z sym.   atoms
    1    6 C      1-5, 8-17, 19-32, 34-43, 45-56
    2    7 N      6, 7, 18, 33, 44
    3    1 H      57-89

          program call               : xtb data2507/toluene/4NTAZ-PPI/4NTAZ-PPI.xyz --gfn 2 --gbsa toluene --ohess vtight --parallel 40 --molden --ceasefiles --namespace data2507/toluene/4NTAZ-PPI/4NTAZ-PPI_toluene_S0_preOpt
      * Solvation model:               GBSA
        Solvent                        toluene
        Solvent mass                       9.2140E+01 g/mol
          :  Hamiltonian                  GFN2-xTB          :
 * total energy  :  -140.7485001 Eh     change       -0.2526320E-08 Eh
 * total energy  :  -140.7627824 Eh     change       -0.1428226E-01 Eh
 * total energy  :  -140.7668089 Eh     change       -0.4026485E-02 Eh
 * total energy  :  -140.7682086 Eh     change       -0.1399756E-02 Eh
 * total energy  :  -140.7692399 Eh     change       -0.1031317E-02 Eh
 * total energy  :  -140.7697556 Eh     change       -0.5156719E-03 Eh
 * total energy  :  -140.7701309 Eh     change       -0.3752788E-03 Eh
 * total energy  :  -140.7704199 Eh     change       -0.2889719E-03 Eh
 * total energy  :  -140.7706347 Eh     change       -0.2148157E-03 Eh
 * total energy  :  -140.7707927 Eh     change       -0.1580217E-03 Eh
 * total energy  :  -140.7737388 Eh     change       -0.1806549E-05 Eh
 * total energy  :  -140.7737403 Eh     change       -0.1484787E-05 Eh
 * total energy  :  -140.7737417 Eh     change       -0.1387281E-05 Eh
 * total energy  :  -140.7737431 Eh     change       -0.1383473E-05 Eh
 * total energy  :  -140.7737446 Eh     change       -0.1514462E-05 Eh
 * total energy  :  -140.7737464 Eh     change       -0.1820613E-05 Eh
 * total energy  :  -140.7737486 Eh     change       -0.2167933E-05 Eh
 * total energy  :  -140.7737510 Eh     change       -0.2456759E-05 Eh
 * total energy  :  -140.7737510 Eh     change       -0.7315236E-08 Eh
   *** GEOMETRY OPTIMIZATION CONVERGED AFTER 152 ITERATIONS ***

 final structure:
================
89
 xtb: 6.7.1 (edcfbbe)
C           11.51095453717548        0.27313134846822       -0.08913032476498
C           11.27549094148830        1.60512309071968        0.21449757159728
C            9.99919060608307        2.02992484809435        0.53025086780171
C            8.93975617586487        1.12303648066870        0.53969265378617
C            7.61347005469518        1.60637038680611        0.88442994031366
N            7.37050401739504        2.55824832247567        1.74957227888845
N            6.04617336258390        2.72020950548603        1.84003775589907
C            5.46914816598974        1.87379035582049        1.02563471698018
C            4.03423941885622        1.75047745331636        0.83610755304517
C            3.19416089515025        1.94384264632331        1.93253804192519
C            1.82832126778593        1.80974255501004        1.79758469485863
C            1.26179359193251        1.50199745830032        0.56107742702921
C           -0.19329506374058        1.35115940424678        0.41720773724880
C           -0.92490661548902        0.61529619638815        1.34690233714788
C           -2.28800397714802        0.44983926800318        1.20562433085404
C           -2.95968631145639        1.02881487945795        0.13039600198142
C           -4.39620770335488        0.88993493035819       -0.05792116403503
N           -5.17295523050618        1.87167633546231       -0.44524162284759
C           -6.43099088489788        1.35570962817419       -0.48983916278896
C           -7.64081681838152        2.03335243012007       -0.81016866867131
C           -7.65033540751562        3.39933987509330       -1.11423722049066
C           -8.83257678178616        4.04284138792785       -1.38367566792694
C          -10.02618508217501        3.32402482869166       -1.34741481622174
C          -10.02821821185521        1.97955368643917       -1.05660991441783
C           -8.83966622688993        1.28382534735077       -0.78453239377249
C           -8.80623997660837       -0.14160917069020       -0.50324136686302
C           -9.96602004443390       -0.92868128975188       -0.55647581600278
C           -9.93971247027173       -2.28447544806874       -0.32868572072745
C           -8.73506422198514       -2.92208900273183       -0.04837940211207
C           -7.57698825117307       -2.18701018530551        0.01818153376777
C           -7.58533557438102       -0.79952733506436       -0.18710790066114
C           -6.41345394956769        0.00780757000035       -0.13518602150937
N           -5.09703452448859       -0.27574832587640        0.15419770855048
C           -4.51813590116638       -1.49470219745837        0.57053204849147
C           -4.83956988596731       -2.03322866355127        1.81300028394234
C           -4.24039342420287       -3.21008042274256        2.22401502436457
C           -3.31879535535495       -3.84560450863942        1.40672057883980
C           -2.99608690880154       -3.30428127053427        0.17340615307566
C           -3.59307583103126       -2.12951460013395       -0.24922798509495
C           -2.23577696153884        1.79667341048187       -0.78209120479992
C           -0.87112884475944        1.94451972529125       -0.64696058300569
C            2.10303247559750        1.34382874696193       -0.53809867820293
C            3.47198853551951        1.46011474029252       -0.40500582372900
N            6.42759586364184        1.12514909735091        0.38336130013405
C            6.23886382192272        0.12449680832274       -0.59060260172720
C            6.75133896239150        0.31120099121737       -1.85118357763816
C            6.56056126119122       -0.66035828590494       -2.84212354037788
C            5.85345174450155       -1.79705295373591       -2.56545513322385
C            5.31894647966442       -2.02247853970133       -1.27903149536919
C            4.59277985249520       -3.19290067759722       -0.97192119242673
C            4.09771781841103       -3.40204602722741        0.28461521394251
C            4.32064062442108       -2.45722474530237        1.29770834087365
C            5.01810072028445       -1.31103733081792        1.03497055807678
C            5.52083282673720       -1.05551907838793       -0.25797989321304
C            9.18580436725703       -0.21841183988294        0.25424264566425
C           10.46614619715204       -0.63584244436257       -0.06083117307201
H           12.50807739432905       -0.05729645602454       -0.33944947222622
H           12.08945993978255        2.31482588487730        0.20450517631155
H            9.79955682006775        3.06241141372626        0.77355127908559
H            3.63497891556997        2.19463709604627        2.88559948254552
H            1.18755475572695        1.96386177391509        2.65311387705275
H           -0.41548625301935        0.15287444653481        2.17937669884263
H           -2.83328669437319       -0.11624851325943        1.94550753635541
H           -6.70557401662781        3.92161868826071       -1.12076231194271
H           -8.84267533158160        5.09780971815534       -1.61556581349319
H          -10.96062652605902        3.82754422623725       -1.54999457165435
H          -10.97631057829671        1.46607639668486       -1.03603887484708
H          -10.91323705953583       -0.47115645095904       -0.79196078788529
H          -10.85455530493677       -2.85668240788119       -0.37883706376066
H           -8.70869820982354       -3.99008761382183        0.11056022587990
H           -6.64253896675205       -2.68647635388240        0.21821741345086
H           -5.55607191319631       -1.52629978731034        2.44342378025225
H           -4.49173178721837       -3.62776867301568        3.18729429799317
H           -2.85207406982460       -4.76254559935150        1.73302586186514
H           -2.27830165226278       -3.79656923566265       -0.46508562216643
H           -3.34829296315714       -1.69790153699551       -1.20860270872185
H           -2.76419287321386        2.26764666308582       -1.59709682538388
H           -0.32308775664852        2.54357295970151       -1.35926773215259
H            1.68026200549656        1.10823859859891       -1.50357340418349
H            4.10255499347789        1.33913166665886       -1.27348280593558
H            7.30025038153008        1.21478080305463       -2.07560896276362
H            6.97317115394587       -0.49307780699688       -3.82529896525203
H            5.69414970025698       -2.54315064484843       -3.32966735452898
H            4.43768689537930       -3.92237918011391       -1.75341614298537
H            3.54068774196239       -4.29908926356136        0.51061161010911
H            3.93995641251349       -2.64032526980222        2.29149126348213
H            5.19384706106317       -0.59582752979622        1.82573234018511
H            8.38297688220744       -0.94017911554664        0.29479909445458
H           10.64722075787721       -1.67760129229360       -0.28124475135558

          :  Hamiltonian                  GFN2-xTB          :
         :: gradient norm              0.000071669143 Eh/a0 ::
         :: HOMO-LUMO gap              2.376988628755 eV    ::
         :: SCC energy              -143.379727300409 Eh    ::
         :: -> dispersion             -0.130174983292 Eh    ::
         :: -> Gsolv                  -0.062180740188 Eh    ::
         :: repulsion energy           2.605976258324 Eh    ::

    * Orbital Energies and Occupations

         #    Occupation            Energy/Eh            Energy/eV
      -------------------------------------------------------------
         1        2.0000           -0.7036642             -19.1477
       ...           ...                  ...                  ...
       119        2.0000           -0.4147657             -11.2863
       120        2.0000           -0.4142321             -11.2718
       121        2.0000           -0.4132748             -11.2458
       122        2.0000           -0.4087653             -11.1231
       123        2.0000           -0.4063649             -11.0578
       124        2.0000           -0.4032655             -10.9734
       125        2.0000           -0.3992666             -10.8646
       126        2.0000           -0.3934034             -10.7051
       127        2.0000           -0.3857998             -10.4981
       128        2.0000           -0.3834473             -10.4341
       129        2.0000           -0.3806487             -10.3580
       130        2.0000           -0.3686219             -10.0307
       131        2.0000           -0.3656881              -9.9509 (HOMO)
       132                         -0.2783353              -7.5739 (LUMO)
       133                         -0.2703350              -7.3562
       134                         -0.2573792              -7.0036
       135                         -0.2519960              -6.8572
       136                         -0.2494860              -6.7889
       137                         -0.2457901              -6.6883
       138                         -0.2411210              -6.5612
       139                         -0.2405330              -6.5452
       140                         -0.2356516              -6.4124
       141                         -0.2325413              -6.3278
       142                         -0.2321661              -6.3176
       ...                                ...                  ...
       257                          0.7242462              19.7077
      -------------------------------------------------------------
                  HL-Gap            0.0873527 Eh            2.3770 eV

     #   Z          covCN         q      C6AA      α(0)
     1   6 C        2.919    -0.028    28.690     8.784
     2   6 C        2.918    -0.027    28.667     8.780
     3   6 C        2.927    -0.029    28.735     8.791
     4   6 C        2.974    -0.005    28.134     8.700
     5   6 C        3.127     0.137    24.831     8.159
     6   7 N        2.065    -0.221    26.533     7.641
     7   7 N        2.064    -0.222    26.554     7.644
     8   6 C        3.128     0.139    24.787     8.152
     9   6 C        2.974    -0.005    28.151     8.703
    10   6 C        2.925    -0.029    28.736     8.791
    11   6 C        2.923    -0.031    28.785     8.798
    12   6 C        2.977     0.014    27.691     8.632
    13   6 C        2.977     0.013    27.725     8.637
    14   6 C        2.924    -0.033    28.830     8.805
    15   6 C        2.921    -0.035    28.867     8.811
    16   6 C        2.974    -0.002    28.074     8.691
    17   6 C        3.193     0.136    24.573     8.083
    18   7 N        1.893    -0.318    29.089     7.996
    19   6 C        3.207     0.059    26.081     8.317
    20   6 C        2.985    -0.003    28.093     8.694
    21   6 C        2.921    -0.033    28.834     8.806
    22   6 C        2.917    -0.032    28.792     8.799
    23   6 C        2.917    -0.034    28.853     8.808
    24   6 C        2.921    -0.036    28.908     8.817
    25   6 C        2.979    -0.005    28.138     8.701
    26   6 C        2.979    -0.001    28.058     8.689
    27   6 C        2.922    -0.035    28.873     8.812
    28   6 C        2.916    -0.034    28.848     8.808
    29   6 C        2.917    -0.032    28.810     8.802
    30   6 C        2.919    -0.041    29.027     8.835
    31   6 C        2.978    -0.005    28.142     8.702
    32   6 C        3.074     0.022    27.449     8.590
    33   7 N        2.840    -0.054    22.277     7.010
    34   6 C        2.913     0.066    26.520     8.445
    35   6 C        2.921    -0.037    28.917     8.818
    36   6 C        2.920    -0.026    28.655     8.778
    37   6 C        2.919    -0.029    28.713     8.787
    38   6 C        2.920    -0.025    28.629     8.774
    39   6 C        2.921    -0.038    28.951     8.824
    40   6 C        2.925    -0.029    28.715     8.788
    41   6 C        2.923    -0.032    28.796     8.800
    42   6 C        2.924    -0.034    28.838     8.806
    43   6 C        2.921    -0.034    28.856     8.809
    44   7 N        2.830    -0.059    22.385     7.027
    45   6 C        2.907     0.055    26.771     8.484
    46   6 C        2.919    -0.041    29.029     8.835
    47   6 C        2.915    -0.029    28.733     8.790
    48   6 C        2.918    -0.036    28.892     8.814
    49   6 C        2.986     0.015    27.668     8.628
    50   6 C        2.919    -0.033    28.818     8.803
    51   6 C        2.915    -0.026    28.664     8.779
    52   6 C        2.916    -0.027    28.681     8.782
    53   6 C        2.916    -0.032    28.799     8.800
    54   6 C        2.986     0.002    27.977     8.676
    55   6 C        2.922    -0.034    28.844     8.807
    56   6 C        2.919    -0.029    28.719     8.788
    57   1 H        0.926     0.043     2.408     2.426
    58   1 H        0.926     0.043     2.408     2.427
    59   1 H        0.926     0.045     2.381     2.413
    60   1 H        0.926     0.046     2.370     2.408
    61   1 H        0.926     0.045     2.381     2.413
    62   1 H        0.926     0.042     2.419     2.432
    63   1 H        0.926     0.032     2.557     2.500
    64   1 H        0.926     0.043     2.406     2.426
    65   1 H        0.926     0.032     2.552     2.498
    66   1 H        0.926     0.032     2.558     2.501
    67   1 H        0.926     0.035     2.520     2.482
    68   1 H        0.926     0.037     2.489     2.467
    69   1 H        0.926     0.033     2.548     2.496
    70   1 H        0.926     0.032     2.558     2.501
    71   1 H        0.926     0.030     2.591     2.517
    72   1 H        0.926     0.042     2.425     2.435
    73   1 H        0.926     0.048     2.346     2.395
    74   1 H        0.926     0.048     2.342     2.393
    75   1 H        0.926     0.048     2.349     2.397
    76   1 H        0.926     0.038     2.477     2.461
    77   1 H        0.926     0.046     2.374     2.409
    78   1 H        0.926     0.043     2.407     2.426
    79   1 H        0.926     0.042     2.417     2.431
    80   1 H        0.926     0.028     2.610     2.526
    81   1 H        0.926     0.034     2.534     2.489
    82   1 H        0.926     0.047     2.363     2.404
    83   1 H        0.926     0.050     2.322     2.383
    84   1 H        0.926     0.047     2.361     2.403
    85   1 H        0.926     0.044     2.392     2.419
    86   1 H        0.926     0.040     2.455     2.450
    87   1 H        0.926     0.023     2.683     2.561
    88   1 H        0.926     0.026     2.637     2.539
    89   1 H        0.926     0.040     2.446     2.446

molecular dipole:
                 x           y           z       tot (Debye)
 q only:        0.292      -2.834      -0.854
   full:        0.141      -3.524      -1.158       9.434

 projected vibrational frequencies (cm⁻¹)
eigval :       -0.00    -0.00     0.00     0.00     0.00     0.00
eigval :        8.02     9.25    14.64    16.87    26.16    31.94
eigval :       33.34    34.16    43.80    51.60    56.10    58.37
eigval :       66.36    68.76    82.28    87.29    87.94    93.17
eigval :      102.27   112.95   122.88   143.48   145.33   165.49
eigval :      168.65   182.19   206.14   216.25   217.95   233.27
eigval :      240.16   250.58   255.10   268.56   272.43   295.07
eigval :      323.98   328.37   350.98   356.00   368.42   375.10
eigval :      375.30   377.22   385.57   395.16   399.06   402.27
eigval :      421.22   433.27   433.83   436.31   440.30   447.01
eigval :      460.89   472.72   479.08   495.33   496.41   514.86
eigval :      517.26   523.13   536.16   538.08   540.90   545.65
eigval :      569.38   584.65   587.78   588.04   599.26   605.00
eigval :      625.27   632.44   639.02   644.23   652.49   660.23
eigval :      667.28   668.28   674.50   680.51   684.34   691.77
eigval :      696.31   701.31   704.60   713.78   721.39   727.99
eigval :      735.41   760.32   762.58   764.39   767.29   772.27
eigval :      775.98   783.22   804.39   807.18   815.11   832.48
eigval :      839.77   864.83   868.85   873.06   875.46   875.82
eigval :      876.49   877.13   893.69   901.50   905.28   909.11
eigval :      914.04   914.64   917.05   919.64   921.17   922.92
eigval :      924.45   926.81   927.17   927.58   930.47   930.68
eigval :      931.20   931.51   933.90   938.75   946.62   957.87
eigval :      971.76   988.20  1006.72  1015.44  1027.85  1063.39
eigval :     1067.79  1078.88  1080.21  1082.01  1083.43  1085.22
eigval :     1107.02  1111.68  1114.17  1119.88  1133.47  1135.65
eigval :     1138.40  1141.01  1151.44  1164.02  1168.69  1173.14
eigval :     1177.66  1178.62  1179.42  1181.78  1183.54  1184.28
eigval :     1188.64  1194.68  1197.84  1199.36  1200.70  1207.66
eigval :     1221.11  1252.49  1252.55  1256.18  1266.26  1268.41
eigval :     1273.84  1279.01  1281.59  1282.90  1296.57  1305.76
eigval :     1311.53  1313.85  1316.15  1318.35  1319.27  1330.49
eigval :     1337.14  1337.35  1346.54  1352.81  1371.14  1387.86
eigval :     1391.58  1400.41  1406.20  1410.65  1417.18  1417.76
eigval :     1429.06  1429.49  1431.08  1435.16  1449.46  1454.30
eigval :     1456.84  1473.91  1483.25  1505.97  1512.73  1514.16
eigval :     1529.27  1531.99  1543.85  1555.30  1560.83  1561.49
eigval :     1565.37  1569.10  1580.23  1582.12  1590.19  1591.50
eigval :     1593.51  1595.94  1596.43  1600.58  1603.45  1608.27
eigval :     3070.64  3072.97  3074.56  3075.17  3076.90  3078.26
eigval :     3078.94  3079.70  3079.78  3080.15  3081.26  3081.87
eigval :     3082.72  3083.38  3083.48  3083.93  3085.66  3085.74
eigval :     3088.15  3091.29  3093.09  3093.09  3095.06  3095.14
eigval :     3095.26  3097.14  3097.52  3098.31  3098.49  3100.57
eigval :     3101.74  3109.03  3113.83

   temp. (K)  partition function   enthalpy   heat capacity  entropy
                                   cal/mol     cal/K/mol   cal/K/mol   J/K/mol
 298.15  VIB  0.582E+21            25571.452    160.508    160.855
         ROT  0.153E+09              888.752      2.981     40.439
         INT  0.894E+29            26460.204    163.489    201.294
         TR   0.185E+29             1481.254      4.968     45.564
         TOT                       27941.4578   168.4573   246.8579  1032.8535

       T/K    H(0)-H(T)+PV         H(T)/Eh          T*S/Eh         G(T)/Eh
   ------------------------------------------------------------------------
    298.15    0.445275E-01    0.723560E+00    0.117290E+00    0.606270E+00
   ------------------------------------------------------------------------

         :::::::::::::::::::::::::::::::::::::::::::::::::::::
         ::                  THERMODYNAMIC                  ::
         :::::::::::::::::::::::::::::::::::::::::::::::::::::
         :: total free energy        -140.167480906681 Eh   ::
         ::.................................................::
         :: total energy             -140.773751042908 Eh   ::
         :: zero point energy           0.679032745194 Eh   ::
         :: G(RRHO) w/o ZPVE           -0.072762608967 Eh   ::
         :: G(RRHO) contrib.            0.606270136227 Eh   ::
         :::::::::::::::::::::::::::::::::::::::::::::::::::::

           -------------------------------------------------
          | TOTAL ENERGY             -140.773751042908 Eh   |
          | TOTAL ENTHALPY           -140.050190750370 Eh   |
          | TOTAL FREE ENERGY        -140.167480906681 Eh   |
          | GRADIENT NORM               0.000071667740 Eh/α |
          | HOMO-LUMO GAP               2.376988295898 eV   |
           -------------------------------------------------

 * finished run on 2025/07/16 at 14:23:14.758
