   * xtb version 6.7.1 (edcfbbe) compiled by 'albert@albert-system' on 2024-07-22

   ID    Z sym.   atoms
    1    6 C      1-12, 14-16, 18-22, 24-29, 31-44, 46, 48
    2    7 N      13, 17, 23, 45, 47
    3    8 O      30
    4    1 H      49-75

          program call               : xtb data2507/gas/2H-Qz/2H-Qz_gas_T1_crest.xyz --gfn 2 --spinpol --tblite --uhf 2 --ohess vtight --parallel 40 --molden --ceasefiles --namespace data2507/gas/2H-Qz/2H-Qz_gas_T1_finalOpt
 * total energy  :  -122.3517318 Eh     change        0.4048088E-07 Eh
 * total energy  :  -122.3517779 Eh     change       -0.4608898E-04 Eh
 * total energy  :  -122.3517959 Eh     change       -0.1799497E-04 Eh
 * total energy  :  -122.3517982 Eh     change       -0.2243311E-05 Eh
 * total energy  :  -122.3518012 Eh     change       -0.3050207E-05 Eh
 * total energy  :  -122.3518042 Eh     change       -0.3001338E-05 Eh
 * total energy  :  -122.3518074 Eh     change       -0.3171363E-05 Eh
 * total energy  :  -122.3518099 Eh     change       -0.2549483E-05 Eh
 * total energy  :  -122.3518124 Eh     change       -0.2437621E-05 Eh
 * total energy  :  -122.3518146 Eh     change       -0.2170055E-05 Eh
 * total energy  :  -122.3519213 Eh     change       -0.1981051E-06 Eh
 * total energy  :  -122.3519215 Eh     change       -0.2094998E-06 Eh
 * total energy  :  -122.3519217 Eh     change       -0.1845357E-06 Eh
 * total energy  :  -122.3519219 Eh     change       -0.2133296E-06 Eh
 * total energy  :  -122.3519228 Eh     change       -0.8868439E-06 Eh
 * total energy  :  -122.3519230 Eh     change       -0.2133544E-06 Eh
 * total energy  :  -122.3519232 Eh     change       -0.1978566E-06 Eh
 * total energy  :  -122.3519232 Eh     change        0.3496766E-08 Eh
 * total energy  :  -122.3519232 Eh     change       -0.1220914E-07 Eh
   *** GEOMETRY OPTIMIZATION CONVERGED AFTER 95 ITERATIONS ***

 final structure:
================
75
 xtb: 6.7.1 (edcfbbe)
C           -9.79852112167573       -0.31774794797724       -0.18832321831171
C           -8.99630003608558       -1.38023546259617        0.19851345744256
C           -7.62949338963883       -1.19119969493647        0.29031140099387
C           -7.09799896084422        0.06464991954832       -0.01273592436141
C           -5.65625282920029        0.34556545738909        0.05769077135166
C           -5.23863569854018        1.66246864237304        0.24621715726420
C           -3.88546106678332        1.98038123940994        0.32083542809533
C           -3.42136307889876        3.36269975949303        0.51132383934852
C           -4.19496929152639        4.46606859556344        0.14265630691802
C           -3.69103175181200        5.73688379407655        0.35164183410058
C           -2.43304423022730        5.87787426658221        0.91707190211422
C           -1.73446500693455        4.72256795791878        1.23411207674156
N           -2.20630703936817        3.50803675548633        1.03914021416212
C           -2.94461816377854        0.96203093999829        0.21983429320819
C           -3.34652395028535       -0.35590173933231        0.02019811885475
C           -2.35813059669370       -1.41298775833110       -0.09693865330443
N           -1.08268752568555       -1.13246383610631        0.01316611797152
C           -0.10745579987937       -2.03571455596464       -0.09970874656033
C            1.23671554980095       -1.51772191040747       -0.11260016965276
C            2.29334869121775       -2.13326797564670       -0.80286631909005
C            3.55456634011365       -1.58110864389103       -0.80216540243872
C            3.80102621993503       -0.39343739647818       -0.11865822194278
N            5.10799684853018        0.16422400315121       -0.11176768282614
C            5.89245409097401        0.09675500219223        1.02913153325097
C            5.44499719957033       -0.51359464707249        2.19736956473776
C            6.25475798347343       -0.56482137334390        3.31853848611637
C            7.52355627095705       -0.01406878143719        3.29292114586282
C            7.99011515895899        0.58617561172777        2.13387860601994
C            7.18738214198493        0.64119937160504        1.00839492375853
O            7.71091323538980        1.23404431631822       -0.10958535910453
C            6.91903633723622        1.29874760100763       -1.22508856032956
C            7.44912204199686        1.91160272138986       -2.34651810456776
C            6.69231689868917        2.02195957576038       -3.50252512280480
C            5.40135183622559        1.52528847364997       -3.52857057975160
C            4.86384021733850        0.90969262142287       -2.41171486947815
C            5.61508246342002        0.77656886925498       -1.24749519622677
C            2.75630298001360        0.25328013866742        0.54004282823651
C            1.49708192160741       -0.29491923803357        0.53602786900264
C           -0.46174199835525       -3.43400223234544       -0.19837819893744
C            0.40336681999285       -4.51694977798439       -0.08594706236674
C           -0.06596132971514       -5.81482198626712       -0.22359777167223
C           -1.40986735548339       -6.04892027643833       -0.46068693160846
C           -2.30502758788345       -4.99550455396515       -0.50671489283433
C           -1.86037915045300       -3.68033460510928       -0.34988649273202
N           -2.74704343318012       -2.67082427127848       -0.31498534830434
C           -4.70496350306020       -0.65840971771871       -0.06764679709225
N           -7.87933698426420        1.08454680409158       -0.36737661783504
C           -9.18056567538286        0.89521333902094       -0.45239472748083
H          -10.86849158817765       -0.42482420693977       -0.27553125155846
H           -9.43191092943475       -2.34232490911078        0.42918826547976
H           -6.98671071173588       -1.99616445832879        0.60941695243840
H           -5.99945057368656        2.41906748429145        0.35168028997399
H           -5.16166782338489        4.32965476710883       -0.31528061113165
H           -4.26944847333524        6.60690966141455        0.07394841649025
H           -2.00562395932205        6.85160210671315        1.09955022240208
H           -0.74327978103309        4.77086507247526        1.66834886502660
H           -1.89491409966690        1.19900895935244        0.28665316349482
H            2.11005700928996       -3.02228268569798       -1.38557629011780
H            4.36037522196452       -2.05903397620714       -1.34107855350031
H            4.45888625214126       -0.94986398785719        2.21840362997750
H            5.88725381476909       -1.04110413198534        4.21415701898590
H            8.15479451388833       -0.05255416230075        4.16642255472364
H            8.97740308326585        1.01615134216558        2.08059362533691
H            8.45438383906383        2.29760382777158       -2.29261065341444
H            7.11262212952588        2.49990947440508       -4.37307803692921
H            4.80194350620590        1.61649172675522       -4.42098624203711
H            3.85417093397288        0.53110877043712       -2.43248548649289
H            2.94832580322904        1.18586321466691        1.05056736995788
H            0.68351723224870        0.20219602189156        1.04098663791697
H            1.44370485592980       -4.35160382279688        0.14675765478332
H            0.62288991226120       -6.64198492061755       -0.13841752190377
H           -1.76941673616254       -7.05963483889831       -0.58543364105719
H           -3.35973719056359       -5.16467570210587       -0.65663917444864
H           -4.98619288712209       -1.68390111542560       -0.25073441023640
H           -9.75706203781629        1.76304792457846       -0.74859486791294

 projected vibrational frequencies (cm⁻¹)
eigval :       -0.00    -0.00    -0.00    -0.00     0.00     0.00
eigval :        6.52     7.87    12.75    23.42    29.57    31.71
eigval :       34.46    36.37    48.36    53.91    60.12    65.28
eigval :       70.99    85.69    96.45   106.59   110.60   146.38
eigval :      151.98   166.49   182.34   193.56   200.59   214.53
eigval :      224.68   241.63   246.94   258.59   263.75   271.59
eigval :      277.46   289.20   330.58   359.96   364.89   369.35
eigval :      373.71   380.94   383.53   387.69   394.38   402.57
eigval :      410.83   424.35   429.19   445.58   454.08   464.13
eigval :      475.57   493.55   504.00   510.07   513.75   525.36
eigval :      538.74   547.71   570.42   571.77   573.48   583.90
eigval :      589.53   593.03   602.07   610.94   611.20   618.11
eigval :      636.57   644.78   657.59   664.96   667.64   672.26
eigval :      680.33   692.29   710.55   713.61   721.48   759.45
eigval :      761.36   765.75   774.87   777.29   778.23   798.79
eigval :      808.22   831.10   833.42   838.78   846.99   855.19
eigval :      859.83   864.91   865.61   881.37   885.78   886.29
eigval :      887.33   889.89   892.20   898.62   899.70   903.62
eigval :      910.45   916.04   916.24   916.36   916.50   917.48
eigval :      923.30   931.11   934.39   934.63   950.89   989.78
eigval :     1001.85  1003.18  1010.14  1084.59  1084.96  1086.27
eigval :     1089.60  1094.50  1097.55  1107.57  1111.62  1116.76
eigval :     1121.81  1122.82  1127.88  1132.89  1136.26  1163.33
eigval :     1167.65  1170.30  1171.80  1174.38  1174.90  1183.49
eigval :     1197.28  1204.66  1223.05  1225.59  1229.34  1238.85
eigval :     1241.71  1247.50  1249.68  1251.06  1256.98  1262.74
eigval :     1267.33  1286.46  1288.64  1288.94  1310.10  1315.88
eigval :     1317.18  1328.14  1330.00  1336.72  1345.33  1351.84
eigval :     1377.66  1387.71  1398.87  1407.90  1410.35  1416.69
eigval :     1421.53  1423.71  1437.71  1442.95  1451.31  1457.69
eigval :     1457.74  1467.77  1479.60  1487.03  1514.95  1529.51
eigval :     1543.60  1553.45  1556.88  1560.44  1564.72  1568.52
eigval :     1569.24  1574.62  1580.75  1581.87  1583.36  1591.62
eigval :     3044.83  3045.76  3067.17  3067.65  3075.04  3075.77
eigval :     3079.81  3084.87  3093.52  3093.91  3094.05  3094.58
eigval :     3095.80  3096.07  3100.60  3100.75  3101.44  3101.64
eigval :     3102.21  3102.60  3102.75  3110.29  3110.62  3111.24
eigval :     3113.40  3114.77  3115.09

   temp. (K)  partition function   enthalpy   heat capacity  entropy
                                   cal/mol     cal/K/mol   cal/K/mol   J/K/mol
 298.15  VIB  0.174E+19            22056.133    137.729    138.669
         ROT  0.108E+09              888.752      2.981     39.733
         INT  0.187E+27            22944.885    140.710    178.402
         TR   0.149E+29             1481.254      4.968     45.125
         TOT                       24426.1393   145.6777   223.5270   935.2369

       T/K    H(0)-H(T)+PV         H(T)/Eh          T*S/Eh         G(T)/Eh
   ------------------------------------------------------------------------
    298.15    0.389255E-01    0.599150E+00    0.106205E+00    0.492945E+00
   ------------------------------------------------------------------------

         :::::::::::::::::::::::::::::::::::::::::::::::::::::
         ::                  THERMODYNAMIC                  ::
         :::::::::::::::::::::::::::::::::::::::::::::::::::::
         :: total free energy        -121.858977962598 Eh   ::
         ::.................................................::
         :: total energy             -122.351923241981 Eh   ::
         :: zero point energy           0.560224636096 Eh   ::
         :: G(RRHO) w/o ZPVE           -0.067279356713 Eh   ::
         :: G(RRHO) contrib.            0.492945279383 Eh   ::
         :::::::::::::::::::::::::::::::::::::::::::::::::::::

           -------------------------------------------------
          | TOTAL ENERGY             -122.351923241981 Eh   |
          | TOTAL ENTHALPY           -121.752773075154 Eh   |
          | TOTAL FREE ENERGY        -121.858977962598 Eh   |
          | GRADIENT NORM               0.000071811607 Eh/α |
           -------------------------------------------------

 * finished run on 2025/09/12 at 15:06:41.400
