   * xtb version 6.7.1 (edcfbbe) compiled by 'albert@albert-system' on 2024-07-22

   ID    Z sym.   atoms
    1    6 C      1-12, 14-16, 18-22, 24-29, 31-44, 46, 48
    2    7 N      13, 17, 23, 45, 47
    3    8 O      30
    4    1 H      49-75

          program call               : xtb data2507/gas/2H-Qz/2H-Qz_gas_S0_crest.xyz --gfn 2 --ohess vtight --parallel 40 --molden --ceasefiles --namespace data2507/gas/2H-Qz/2H-Qz_gas_S0_finalOpt
          :  Hamiltonian                  GFN2-xTB          :
 * total energy  :  -122.4114735 Eh     change       -0.1275552E-08 Eh
 * total energy  :  -122.4114754 Eh     change       -0.1909747E-05 Eh
 * total energy  :  -122.4114774 Eh     change       -0.1926003E-05 Eh
 * total energy  :  -122.4114798 Eh     change       -0.2435461E-05 Eh
 * total energy  :  -122.4114802 Eh     change       -0.4377336E-06 Eh
 * total energy  :  -122.4114808 Eh     change       -0.5921180E-06 Eh
 * total energy  :  -122.4114815 Eh     change       -0.6497174E-06 Eh
 * total energy  :  -122.4114821 Eh     change       -0.6229477E-06 Eh
 * total energy  :  -122.4114827 Eh     change       -0.5868304E-06 Eh
 * total energy  :  -122.4114831 Eh     change       -0.4300776E-06 Eh
 * total energy  :  -122.4114851 Eh     change       -0.6378143E-06 Eh
 * total energy  :  -122.4114856 Eh     change       -0.5124498E-06 Eh
 * total energy  :  -122.4114860 Eh     change       -0.3684015E-06 Eh
 * total energy  :  -122.4114863 Eh     change       -0.3450576E-06 Eh
 * total energy  :  -122.4114867 Eh     change       -0.3572823E-06 Eh
 * total energy  :  -122.4114870 Eh     change       -0.3459105E-06 Eh
 * total energy  :  -122.4114874 Eh     change       -0.3774583E-06 Eh
 * total energy  :  -122.4114879 Eh     change       -0.4765769E-06 Eh
 * total energy  :  -122.4114879 Eh     change       -0.5158881E-08 Eh
   *** GEOMETRY OPTIMIZATION CONVERGED AFTER 22 ITERATIONS ***

 final structure:
================
75
 xtb: 6.7.1 (edcfbbe)
C           -9.68326363442702       -1.00392128880801       -0.27330236108262
C           -9.41388164841429        0.18279527821298        0.39078129155115
C           -8.10341500083690        0.61409605846830        0.49017938895866
C           -7.09255616688319       -0.16004358822132       -0.08436030565524
C           -5.67580719030313        0.23071723931425       -0.01959502574351
C           -5.29033938943886        1.56104626418805        0.10559019492081
C           -3.94412122767390        1.91611961440589        0.17040966376993
C           -3.59028648435336        3.33770283791351        0.29982033029723
C           -2.34159760530976        3.83510039596785       -0.08116088817472
C           -2.08163408658140        5.18431423076969        0.07606281574931
C           -3.06804109853442        6.00340812942039        0.60330428870332
C           -4.28134201627349        5.42046412214668        0.93680184552480
N           -4.53770992076154        4.13624992789040        0.79114766703301
C           -2.97757129082363        0.91885573183191        0.12289322708415
C           -3.35078979424164       -0.41555584345832       -0.01348033347693
C           -2.31990255196006       -1.45580709783620       -0.06455140699089
N           -1.04068835373707       -1.03781403808679        0.01142354408700
C           -0.07867808494626       -1.92850731942376       -0.01216723187438
C            1.28885173365215       -1.39367464194908       -0.02233587664354
C            2.26745772225134       -1.89995830351507       -0.87521736085438
C            3.53476642358228       -1.35245869771400       -0.88652518605335
C            3.84855908696915       -0.29223318727290       -0.04056032062331
N            5.14527100454467        0.26172423641143       -0.04888289396882
C            6.24852711307757       -0.50792340833210        0.32623445259659
C            6.12248561404562       -1.81587399142420        0.77676415664403
C            7.23880756722142       -2.55149703532803        1.14521597159472
C            8.49724444386511       -1.98953234266650        1.08015666649407
C            8.63730051569802       -0.67425870742879        0.66181462762913
C            7.52762557801229        0.06389299601371        0.29552841526711
O            7.74285536154642        1.36762123430767       -0.07633256039007
C            6.64734344829421        2.11283257194487       -0.43630325678228
C            6.87856655889665        3.42091333502118       -0.81840344084419
C            5.82662861350166        4.22803043551829       -1.22627276146175
C            4.54840470383096        3.70996744493378       -1.26519851689602
C            4.31051301659473        2.39887655386236       -0.88108911019242
C            5.34826889675020        1.58736999403772       -0.44045366753817
C            2.86937201357523        0.22564411141660        0.80383531582072
C            1.60034093292391       -0.31400163352457        0.80217239598140
C           -0.36469975037781       -3.32374741506752       -0.03456844029731
C            0.57871572766707       -4.35850432557888        0.09830384739389
C            0.17788958852586       -5.66486264322174        0.02179343259955
C           -1.17331121416116       -5.98938364860629       -0.18072731988675
C           -2.12092696388992       -5.00889122601074       -0.26978109435195
C           -1.74226075392695       -3.65308942387708       -0.17710851874714
N           -2.69429135512412       -2.70480370426322       -0.20613824885085
C           -4.69636389073598       -0.75547691037383       -0.09289162820155
N           -7.35902106268543       -1.30755397243060       -0.70571976559440
C           -8.61013813144822       -1.71009511336310       -0.79647279955574
H          -10.69195377914231       -1.37281803676865       -0.37578651818869
H          -10.21485553014617        0.76202281400830        0.82842505053312
H           -7.86458924102038        1.52267846069954        1.01991938465475
H           -6.01996661158530        2.35482486405839        0.13452370113451
H           -1.59746357840642        3.18202586878814       -0.50864743843728
H           -1.12345773621683        5.59354726756301       -0.21205794590346
H           -2.90395970063722        7.06021387882286        0.74487122452948
H           -5.09240759799805        6.01201105597190        1.34332666711795
H           -1.92673322896799        1.14678129535686        0.20254660065221
H            2.02364354033987       -2.69701260296553       -1.56214257679409
H            4.28878511706001       -1.73580491325544       -1.55826391745709
H            5.14265289106361       -2.26138551977090        0.84901001965880
H            7.11104622467335       -3.56712462115652        1.48714351265080
H            9.36931649720297       -2.55831560635553        1.36146879882394
H            9.60391739216103       -0.19849240516642        0.61786054651735
H            7.89224131411855        3.78771167412408       -0.79503176838509
H            6.01656109191662        5.24825292608168       -1.52004520573217
H            3.72219807946112        4.31869570533850       -1.59910917283498
H            3.30900728305605        2.00162270117739       -0.93344719860328
H            3.11397385066050        1.05017310688262        1.45715866746945
H            0.83441577328428        0.08267561273530        1.45062197656401
H            1.61422463387665       -4.11263136111935        0.28226539208573
H            0.90257772166875       -6.45927931145767        0.12371220133436
H           -1.46000028308193       -7.02887306223719       -0.24609152395642
H           -3.16851847318860       -5.23365351741616       -0.39157020774788
H           -4.98209876285818       -1.78840034611007       -0.20581359710518
H           -8.75892514397090       -2.64828007194303       -1.31661509634951

          :  Hamiltonian                  GFN2-xTB          :
         :: gradient norm              0.000047946794 Eh/a0 ::
         :: HOMO-LUMO gap              1.407855355291 eV    ::
         :: SCC energy              -124.584269159702 Eh    ::
         :: -> dispersion             -0.101342294166 Eh    ::
         :: repulsion energy           2.172781250921 Eh    ::

    * Orbital Energies and Occupations

         #    Occupation            Energy/Eh            Energy/eV
      -------------------------------------------------------------
         1        2.0000           -0.7270777             -19.7848
       ...           ...                  ...                  ...
       101        2.0000           -0.4167455             -11.3402
       102        2.0000           -0.4153596             -11.3025
       103        2.0000           -0.4142031             -11.2710
       104        2.0000           -0.4120692             -11.2130
       105        2.0000           -0.4017172             -10.9313
       106        2.0000           -0.3952536             -10.7554
       107        2.0000           -0.3898954             -10.6096
       108        2.0000           -0.3877691             -10.5517
       109        2.0000           -0.3869004             -10.5281
       110        2.0000           -0.3653758              -9.9424
       111        2.0000           -0.3604730              -9.8090
       112        2.0000           -0.3565685              -9.7027
       113        2.0000           -0.3427039              -9.3254 (HOMO)
       114                         -0.2909662              -7.9176 (LUMO)
       115                         -0.2653825              -7.2214
       116                         -0.2626305              -7.1465
       117                         -0.2481771              -6.7532
       118                         -0.2425356              -6.5997
       119                         -0.2405992              -6.5470
       120                         -0.2403503              -6.5403
       121                         -0.2376561              -6.4670
       122                         -0.2368905              -6.4461
       123                         -0.2290881              -6.2338
       124                         -0.2147716              -5.8442
       ...                                ...                  ...
       219                          0.7095663              19.3083
      -------------------------------------------------------------
                  HL-Gap            0.0517377 Eh            1.4079 eV

     #   Z          covCN         q      C6AA      α(0)
     1   6 C        2.914    -0.042    29.048     8.838
     2   6 C        2.927    -0.012    28.323     8.728
     3   6 C        2.917    -0.044    29.090     8.845
     4   6 C        2.962     0.095    25.895     8.347
     5   6 C        2.976     0.009    27.809     8.650
     6   6 C        2.930    -0.030    28.750     8.793
     7   6 C        2.976     0.006    27.877     8.661
     8   6 C        2.961     0.095    25.896     8.347
     9   6 C        2.917    -0.044    29.083     8.843
    10   6 C        2.927    -0.012    28.316     8.727
    11   6 C        2.914    -0.042    29.048     8.838
    12   6 C        2.903     0.060    26.646     8.464
    13   7 N        1.845    -0.231    26.914     7.689
    14   6 C        2.928    -0.033    28.812     8.803
    15   6 C        2.981     0.003    27.959     8.674
    16   6 C        2.942     0.180    24.141     8.058
    17   7 N        1.851    -0.271    27.876     7.825
    18   6 C        2.958     0.111    25.544     8.290
    19   6 C        2.983     0.005    27.910     8.666
    20   6 C        2.922    -0.030    28.748     8.793
    21   6 C        2.921    -0.041    29.013     8.833
    22   6 C        2.921     0.068    26.486     8.440
    23   7 N        2.751    -0.071    22.614     7.063
    24   6 C        2.922     0.043    27.047     8.529
    25   6 C        2.924    -0.060    29.497     8.906
    26   6 C        2.919    -0.039    28.968     8.826
    27   6 C        2.919    -0.040    29.005     8.832
    28   6 C        2.920    -0.056    29.398     8.891
    29   6 C        2.884     0.125    25.264     8.240
    30   8 O        1.709    -0.256    18.232     5.765
    31   6 C        2.884     0.125    25.266     8.241
    32   6 C        2.920    -0.056    29.398     8.891
    33   6 C        2.919    -0.040    29.004     8.831
    34   6 C        2.919    -0.039    28.961     8.825
    35   6 C        2.924    -0.060    29.497     8.907
    36   6 C        2.922     0.043    27.047     8.529
    37   6 C        2.920    -0.040    28.989     8.829
    38   6 C        2.925    -0.024    28.604     8.771
    39   6 C        2.979    -0.019    28.487     8.755
    40   6 C        2.913    -0.033    28.814     8.802
    41   6 C        2.917    -0.029    28.736     8.790
    42   6 C        2.916    -0.023    28.577     8.766
    43   6 C        2.919    -0.039    28.968     8.826
    44   6 C        2.982     0.104    25.694     8.315
    45   7 N        1.846    -0.266    27.763     7.809
    46   6 C        2.930    -0.025    28.618     8.773
    47   7 N        1.844    -0.226    26.790     7.671
    48   6 C        2.904     0.060    26.653     8.465
    49   1 H        0.926     0.033     2.546     2.495
    50   1 H        0.926     0.033     2.546     2.495
    51   1 H        0.926     0.041     2.441     2.443
    52   1 H        0.926     0.060     2.195     2.317
    53   1 H        0.926     0.039     2.466     2.456
    54   1 H        0.926     0.033     2.547     2.496
    55   1 H        0.926     0.033     2.541     2.493
    56   1 H        0.925     0.035     2.519     2.482
    57   1 H        0.926     0.058     2.217     2.329
    58   1 H        0.926     0.041     2.429     2.437
    59   1 H        0.926     0.044     2.403     2.424
    60   1 H        0.926     0.032     2.552     2.498
    61   1 H        0.926     0.035     2.516     2.481
    62   1 H        0.926     0.038     2.479     2.462
    63   1 H        0.926     0.050     2.317     2.380
    64   1 H        0.926     0.050     2.318     2.381
    65   1 H        0.926     0.038     2.480     2.463
    66   1 H        0.926     0.035     2.513     2.479
    67   1 H        0.926     0.035     2.512     2.478
    68   1 H        0.926     0.045     2.384     2.414
    69   1 H        0.926     0.052     2.292     2.368
    70   1 H        0.926     0.035     2.512     2.479
    71   1 H        0.926     0.036     2.503     2.474
    72   1 H        0.926     0.039     2.456     2.451
    73   1 H        0.926     0.056     2.244     2.343
    74   1 H        0.926     0.080     1.979     2.200
    75   1 H        0.925     0.036     2.502     2.474

molecular dipole:
                 x           y           z       tot (Debye)
 q only:       -0.047      -0.205       0.102
   full:        0.227      -0.134       0.169       0.795

 projected vibrational frequencies (cm⁻¹)
eigval :       -0.00    -0.00    -0.00     0.00     0.00     0.00
eigval :        6.32    10.71    11.39    23.80    30.23    32.35
eigval :       34.62    36.42    46.76    55.47    55.87    65.04
eigval :       71.81    83.14    97.66   104.32   118.67   141.54
eigval :      153.88   163.02   187.11   191.04   207.01   212.66
eigval :      222.24   242.90   250.97   255.56   265.16   272.54
eigval :      277.19   284.68   333.56   364.11   366.24   369.80
eigval :      375.09   380.94   384.08   385.41   394.35   405.71
eigval :      414.49   422.81   430.53   440.89   445.72   470.36
eigval :      486.44   494.78   510.35   521.55   522.98   540.94
eigval :      548.87   552.30   573.08   578.86   584.31   591.50
eigval :      593.75   602.81   605.40   610.95   627.40   639.60
eigval :      647.27   656.41   660.45   661.42   680.09   689.27
eigval :      702.24   712.52   713.87   727.07   762.56   767.85
eigval :      775.26   777.75   778.47   779.31   785.67   801.41
eigval :      824.28   842.20   844.09   855.12   863.03   865.14
eigval :      867.04   875.02   885.49   886.83   888.04   892.86
eigval :      895.31   896.71   897.68   903.03   913.03   914.36
eigval :      916.11   916.92   917.10   918.89   927.42   931.46
eigval :      933.27   934.72   935.07   942.66   965.92   999.90
eigval :     1003.49  1006.50  1023.91  1068.35  1089.72  1090.40
eigval :     1091.65  1095.45  1097.24  1107.80  1108.38  1120.04
eigval :     1121.64  1127.90  1132.79  1133.96  1143.70  1167.62
eigval :     1169.14  1171.55  1174.14  1175.85  1182.24  1187.67
eigval :     1199.56  1201.49  1222.44  1224.78  1229.03  1240.89
eigval :     1243.23  1248.22  1249.60  1258.13  1262.09  1263.21
eigval :     1283.05  1287.78  1297.26  1310.49  1311.09  1313.69
eigval :     1334.12  1338.05  1340.38  1348.11  1357.28  1375.95
eigval :     1382.66  1400.95  1403.87  1407.27  1419.77  1424.55
eigval :     1434.05  1443.34  1445.53  1451.39  1458.70  1480.65
eigval :     1488.91  1489.49  1507.14  1530.55  1537.73  1556.82
eigval :     1557.67  1559.41  1567.60  1570.71  1574.50  1581.06
eigval :     1583.05  1585.82  1587.66  1591.84  1603.85  1604.71
eigval :     3046.73  3047.63  3067.09  3067.31  3075.51  3080.15
eigval :     3081.89  3086.55  3088.07  3088.48  3091.32  3092.55
eigval :     3093.67  3095.04  3098.37  3098.42  3098.82  3098.90
eigval :     3101.48  3105.02  3106.36  3107.76  3109.99  3110.38
eigval :     3112.89  3113.48  3124.09

   temp. (K)  partition function   enthalpy   heat capacity  entropy
                                   cal/mol     cal/K/mol   cal/K/mol   J/K/mol
 298.15  VIB  0.131E+19            21892.788    136.369    137.699
         ROT  0.107E+09              888.752      2.981     39.723
         INT  0.140E+27            22781.541    139.350    177.422
         TR   0.149E+29             1481.254      4.968     45.125
         TOT                       24262.7945   144.3179   222.5465   931.1347

       T/K    H(0)-H(T)+PV         H(T)/Eh          T*S/Eh         G(T)/Eh
   ------------------------------------------------------------------------
    298.15    0.386652E-01    0.601737E+00    0.105739E+00    0.495998E+00
   ------------------------------------------------------------------------

         :::::::::::::::::::::::::::::::::::::::::::::::::::::
         ::                  THERMODYNAMIC                  ::
         :::::::::::::::::::::::::::::::::::::::::::::::::::::
         :: total free energy        -121.915490121299 Eh   ::
         ::.................................................::
         :: total energy             -122.411487908781 Eh   ::
         :: zero point energy           0.563071601905 Eh   ::
         :: G(RRHO) w/o ZPVE           -0.067073814423 Eh   ::
         :: G(RRHO) contrib.            0.495997787482 Eh   ::
         :::::::::::::::::::::::::::::::::::::::::::::::::::::

           -------------------------------------------------
          | TOTAL ENERGY             -122.411487908781 Eh   |
          | TOTAL ENTHALPY           -121.809751082671 Eh   |
          | TOTAL FREE ENERGY        -121.915490121299 Eh   |
          | GRADIENT NORM               0.000047939581 Eh/α |
          | HOMO-LUMO GAP               1.407853915376 eV   |
           -------------------------------------------------

 * finished run on 2025/09/12 at 14:58:29.888
