   * xtb version 6.7.1 (edcfbbe) compiled by 'albert@albert-system' on 2024-07-22

   ID    Z sym.   atoms
    1    6 C      1-12, 14-16, 18-22, 24-29, 31-44, 46, 48
    2    7 N      13, 17, 23, 45, 47
    3    8 O      30
    4    1 H      49-75

          program call               : xtb data2507/gas/2H-Qz/2H-Qz.xyz --gfn 2 --ohess vtight --parallel 40 --molden --ceasefiles --namespace data2507/gas/2H-Qz/2H-Qz_gas_S0_preOpt
          :  Hamiltonian                  GFN2-xTB          :
 * total energy  :  -122.3875337 Eh     change       -0.2309960E-08 Eh
 * total energy  :  -122.4024845 Eh     change       -0.1495072E-01 Eh
 * total energy  :  -122.4073551 Eh     change       -0.4870589E-02 Eh
 * total energy  :  -122.4084665 Eh     change       -0.1111423E-02 Eh
 * total energy  :  -122.4090715 Eh     change       -0.6050495E-03 Eh
 * total energy  :  -122.4092704 Eh     change       -0.1988560E-03 Eh
 * total energy  :  -122.4093843 Eh     change       -0.1139369E-03 Eh
 * total energy  :  -122.4094635 Eh     change       -0.7921726E-04 Eh
 * total energy  :  -122.4095180 Eh     change       -0.5444277E-04 Eh
 * total energy  :  -122.4095788 Eh     change       -0.6078465E-04 Eh
 * total energy  :  -122.4112811 Eh     change       -0.1109324E-05 Eh
 * total energy  :  -122.4112822 Eh     change       -0.1072614E-05 Eh
 * total energy  :  -122.4112832 Eh     change       -0.1015303E-05 Eh
 * total energy  :  -122.4112842 Eh     change       -0.1054509E-05 Eh
 * total energy  :  -122.4112854 Eh     change       -0.1153034E-05 Eh
 * total energy  :  -122.4112867 Eh     change       -0.1253500E-05 Eh
 * total energy  :  -122.4112880 Eh     change       -0.1308512E-05 Eh
 * total energy  :  -122.4112892 Eh     change       -0.1208676E-05 Eh
 * total energy  :  -122.4112892 Eh     change       -0.7179025E-08 Eh
   *** GEOMETRY OPTIMIZATION CONVERGED AFTER 94 ITERATIONS ***

 final structure:
================
75
 xtb: 6.7.1 (edcfbbe)
C           -9.64792672406965       -1.21518680962393       -0.10536995094766
C           -9.40107196925110        0.10659763358274       -0.44225896432155
C           -8.10066920747702        0.57687731993466       -0.40875823859639
C           -7.07603061662855       -0.29512128656336       -0.03329780373753
C           -5.66786290790353        0.12608212117562        0.02964588019124
C           -5.30776416661381        1.45599308331556        0.21865382918712
C           -3.96811936635174        1.83876958515295        0.26912850888394
C           -3.64393462989712        3.25966650567456        0.46870611874777
C           -2.40213191681871        3.80075386344408        0.12606612409009
C           -2.17210362781079        5.14601767288446        0.34988000250179
C           -3.18062661418811        5.91934756862673        0.90352706962217
C           -4.38522604359301        5.29658910538660        1.19405218279292
N           -4.61280497552439        4.01605338359320        0.98454928759659
C           -2.98161968142063        0.86788012127853        0.14415432722714
C           -3.32947597694721       -0.46866120175598       -0.03205136752368
C           -2.27952015720639       -1.48493489379180       -0.14205587170640
N           -1.00728201009475       -1.04927451365173       -0.05304663816757
C           -0.03083108069761       -1.92277035280792       -0.11159020495649
C            1.32898474461926       -1.36946021732058       -0.11055602330699
C            2.31744673990600       -1.85360506801210       -0.96526758252095
C            3.58173506471313       -1.29939331975365       -0.95523207245096
C            3.88161290674895       -0.25207603561852       -0.08856145867220
N            5.17864457702728        0.30177400381103       -0.06998601696551
C            6.27246760718760       -0.47070554405574        0.32587593546006
C            6.13472161178947       -1.78032032836551        0.76791937731802
C            7.24162992590609       -2.51842789879160        1.15915321710549
C            8.50166612642057       -1.95735231989607        1.12517894922729
C            8.65276153116183       -0.64094350460685        0.71408510003257
C            7.55255451898439        0.09965833752612        0.32500580284034
O            7.77734859389963        1.40399935855338       -0.03935380065548
C            6.69042230501326        2.15205557718320       -0.41926625355556
C            6.93068291040458        3.46093524457815       -0.79269400134409
C            5.88769448172570        4.27068905151010       -1.21826318749144
C            4.60948280641757        3.75510650304688       -1.28239510757211
C            4.36237578962210        2.44312956514271       -0.90706240286719
C            5.39089013199342        1.62859718287405       -0.45090186283163
C            2.89074707878824        0.24961033412606        0.75176539960109
C            1.62565723756254       -0.29908661953695        0.73161945403544
C           -0.29538073691715       -3.32101534566518       -0.18023631936688
C            0.66151426355296       -4.34619029203658       -0.07221943702393
C            0.28151666795065       -5.65459110296583       -0.20220324741378
C           -1.06182004552662       -5.99117070742768       -0.43473979605749
C           -2.02314139386777       -5.02208560049169       -0.49819782355643
C           -1.66637384065528       -3.66546526190768       -0.34852867612595
N           -2.63285431614392       -2.73171388304660       -0.34532308157495
C           -4.66877196101956       -0.83587117617207       -0.09018922155636
N           -7.32145135824392       -1.56804774794796        0.27317048906073
C           -8.56266433477796       -2.00749240069832        0.23896499301483
H          -10.64816712163224       -1.61942968470325       -0.11570072992588
H          -10.21170259939320        0.76106340947631       -0.73065921252016
H           -7.88162738884300        1.59594939367097       -0.68558518580739
H           -6.05169995145371        2.22482111782463        0.35497881037712
H           -1.63840735279649        3.18557537704753       -0.32236690093979
H           -1.21934948596724        5.58738468779423        0.09284803015354
H           -3.03982538568002        6.97123751568900        1.09711657663056
H           -5.21336481985286        5.85131887190838        1.61769986102018
H           -1.93378852370750        1.11470764467395        0.20283019916431
H            2.08437297003797       -2.63969581973413       -1.66832204288297
H            4.34502674606319       -1.66850098890921       -1.62447710595092
H            5.15299660996755       -2.22503178051272        0.81542587527351
H            7.10515243689065       -3.53514556424667        1.49440344304085
H            9.36642570752611       -2.52789541207027        1.42489829312787
H            9.62074577265579       -0.16638119521077        0.69346560847724
H            7.94412357887701        3.82649313410880       -0.74865179452230
H            6.08479737298791        5.29137835107650       -1.50564405369992
H            3.79070179527008        4.36648010253816       -1.62952184140152
H            3.36146255846272        2.04714242995751       -0.97826178209452
H            3.12400552366706        1.06670391093081        1.41844606135359
H            0.85149984187071        0.08159004712744        1.37984327741114
H            1.69050293979729       -4.09268739404950        0.13633736242341
H            1.01681744648417       -6.44143782443881       -0.11940377181675
H           -1.33192841790524       -7.03158991270152       -0.54221547377613
H           -3.06606200807098       -5.25767584530820       -0.63815222563949
H           -4.93480104642672       -1.87166098880830       -0.22293469798933
H           -8.69300116056618       -3.04993227300416        0.50210978484142

          :  Hamiltonian                  GFN2-xTB          :
         :: gradient norm              0.000063564311 Eh/a0 ::
         :: HOMO-LUMO gap              1.401100586285 eV    ::
         :: SCC energy              -124.583951793621 Eh    ::
         :: -> dispersion             -0.101334096990 Eh    ::
         :: repulsion energy           2.172662614620 Eh    ::

    * Orbital Energies and Occupations

         #    Occupation            Energy/Eh            Energy/eV
      -------------------------------------------------------------
         1        2.0000           -0.7269615             -19.7816
       ...           ...                  ...                  ...
       101        2.0000           -0.4168198             -11.3422
       102        2.0000           -0.4152805             -11.3004
       103        2.0000           -0.4143838             -11.2760
       104        2.0000           -0.4120405             -11.2122
       105        2.0000           -0.4012288             -10.9180
       106        2.0000           -0.3953069             -10.7568
       107        2.0000           -0.3898277             -10.6078
       108        2.0000           -0.3877034             -10.5499
       109        2.0000           -0.3867147             -10.5230
       110        2.0000           -0.3651165              -9.9353
       111        2.0000           -0.3604738              -9.8090
       112        2.0000           -0.3566411              -9.7047
       113        2.0000           -0.3426123              -9.3230 (HOMO)
       114                         -0.2911228              -7.9219 (LUMO)
       115                         -0.2653896              -7.2216
       116                         -0.2632604              -7.1637
       117                         -0.2481247              -6.7518
       118                         -0.2425495              -6.6001
       119                         -0.2405769              -6.5464
       120                         -0.2404073              -6.5418
       121                         -0.2375708              -6.4646
       122                         -0.2370306              -6.4499
       123                         -0.2290235              -6.2320
       124                         -0.2146722              -5.8415
       ...                                ...                  ...
       219                          0.7099829              19.3196
      -------------------------------------------------------------
                  HL-Gap            0.0514895 Eh            1.4011 eV

     #   Z          covCN         q      C6AA      α(0)
     1   6 C        2.914    -0.042    29.046     8.838
     2   6 C        2.927    -0.012    28.322     8.727
     3   6 C        2.917    -0.043    29.079     8.843
     4   6 C        2.962     0.095    25.893     8.346
     5   6 C        2.976     0.009    27.810     8.650
     6   6 C        2.930    -0.031    28.764     8.795
     7   6 C        2.976     0.006    27.881     8.661
     8   6 C        2.960     0.094    25.901     8.348
     9   6 C        2.917    -0.044    29.087     8.844
    10   6 C        2.927    -0.012    28.319     8.727
    11   6 C        2.914    -0.042    29.050     8.838
    12   6 C        2.903     0.060    26.646     8.464
    13   7 N        1.845    -0.231    26.903     7.687
    14   6 C        2.927    -0.033    28.813     8.803
    15   6 C        2.981     0.003    27.960     8.674
    16   6 C        2.942     0.180    24.142     8.059
    17   7 N        1.851    -0.270    27.869     7.824
    18   6 C        2.958     0.111    25.548     8.291
    19   6 C        2.982     0.005    27.910     8.666
    20   6 C        2.922    -0.030    28.751     8.793
    21   6 C        2.921    -0.041    29.010     8.832
    22   6 C        2.922     0.068    26.482     8.439
    23   7 N        2.752    -0.071    22.620     7.064
    24   6 C        2.922     0.043    27.046     8.528
    25   6 C        2.924    -0.060    29.497     8.906
    26   6 C        2.919    -0.039    28.967     8.826
    27   6 C        2.919    -0.040    29.005     8.832
    28   6 C        2.920    -0.056    29.398     8.891
    29   6 C        2.884     0.125    25.264     8.240
    30   8 O        1.709    -0.256    18.234     5.765
    31   6 C        2.884     0.125    25.267     8.241
    32   6 C        2.920    -0.056    29.398     8.891
    33   6 C        2.919    -0.040    29.006     8.832
    34   6 C        2.919    -0.039    28.962     8.825
    35   6 C        2.924    -0.060    29.498     8.907
    36   6 C        2.922     0.043    27.045     8.528
    37   6 C        2.920    -0.040    28.985     8.829
    38   6 C        2.925    -0.024    28.603     8.771
    39   6 C        2.979    -0.019    28.486     8.755
    40   6 C        2.913    -0.033    28.815     8.802
    41   6 C        2.917    -0.030    28.738     8.791
    42   6 C        2.916    -0.023    28.577     8.766
    43   6 C        2.919    -0.039    28.968     8.826
    44   6 C        2.983     0.104    25.692     8.315
    45   7 N        1.846    -0.266    27.765     7.809
    46   6 C        2.930    -0.025    28.620     8.773
    47   7 N        1.845    -0.226    26.781     7.670
    48   6 C        2.904     0.060    26.650     8.465
    49   1 H        0.926     0.033     2.544     2.494
    50   1 H        0.926     0.033     2.548     2.496
    51   1 H        0.926     0.038     2.471     2.458
    52   1 H        0.926     0.062     2.177     2.307
    53   1 H        0.926     0.038     2.469     2.457
    54   1 H        0.926     0.033     2.549     2.496
    55   1 H        0.926     0.033     2.541     2.493
    56   1 H        0.925     0.035     2.516     2.480
    57   1 H        0.926     0.058     2.219     2.329
    58   1 H        0.926     0.042     2.428     2.437
    59   1 H        0.926     0.043     2.403     2.424
    60   1 H        0.926     0.032     2.555     2.500
    61   1 H        0.926     0.035     2.516     2.481
    62   1 H        0.926     0.038     2.479     2.462
    63   1 H        0.926     0.050     2.317     2.380
    64   1 H        0.926     0.050     2.319     2.381
    65   1 H        0.926     0.038     2.481     2.463
    66   1 H        0.926     0.035     2.514     2.479
    67   1 H        0.926     0.035     2.517     2.481
    68   1 H        0.926     0.045     2.382     2.414
    69   1 H        0.926     0.053     2.281     2.362
    70   1 H        0.926     0.035     2.512     2.479
    71   1 H        0.926     0.036     2.504     2.474
    72   1 H        0.926     0.039     2.456     2.451
    73   1 H        0.926     0.056     2.244     2.343
    74   1 H        0.926     0.081     1.971     2.195
    75   1 H        0.925     0.036     2.501     2.473

molecular dipole:
                 x           y           z       tot (Debye)
 q only:       -0.059      -0.170      -0.183
   full:        0.213      -0.059      -0.346       1.044

 projected vibrational frequencies (cm⁻¹)
eigval :       -0.00    -0.00    -0.00     0.00     0.00     0.00
eigval :        6.39    10.58    11.60    23.58    28.49    30.39
eigval :       32.81    35.75    46.67    55.34    56.20    64.47
eigval :       71.48    83.20    99.80   103.73   117.69   141.58
eigval :      154.84   163.49   188.60   190.65   204.93   210.19
eigval :      221.57   243.84   251.72   256.85   268.80   272.36
eigval :      276.31   284.27   333.90   358.49   366.53   369.42
eigval :      375.11   376.14   381.79   385.75   405.15   412.75
eigval :      417.63   423.69   430.09   436.14   445.13   465.15
eigval :      484.65   495.55   510.37   521.66   522.99   540.73
eigval :      549.83   551.59   572.98   578.89   583.51   591.36
eigval :      596.71   598.53   605.83   611.17   627.40   638.81
eigval :      647.26   656.63   660.36   661.31   680.12   688.96
eigval :      702.43   712.19   713.14   727.07   762.21   769.33
eigval :      773.29   777.75   778.38   779.21   785.46   801.37
eigval :      824.16   842.07   844.04   855.00   862.88   864.86
eigval :      867.11   874.61   885.33   886.05   886.59   892.30
eigval :      895.49   896.52   897.55   904.04   913.01   914.34
eigval :      915.89   917.07   917.15   918.93   927.19   931.30
eigval :      933.12   934.56   934.63   943.58   965.83   999.93
eigval :     1003.20  1006.40  1023.71  1068.50  1089.66  1090.26
eigval :     1091.50  1095.52  1097.10  1107.21  1108.30  1120.13
eigval :     1121.70  1127.84  1132.45  1133.69  1143.69  1167.83
eigval :     1169.19  1171.76  1174.58  1175.89  1182.05  1187.46
eigval :     1199.57  1201.28  1222.31  1224.91  1229.26  1240.48
eigval :     1243.20  1248.49  1249.27  1258.26  1262.03  1262.91
eigval :     1283.16  1288.29  1297.34  1310.61  1311.02  1313.78
eigval :     1334.23  1338.09  1340.72  1347.95  1357.40  1375.85
eigval :     1382.21  1400.96  1403.95  1407.21  1419.66  1424.59
eigval :     1433.99  1443.35  1445.09  1450.81  1458.39  1480.60
eigval :     1488.47  1489.70  1507.22  1529.73  1537.50  1556.82
eigval :     1557.77  1559.44  1567.56  1570.18  1574.38  1581.07
eigval :     1583.22  1585.93  1587.57  1591.79  1603.86  1604.61
eigval :     3046.78  3047.36  3066.88  3067.22  3075.47  3080.18
eigval :     3081.94  3086.65  3088.06  3088.37  3091.30  3092.61
eigval :     3093.80  3095.18  3098.05  3098.38  3098.64  3099.28
eigval :     3101.87  3104.93  3105.92  3108.83  3110.08  3111.48
eigval :     3112.85  3113.45  3124.60

   temp. (K)  partition function   enthalpy   heat capacity  entropy
                                   cal/mol     cal/K/mol   cal/K/mol   J/K/mol
 298.15  VIB  0.155E+19            21902.384    136.286    137.743
         ROT  0.107E+09              888.752      2.981     39.730
         INT  0.167E+27            22791.137    139.267    177.473
         TR   0.149E+29             1481.254      4.968     45.125
         TOT                       24272.3907   144.2353   222.5984   931.3515

       T/K    H(0)-H(T)+PV         H(T)/Eh          T*S/Eh         G(T)/Eh
   ------------------------------------------------------------------------
    298.15    0.386805E-01    0.601714E+00    0.105764E+00    0.495950E+00
   ------------------------------------------------------------------------

         :::::::::::::::::::::::::::::::::::::::::::::::::::::
         ::                  THERMODYNAMIC                  ::
         :::::::::::::::::::::::::::::::::::::::::::::::::::::
         :: total free energy        -121.915339031936 Eh   ::
         ::.................................................::
         :: total energy             -122.411289179000 Eh   ::
         :: zero point energy           0.563033292192 Eh   ::
         :: G(RRHO) w/o ZPVE           -0.067083145127 Eh   ::
         :: G(RRHO) contrib.            0.495950147064 Eh   ::
         :::::::::::::::::::::::::::::::::::::::::::::::::::::

           -------------------------------------------------
          | TOTAL ENERGY             -122.411289179000 Eh   |
          | TOTAL ENTHALPY           -121.809575370163 Eh   |
          | TOTAL FREE ENERGY        -121.915339031936 Eh   |
          | GRADIENT NORM               0.000063562661 Eh/α |
          | HOMO-LUMO GAP               1.401100940039 eV   |
           -------------------------------------------------

 * finished run on 2025/09/12 at 14:53:04.226
