   * xtb version 6.7.1 (edcfbbe) compiled by 'albert@albert-system' on 2024-07-22

   ID    Z sym.   atoms
    1    6 C      1-12, 14-16, 18-22, 24-29, 31-44, 46, 48
    2    7 N      13, 17, 23, 45, 47
    3    8 O      30
    4    1 H      49-75

          program call               : xtb data2507/gas/2H-Qz/2H-Qz_gas_S0_finalOpt.xtbopt.xyz --gfn 2 --spinpol --tblite --uhf 2 --ohess vtight --parallel 40 --molden --ceasefiles --namespace data2507/gas/2H-Qz/2H-Qz_gas_T1_preOpt
 * total energy  :  -122.3443707 Eh     change        0.2697391E-07 Eh
 * total energy  :  -122.3487376 Eh     change       -0.4366916E-02 Eh
 * total energy  :  -122.3502831 Eh     change       -0.1545446E-02 Eh
 * total energy  :  -122.3504341 Eh     change       -0.1510681E-03 Eh
 * total energy  :  -122.3505564 Eh     change       -0.1222285E-03 Eh
 * total energy  :  -122.3506159 Eh     change       -0.5953510E-04 Eh
 * total energy  :  -122.3507037 Eh     change       -0.8781948E-04 Eh
 * total energy  :  -122.3507708 Eh     change       -0.6705774E-04 Eh
 * total energy  :  -122.3508132 Eh     change       -0.4240851E-04 Eh
 * total energy  :  -122.3508400 Eh     change       -0.2676606E-04 Eh
 * total energy  :  -122.3515387 Eh     change       -0.5368618E-06 Eh
 * total energy  :  -122.3515393 Eh     change       -0.6461097E-06 Eh
 * total energy  :  -122.3515400 Eh     change       -0.6742391E-06 Eh
 * total energy  :  -122.3515406 Eh     change       -0.6308757E-06 Eh
 * total energy  :  -122.3515412 Eh     change       -0.5803865E-06 Eh
 * total energy  :  -122.3515417 Eh     change       -0.5129149E-06 Eh
 * total energy  :  -122.3515424 Eh     change       -0.6514971E-06 Eh
 * total energy  :  -122.3515431 Eh     change       -0.7369778E-06 Eh
 * total energy  :  -122.3515431 Eh     change       -0.1814880E-07 Eh
   *** GEOMETRY OPTIMIZATION CONVERGED AFTER 68 ITERATIONS ***

 final structure:
================
75
 xtb: 6.7.1 (edcfbbe)
C           -9.64950676515494       -0.95103706367807       -0.29153359550801
C           -9.37473537144132        0.20146308048536        0.42834902171308
C           -8.06168988369738        0.61712381919659        0.55500664873735
C           -7.05318360980615       -0.13727207967937       -0.04930331498641
C           -5.63416665414775        0.23912967018343        0.04079006030713
C           -5.23974076338931        1.55944337125376        0.23263650442037
C           -3.88949032029341        1.89929989041050        0.31851762808499
C           -3.52454984852888        3.31068617861468        0.51035240841361
C           -2.27549476339448        3.81598868001405        0.14038562572159
C           -2.00455148504488        5.15525253748728        0.35268052539650
C           -2.98072852215703        5.95774753134829        0.92288977069387
C           -4.19506646429953        5.36900375706780        1.24185893068776
N           -4.46180612909947        4.09401732013715        1.04357687276962
C           -2.93153351983298        0.89901905751578        0.22762558825313
C           -3.31240647775184       -0.42703626627623        0.02408338148573
C           -2.29938746525751       -1.46152208001529       -0.08599598151654
N           -1.03057917591865       -1.15304866538224        0.04164308802113
C           -0.03568399087694       -2.03359866814353       -0.09111088801666
C            1.29539868016039       -1.48237351701071       -0.09089495109645
C            2.36053063461758       -2.04223917828646       -0.81553012743578
C            3.60614566853708       -1.45679959616391       -0.80742725031518
C            3.83223890171262       -0.29132420166608       -0.07865891292162
N            5.12163150032501        0.30144332335673       -0.06418520198291
C            6.17319452302086       -0.32090872476856        0.59337553915893
C            6.00840623551182       -1.51683111969397        1.28636520812556
C            7.07987491086261       -2.11243186405675        1.92881765220379
C            8.33139586775490       -1.52422661158782        1.89765093069151
C            8.50954687984010       -0.32313394452628        1.22937282261508
C            7.44312169519909        0.27933340346827        0.58597850066183
O            7.68110154653307        1.47493610590482       -0.03776934307927
C            6.63043943447077        2.08005762519324       -0.67411510117665
C            6.88065502302623        3.28705911393220       -1.30243664900871
C            5.86570619675915        3.94224440146604       -1.98183589421045
C            4.60413842658131        3.37807563273230       -2.03962019489712
C            4.34532046314957        2.17154837762846       -1.41272224236434
C            5.34711977492870        1.50977653965748       -0.70823881506695
C            2.77889978423186        0.29800260158498        0.61989129878523
C            1.53359306202800       -0.28080470792373        0.60385135984441
C           -0.35518968550637       -3.43542991352892       -0.23482051237695
C            0.53758578461190       -4.49898621875424       -0.16261794822766
C            0.09907028385601       -5.80371986969369       -0.33321513175097
C           -1.24141026635612       -6.06450117910875       -0.56319212352940
C           -2.16291723529399       -5.03316417607732       -0.57265348746149
C           -1.74855350505672       -3.71222287340356       -0.38497459111399
N           -2.65564583457513       -2.72413587404111       -0.32134864620809
C           -4.66295732250260       -0.74926384817487       -0.07842061625838
N           -7.32516567275411       -1.25273069316868       -0.72466388115243
C           -8.57880822232525       -1.64079088402940       -0.84070708772642
H          -10.66041045239984       -1.30671672519819       -0.41669579676794
H          -10.17383401916302        0.76625056974580        0.88785605395206
H           -7.81885733115905        1.49820572149542        1.12758600507518
H           -5.96291665296890        2.35665039925605        0.29614287670893
H           -1.53977300388504        3.17712321753912       -0.32199926806226
H           -1.04600845813874        5.57001883221626        0.07342676889630
H           -2.80811623037700        7.00657341854379        1.10740883611291
H           -4.99846951640823        5.94817711824157        1.68025648987465
H           -1.87901956332249        1.11654323098913        0.32277316894197
H            2.19184865051819       -2.90963362729842       -1.43411669514278
H            4.41576005775926       -1.88907505012009       -1.37815437369066
H            5.03248412442906       -1.97423240333478        1.32279359050190
H            6.92875550621883       -3.04064763085895        2.45764097813497
H            9.16762934883079       -1.98876811147834        2.39543806816073
H            9.46939635770862        0.16689737618449        1.19786319962072
H            7.87773638655373        3.69396009252302       -1.25065245687589
H            6.06787332166613        4.88356055989035       -2.46762486730007
H            3.81126661166399        3.87402231101471       -2.57772145019510
H            3.36275741445320        1.73093266835040       -1.47080740013205
H            2.95519905662754        1.20779342238788        1.17579544326511
H            0.71662175584390        0.16811584555519        1.14735326972496
H            1.57571260975252       -4.31375936437549        0.06557993086225
H            0.80892353773521       -6.61552132287141       -0.27792617758951
H           -1.57692258871803       -7.08009297932484       -0.71226197409630
H           -3.21427937672291       -5.22233599248382       -0.72039423563941
H           -4.95903949731396       -1.77281777413861       -0.24407755592138
H           -8.73168333422742       -2.55289334491702       -1.40432223299655

 projected vibrational frequencies (cm⁻¹)
eigval :       -0.00    -0.00    -0.00     0.00     0.00     0.00
eigval :        7.06     9.64    12.01    24.30    29.70    30.89
eigval :       34.05    36.03    48.86    55.63    59.15    67.00
eigval :       72.04    83.71    98.97   105.32   114.26   144.56
eigval :      152.83   168.54   183.61   193.48   204.18   212.10
eigval :      222.97   243.08   248.19   259.20   264.12   271.12
eigval :      276.09   289.23   331.99   362.23   364.79   369.43
eigval :      374.95   379.93   382.71   385.97   392.28   401.31
eigval :      413.05   423.98   430.12   446.31   453.83   461.58
eigval :      477.08   493.24   504.28   510.89   512.95   525.46
eigval :      539.25   545.68   569.07   571.75   574.68   583.54
eigval :      589.06   592.40   602.32   610.67   611.53   617.57
eigval :      636.40   644.49   657.58   664.73   667.43   671.86
eigval :      680.31   691.97   710.65   713.58   720.87   758.80
eigval :      761.03   765.81   774.62   777.25   778.21   799.58
eigval :      808.64   831.20   832.91   837.52   846.33   855.56
eigval :      860.68   864.93   865.73   882.24   885.62   885.88
eigval :      888.00   889.82   890.81   898.36   899.39   903.32
eigval :      911.27   915.95   915.99   916.37   916.58   917.99
eigval :      922.05   931.87   933.84   934.33   950.88   988.92
eigval :     1000.67  1002.72  1010.84  1084.02  1085.79  1087.00
eigval :     1089.42  1095.05  1097.49  1107.37  1111.37  1117.45
eigval :     1120.51  1122.18  1127.88  1133.30  1135.53  1163.59
eigval :     1167.01  1170.44  1171.69  1174.05  1174.91  1183.31
eigval :     1197.67  1204.94  1222.95  1223.80  1231.98  1238.96
eigval :     1241.18  1245.60  1248.29  1250.48  1256.80  1263.99
eigval :     1269.03  1286.20  1288.35  1288.86  1310.79  1315.10
eigval :     1317.60  1329.66  1331.39  1336.55  1343.08  1351.18
eigval :     1379.51  1383.65  1402.38  1403.53  1411.37  1416.06
eigval :     1421.54  1423.06  1438.54  1443.00  1450.71  1455.79
eigval :     1458.76  1467.84  1477.94  1488.56  1513.36  1528.18
eigval :     1543.51  1553.93  1556.71  1560.44  1564.71  1568.80
eigval :     1569.13  1574.62  1580.85  1581.03  1583.37  1591.99
eigval :     3046.28  3047.25  3065.92  3066.60  3075.37  3076.56
eigval :     3076.99  3085.19  3093.38  3093.55  3093.79  3093.92
eigval :     3095.10  3095.54  3098.31  3098.91  3100.47  3101.60
eigval :     3102.80  3102.97  3104.82  3110.73  3110.80  3111.05
eigval :     3112.81  3115.02  3115.20

   temp. (K)  partition function   enthalpy   heat capacity  entropy
                                   cal/mol     cal/K/mol   cal/K/mol   J/K/mol
 298.15  VIB  0.129E+19            22044.723    137.777    138.315
         ROT  0.107E+09              888.752      2.981     39.730
         INT  0.139E+27            22933.476    140.758    178.045
         TR   0.149E+29             1481.254      4.968     45.125
         TOT                       24414.7296   145.7262   223.1703   933.7447

       T/K    H(0)-H(T)+PV         H(T)/Eh          T*S/Eh         G(T)/Eh
   ------------------------------------------------------------------------
    298.15    0.389073E-01    0.599104E+00    0.106035E+00    0.493068E+00
   ------------------------------------------------------------------------

         :::::::::::::::::::::::::::::::::::::::::::::::::::::
         ::                  THERMODYNAMIC                  ::
         :::::::::::::::::::::::::::::::::::::::::::::::::::::
         :: total free energy        -121.858474971997 Eh   ::
         ::.................................................::
         :: total energy             -122.351543149626 Eh   ::
         :: zero point energy           0.560196258669 Eh   ::
         :: G(RRHO) w/o ZPVE           -0.067128081040 Eh   ::
         :: G(RRHO) contrib.            0.493068177629 Eh   ::
         :::::::::::::::::::::::::::::::::::::::::::::::::::::

           -------------------------------------------------
          | TOTAL ENERGY             -122.351543149626 Eh   |
          | TOTAL ENTHALPY           -121.752439542710 Eh   |
          | TOTAL FREE ENERGY        -121.858474971997 Eh   |
          | GRADIENT NORM               0.000073925112 Eh/α |
           -------------------------------------------------

 * finished run on 2025/09/12 at 14:58:43.659
