   * xtb version 6.7.1 (edcfbbe) compiled by 'albert@albert-system' on 2024-07-22

   ID    Z sym.   atoms
    1    6 C      1, 2, 4-6, 8-20, 22-33
    2   16 S      3
    3   15 P      7, 21
    4    1 H      34-59

          program call               : xtb data2507/toluene/dpmt/dpmt.xyz --gfn 2 --gbsa toluene --ohess vtight --parallel 40 --molden --ceasefiles --namespace data2507/toluene/dpmt/dpmt_toluene_S0_preOpt
      * Solvation model:               GBSA
        Solvent                        toluene
        Solvent mass                       9.2140E+01 g/mol
          :  Hamiltonian                  GFN2-xTB          :
 * total energy  :   -85.7453983 Eh     change       -0.4003056E-09 Eh
 * total energy  :   -85.7566923 Eh     change       -0.1129397E-01 Eh
 * total energy  :   -85.7605821 Eh     change       -0.3889828E-02 Eh
 * total energy  :   -85.7623542 Eh     change       -0.1772090E-02 Eh
 * total energy  :   -85.7633793 Eh     change       -0.1025079E-02 Eh
 * total energy  :   -85.7638029 Eh     change       -0.4236820E-03 Eh
 * total energy  :   -85.7640348 Eh     change       -0.2318592E-03 Eh
 * total energy  :   -85.7641845 Eh     change       -0.1497150E-03 Eh
 * total energy  :   -85.7642535 Eh     change       -0.6895141E-04 Eh
 * total energy  :   -85.7642803 Eh     change       -0.2686484E-04 Eh
 * total energy  :   -85.7665325 Eh     change       -0.1499084E-05 Eh
 * total energy  :   -85.7665336 Eh     change       -0.1083513E-05 Eh
 * total energy  :   -85.7665350 Eh     change       -0.1386153E-05 Eh
 * total energy  :   -85.7665367 Eh     change       -0.1644760E-05 Eh
 * total energy  :   -85.7665381 Eh     change       -0.1468400E-05 Eh
 * total energy  :   -85.7665392 Eh     change       -0.1109747E-05 Eh
 * total energy  :   -85.7665401 Eh     change       -0.8300130E-06 Eh
 * total energy  :   -85.7665406 Eh     change       -0.5248938E-06 Eh
 * total energy  :   -85.7665406 Eh     change       -0.5667137E-07 Eh
   *** GEOMETRY OPTIMIZATION CONVERGED AFTER 81 ITERATIONS ***

 final structure:
================
59
 xtb: 6.7.1 (edcfbbe)
C           -2.58390133371598       -0.72587334818318       -2.80778590306928
C           -1.21632515170268       -0.34849705470365       -2.35956684572238
S            0.00001460269846       -0.00093039880248       -3.56918763069757
C            1.21635375784935        0.34674595458261       -2.35961205817827
C            2.58384335184178        0.72437968612114       -2.80789772441783
C            0.69095938820656        0.19683678222999       -1.11591100222411
P            1.30315303680302        0.45885410941629        0.57701810592158
C            2.80717896881497        1.47109457143274        0.28474902016364
C            4.09635818281496        1.07978407799160        0.62747968439435
C            5.15580381080446        1.95418322222462        0.45549899077994
C            4.93880982394021        3.22704899968474       -0.04491444582194
C            3.65229129836104        3.63246153610030       -0.36637167800574
C            2.59302602669108        2.76336278694461       -0.19215673249422
C            2.03885760182376       -1.17562383120885        0.94584458066005
C            2.36328506487760       -2.11606017000677       -0.02425441487823
C            2.90857279973630       -3.33303902304598        0.34606586965344
C            3.13255007786130       -3.62079701430918        1.68256128914597
C            2.80413939155110       -2.68975144723170        2.65522200723992
C            2.25466600098562       -1.47520401042622        2.28829611819656
C           -0.69102178997576       -0.19808604354365       -1.11589572155616
P           -1.30340614352552       -0.45930222872234        0.57708207520212
C           -2.80779505913110       -1.47106944515309        0.28507832811324
C           -2.59427339939610       -2.76345745153478       -0.19177707041352
C           -3.65395993739268       -3.63206381144208       -0.36586864425182
C           -4.94025591146431       -3.22604774833739       -0.04427668002137
C           -5.15660822652426       -1.95307452958952        0.45614221717628
C           -4.09674945225192       -1.07915551587165        0.62794741109828
C           -2.03816958932579        1.17565671985843        0.94558367022204
C           -2.36310655673654        2.11553862846147       -0.02486946677624
C           -2.90802588727510        3.33277770327902        0.34508143393957
C           -3.13109015703199        3.62133934333232        1.68154634624002
C           -2.80207528119530        2.69087530625843        2.65456089175000
C           -2.25306384830277        1.47602324914915        2.28798323744356
H           -2.66316588269111       -1.80696062140388       -2.93281748788906
H           -2.80842784929034       -0.25649525876199       -3.76408486602726
H           -3.32357305752364       -0.41574449439775       -2.07324286681034
H            2.66292522424679        1.80549990854793       -2.93280071368706
H            3.32362424451764        0.41428581990638       -2.07345325899200
H            2.80835203601766        0.25516215424829       -3.76427565123064
H            4.27287942344444        0.08753326956360        1.01935918128548
H            6.15648066074650        1.63873314944936        0.71554547736498
H            5.76882646789649        3.90575131293028       -0.17723890231573
H            3.47763530395590        4.62902131607560       -0.74686922512876
H            1.58285490211670        3.07425822396588       -0.43015470550957
H            2.18816421812541       -1.89806756668727       -1.06846672503656
H            3.16042177871313       -4.06008799848224       -0.41323225395710
H            3.55956536950202       -4.57183845525372        1.96638576794690
H            2.97313406459533       -2.91353134571271        3.69892090113244
H            1.98764481550859       -0.74351959472316        3.04004376051700
H           -1.58430051902526       -3.07475148320494       -0.43007927065837
H           -3.47983463553952       -4.62864203713132       -0.74656713098183
H           -5.77061203888030       -3.90434533596095       -0.17654790791180
H           -6.15708253652748       -1.63719804998599        0.71643547026512
H           -4.27272169250288       -0.08688645793133        1.02003144721680
H           -2.18903828714451        1.89672113149307       -1.06910042659584
H           -3.16023411961094        4.05945949747375       -0.41444488094752
H           -3.55740914849369        4.57276650690071        1.96510465898760
H           -2.97026207535705        2.91534119941540        3.69823901626447
H           -1.98588512751271        0.74460760470676        3.03991633390008

          :  Hamiltonian                  GFN2-xTB          :
         :: gradient norm              0.000163511420 Eh/a0 ::
         :: HOMO-LUMO gap              2.913144931708 eV    ::
         :: SCC energy               -87.284734507059 Eh    ::
         :: -> dispersion             -0.089164804791 Eh    ::
         :: -> Gsolv                  -0.035883727740 Eh    ::
         :: repulsion energy           1.518193857292 Eh    ::

    * Orbital Energies and Occupations

         #    Occupation            Energy/Eh            Energy/eV
      -------------------------------------------------------------
         1        2.0000           -0.7289369             -19.8354
       ...           ...                  ...                  ...
        69        2.0000           -0.4146665             -11.2836
        70        2.0000           -0.4109054             -11.1813
        71        2.0000           -0.4103467             -11.1661
        72        2.0000           -0.4080106             -11.1025
        73        2.0000           -0.4077079             -11.0943
        74        2.0000           -0.4066772             -11.0662
        75        2.0000           -0.4066412             -11.0653
        76        2.0000           -0.3993919             -10.8680
        77        2.0000           -0.3983496             -10.8396
        78        2.0000           -0.3928851             -10.6909
        79        2.0000           -0.3870016             -10.5309
        80        2.0000           -0.3736196             -10.1667
        81        2.0000           -0.3577223              -9.7341 (HOMO)
        82                         -0.2506663              -6.8210 (LUMO)
        83                         -0.2431050              -6.6152
        84                         -0.2369498              -6.4477
        85                         -0.2324892              -6.3264
        86                         -0.2313469              -6.2953
        87                         -0.2265948              -6.1660
        88                         -0.2259510              -6.1484
        89                         -0.2253880              -6.1331
        90                         -0.2251172              -6.1258
        91                         -0.2106709              -5.7326
        92                         -0.2096744              -5.7055
       ...                                ...                  ...
       173                          1.2186233              33.1604
      -------------------------------------------------------------
                  HL-Gap            0.1070560 Eh            2.9131 eV

     #   Z          covCN         q      C6AA      α(0)
     1   6 C        3.778    -0.097    22.383     6.740
     2   6 C        2.988     0.024    27.472     8.598
     3  16 S        2.368    -0.096   145.077    20.272
     4   6 C        2.988     0.024    27.471     8.598
     5   6 C        3.778    -0.097    22.383     6.740
     6   6 C        3.255    -0.006    27.047     8.410
     7  15 P        3.956    -0.141   166.663    23.190
     8   6 C        2.917     0.020    27.560     8.609
     9   6 C        2.960    -0.029    28.733     8.792
    10   6 C        2.919    -0.029    28.735     8.790
    11   6 C        2.920    -0.030    28.751     8.793
    12   6 C        2.918    -0.029    28.731     8.790
    13   6 C        3.023    -0.024    28.587     8.770
    14   6 C        2.918     0.028    27.376     8.580
    15   6 C        2.965    -0.025    28.626     8.776
    16   6 C        2.919    -0.029    28.730     8.790
    17   6 C        2.920    -0.028    28.709     8.787
    18   6 C        2.918    -0.029    28.720     8.788
    19   6 C        3.022    -0.024    28.569     8.768
    20   6 C        3.255    -0.006    27.046     8.410
    21  15 P        3.956    -0.141   166.666    23.191
    22   6 C        2.917     0.020    27.560     8.609
    23   6 C        3.023    -0.024    28.587     8.770
    24   6 C        2.918    -0.029    28.731     8.790
    25   6 C        2.920    -0.030    28.751     8.793
    26   6 C        2.919    -0.029    28.735     8.790
    27   6 C        2.960    -0.029    28.733     8.792
    28   6 C        2.918     0.028    27.375     8.580
    29   6 C        2.965    -0.025    28.626     8.776
    30   6 C        2.919    -0.029    28.730     8.790
    31   6 C        2.920    -0.028    28.709     8.787
    32   6 C        2.918    -0.029    28.720     8.788
    33   6 C        3.022    -0.024    28.569     8.768
    34   1 H        0.924     0.054     2.272     2.357
    35   1 H        0.925     0.054     2.268     2.355
    36   1 H        0.925     0.055     2.258     2.350
    37   1 H        0.924     0.054     2.272     2.357
    38   1 H        0.925     0.055     2.258     2.350
    39   1 H        0.925     0.054     2.268     2.355
    40   1 H        0.925     0.029     2.595     2.519
    41   1 H        0.926     0.032     2.552     2.498
    42   1 H        0.926     0.034     2.534     2.489
    43   1 H        0.926     0.033     2.549     2.497
    44   1 H        0.925     0.032     2.552     2.498
    45   1 H        0.926     0.033     2.549     2.497
    46   1 H        0.926     0.034     2.537     2.491
    47   1 H        0.926     0.035     2.519     2.482
    48   1 H        0.926     0.035     2.516     2.481
    49   1 H        0.925     0.039     2.465     2.455
    50   1 H        0.925     0.032     2.552     2.498
    51   1 H        0.926     0.033     2.549     2.497
    52   1 H        0.926     0.034     2.534     2.489
    53   1 H        0.926     0.032     2.552     2.498
    54   1 H        0.925     0.029     2.595     2.519
    55   1 H        0.926     0.033     2.549     2.497
    56   1 H        0.926     0.034     2.537     2.491
    57   1 H        0.926     0.035     2.519     2.482
    58   1 H        0.926     0.035     2.516     2.481
    59   1 H        0.925     0.039     2.465     2.455

molecular dipole:
                 x           y           z       tot (Debye)
 q only:        0.000       0.000      -0.213
   full:        0.000       0.001      -0.325       0.825

 projected vibrational frequencies (cm⁻¹)
eigval :       -0.00     0.00     0.00     0.00     0.00     0.00
eigval :        9.08    15.22    20.17    26.48    28.73    36.83
eigval :       42.36    48.22    50.75    55.52    56.43    65.53
eigval :       94.62   102.55   108.00   121.79   139.02   177.45
eigval :      187.29   188.08   191.27   201.14   224.79   226.29
eigval :      232.50   238.76   260.90   269.30   334.58   356.11
eigval :      360.17   360.23   363.61   363.64   387.61   406.18
eigval :      413.99   425.71   427.45   431.95   459.44   460.58
eigval :      469.41   486.82   488.63   526.40   584.77   585.03
eigval :      585.56   585.85   592.62   654.50   655.53   656.17
eigval :      656.19   680.38   681.16   693.64   694.17   711.56
eigval :      734.57   734.81   739.81   741.62   760.85   843.97
eigval :      871.77   872.20   876.26   876.35   897.08   897.18
eigval :      897.82   898.12   924.00   924.20   927.29   927.33
eigval :      931.11   931.22   932.30   932.32   967.69   967.79
eigval :      968.48   968.90  1024.26  1026.69  1032.60  1051.74
eigval :     1079.27  1079.38  1080.07  1080.13  1107.92  1108.79
eigval :     1114.86  1115.00  1115.70  1115.83  1116.46  1116.47
eigval :     1130.37  1162.94  1177.21  1177.22  1178.20  1178.26
eigval :     1194.55  1194.68  1197.10  1197.78  1261.84  1272.48
eigval :     1272.66  1275.62  1275.75  1313.27  1313.35  1314.60
eigval :     1314.71  1398.69  1398.95  1419.56  1419.75  1420.46
eigval :     1420.53  1449.90  1450.17  1451.10  1451.20  1460.66
eigval :     1460.68  1467.29  1467.34  1541.91  1566.42  1573.98
eigval :     1574.03  1576.26  1576.51  1583.60  1583.78  1585.05
eigval :     1585.33  2981.78  2982.06  3024.58  3025.44  3036.16
eigval :     3036.43  3038.88  3039.04  3050.10  3050.25  3063.03
eigval :     3063.09  3064.23  3064.28  3068.14  3068.23  3070.70
eigval :     3070.71  3072.75  3072.85  3075.03  3075.18  3085.06
eigval :     3085.10  3085.74  3085.94

   temp. (K)  partition function   enthalpy   heat capacity  entropy
                                   cal/mol     cal/K/mol   cal/K/mol   J/K/mol
 298.15  VIB  0.533E+16            18469.504    107.885    118.244
         ROT  0.125E+08              888.752      2.981     35.450
         INT  0.665E+23            19358.257    110.866    153.694
         TR   0.102E+29             1481.254      4.968     44.377
         TOT                       20839.5104   115.8337   198.0714   828.7307

       T/K    H(0)-H(T)+PV         H(T)/Eh          T*S/Eh         G(T)/Eh
   ------------------------------------------------------------------------
    298.15    0.332099E-01    0.486541E+00    0.941101E-01    0.392431E+00
   ------------------------------------------------------------------------

         :::::::::::::::::::::::::::::::::::::::::::::::::::::
         ::                  THERMODYNAMIC                  ::
         :::::::::::::::::::::::::::::::::::::::::::::::::::::
         :: total free energy         -85.374109611086 Eh   ::
         ::.................................................::
         :: total energy              -85.766540645934 Eh   ::
         :: zero point energy           0.453331268827 Eh   ::
         :: G(RRHO) w/o ZPVE           -0.060900233979 Eh   ::
         :: G(RRHO) contrib.            0.392431034848 Eh   ::
         :::::::::::::::::::::::::::::::::::::::::::::::::::::

           -------------------------------------------------
          | TOTAL ENERGY              -85.766540645934 Eh   |
          | TOTAL ENTHALPY            -85.279999503319 Eh   |
          | TOTAL FREE ENERGY         -85.374109611086 Eh   |
          | GRADIENT NORM               0.000163610580 Eh/α |
          | HOMO-LUMO GAP               2.913142965000 eV   |
           -------------------------------------------------

 * finished run on 2025/09/13 at 03:41:35.065
