   * xtb version 6.7.1 (edcfbbe) compiled by 'albert@albert-system' on 2024-07-22

   ID    Z sym.   atoms
    1    6 C      1, 2, 4-6, 8-20, 22-33
    2   16 S      3
    3   15 P      7, 21
    4    1 H      34-59

          program call               : xtb data2507/toluene/dpmt/dpmt_toluene_S0_crest.xyz --gfn 2 --gbsa toluene --ohess vtight --parallel 40 --molden --ceasefiles --namespace data2507/toluene/dpmt/dpmt_toluene_S0_finalOpt
      * Solvation model:               GBSA
        Solvent                        toluene
        Solvent mass                       9.2140E+01 g/mol
          :  Hamiltonian                  GFN2-xTB          :
 * total energy  :   -85.7670348 Eh     change       -0.1325148E-08 Eh
 * total energy  :   -85.7670795 Eh     change       -0.4467182E-04 Eh
 * total energy  :   -85.7671276 Eh     change       -0.4811211E-04 Eh
 * total energy  :   -85.7671614 Eh     change       -0.3382564E-04 Eh
 * total energy  :   -85.7672077 Eh     change       -0.4624929E-04 Eh
 * total energy  :   -85.7672397 Eh     change       -0.3196719E-04 Eh
 * total energy  :   -85.7672567 Eh     change       -0.1700631E-04 Eh
 * total energy  :   -85.7672635 Eh     change       -0.6796671E-05 Eh
 * total energy  :   -85.7672674 Eh     change       -0.3920281E-05 Eh
 * total energy  :   -85.7672722 Eh     change       -0.4793321E-05 Eh
 * total energy  :   -85.7672985 Eh     change       -0.8030760E-06 Eh
 * total energy  :   -85.7672989 Eh     change       -0.3327659E-06 Eh
 * total energy  :   -85.7672996 Eh     change       -0.6867664E-06 Eh
 * total energy  :   -85.7672996 Eh     change       -0.5726315E-07 Eh
 * total energy  :   -85.7672999 Eh     change       -0.2675080E-06 Eh
 * total energy  :   -85.7673002 Eh     change       -0.3205293E-06 Eh
 * total energy  :   -85.7673005 Eh     change       -0.2621924E-06 Eh
 * total energy  :   -85.7673007 Eh     change       -0.2141789E-06 Eh
 * total energy  :   -85.7673007 Eh     change       -0.1095090E-07 Eh
   *** GEOMETRY OPTIMIZATION CONVERGED AFTER 29 ITERATIONS ***

 final structure:
================
59
 xtb: 6.7.1 (edcfbbe)
C           -2.44962570742189        1.73610811390281       -2.12393998090876
C           -1.03899686351937        1.59740634743247       -1.67520586636269
S            0.24487456488095        2.27674536179672       -2.63903531293729
C            1.47942628803160        1.71327421539241       -1.53241240663356
C            2.90078284131326        2.00847325284301       -1.86409459734430
C            0.90725233401440        1.06136007465642       -0.48536482287373
P            1.52671845919172        0.24152864967734        1.02155401456151
C            3.33923251665040        0.51894067677889        0.93004330811879
C            4.28082215734369       -0.48400521525777        0.73012887133989
C            5.63249890372225       -0.18947076259629        0.78976185568181
C            6.05724570115870        1.09900859073345        1.06705726473202
C            5.12414334790059        2.09832284460950        1.29856684331973
C            3.77562204404433        1.80598524118675        1.24278161016071
C            1.38863545154056       -1.48653835920746        0.42020538359131
C            1.68559349703079       -1.85366185386561       -0.88787531163814
C            1.52987597754076       -3.16682247870364       -1.29116722419710
C            1.07384516214294       -4.12135343411936       -0.39595155511336
C            0.77697324679221       -3.76196668703851        0.90776904641377
C            0.93212699677551       -2.44873759587186        1.31349279400736
C           -0.52549617128108        0.99782240082187       -0.56727202088198
P           -1.32376930366475        0.13658831070762        0.81771200119637
C           -1.94232363959565       -1.39419776372353        0.02968740104968
C           -1.71489259331209       -1.73835118807727       -1.29616950239771
C           -2.16309424673102       -2.95294392816360       -1.78489061270177
C           -2.83369743631576       -3.83630946348235       -0.95644153109700
C           -3.04553268366357       -3.50909991986033        0.37371110169903
C           -2.59242427955738       -2.30045976191581        0.86585037507897
C           -2.85794182495059        1.13203934501274        0.97873697014173
C           -2.67284152549851        2.48011474309675        1.28202679910825
C           -3.75754572876264        3.30893221374557        1.49333994171323
C           -5.04367102093206        2.79650318799676        1.42178583435005
C           -5.23433655853031        1.45417975232532        1.14009440030897
C           -4.14950428576579        0.62167187694085        0.92471237633081
H           -2.87279340698467        2.67912540734634       -1.77371971035399
H           -3.05092511585672        0.92309336761562       -1.72265818821504
H           -2.50518757173153        1.72170851325681       -3.21109769761010
H            3.24967397039993        2.88895206918799       -1.32257106598668
H            3.54281882449793        1.17333732970941       -1.59307084461568
H            3.00016837232446        2.20341980128452       -2.93028979637112
H            3.95830044175632       -1.49465012039886        0.52118683612026
H            6.35764890928737       -0.97366741158860        0.62284003057269
H            7.11312274833357        1.32307861691050        1.11260818917269
H            5.45176786461237        3.10193297865764        1.53035266377288
H            3.03881527437611        2.57668113095072        1.43378894898927
H            2.03805997047098       -1.10827020305250       -1.58831488447466
H            1.76140423884881       -3.44694585246753       -2.30925656135771
H            0.94707380781278       -5.14508001857530       -0.71702578375000
H            0.41883543260949       -4.50448925991639        1.60624431898147
H            0.69760417580039       -2.15545519235791        2.32837515274656
H           -1.18370665530676       -1.05978844696171       -1.94802023738960
H           -1.98543320212570       -3.21037616962074       -2.81942593981607
H           -3.18285239365827       -4.78268534511355       -1.34317911067024
H           -3.55687625383612       -4.20115511204951        1.02772254981483
H           -2.73621290523517       -2.04579271383774        1.90861907009188
H           -1.66541550732745        2.87266821461350        1.34557973565001
H           -3.60197984795611        4.35439858975104        1.71936180933681
H           -5.89389056913100        3.44157940924967        1.58927968913715
H           -6.23536725494244        1.04986996005851        1.08725919534133
H           -4.31117515921132       -0.42331133132266        0.70099532337442

          :  Hamiltonian                  GFN2-xTB          :
         :: gradient norm              0.000130637327 Eh/a0 ::
         :: HOMO-LUMO gap              2.869698557868 eV    ::
         :: SCC energy               -87.286046970457 Eh    ::
         :: -> dispersion             -0.095342378969 Eh    ::
         :: -> Gsolv                  -0.033278464784 Eh    ::
         :: repulsion energy           1.518746269532 Eh    ::

    * Orbital Energies and Occupations

         #    Occupation            Energy/Eh            Energy/eV
      -------------------------------------------------------------
         1        2.0000           -0.7294229             -19.8486
       ...           ...                  ...                  ...
        69        2.0000           -0.4132431             -11.2449
        70        2.0000           -0.4115978             -11.2001
        71        2.0000           -0.4104650             -11.1693
        72        2.0000           -0.4086936             -11.1211
        73        2.0000           -0.4069633             -11.0740
        74        2.0000           -0.4062524             -11.0547
        75        2.0000           -0.4048683             -11.0170
        76        2.0000           -0.4013751             -10.9220
        77        2.0000           -0.3996260             -10.8744
        78        2.0000           -0.3942024             -10.7268
        79        2.0000           -0.3805529             -10.3554
        80        2.0000           -0.3760089             -10.2317
        81        2.0000           -0.3577200              -9.7341 (HOMO)
        82                         -0.2522605              -6.8644 (LUMO)
        83                         -0.2424002              -6.5960
        84                         -0.2377507              -6.4695
        85                         -0.2341252              -6.3709
        86                         -0.2310028              -6.2859
        87                         -0.2280346              -6.2051
        88                         -0.2256955              -6.1415
        89                         -0.2253630              -6.1324
        90                         -0.2242515              -6.1022
        91                         -0.2124863              -5.7820
        92                         -0.2001117              -5.4453
       ...                                ...                  ...
       173                          1.1388162              30.9888
      -------------------------------------------------------------
                  HL-Gap            0.1054595 Eh            2.8697 eV

     #   Z          covCN         q      C6AA      α(0)
     1   6 C        3.777    -0.098    22.397     6.743
     2   6 C        2.996     0.026    27.418     8.589
     3  16 S        2.368    -0.091   144.869    20.258
     4   6 C        2.988     0.021    27.533     8.607
     5   6 C        3.781    -0.097    22.376     6.739
     6   6 C        3.209    -0.006    27.548     8.546
     7  15 P        3.818    -0.147   166.950    23.210
     8   6 C        2.916     0.019    27.574     8.611
     9   6 C        2.960    -0.030    28.737     8.793
    10   6 C        2.919    -0.030    28.749     8.793
    11   6 C        2.920    -0.030    28.755     8.794
    12   6 C        2.917    -0.030    28.742     8.791
    13   6 C        3.025    -0.025    28.607     8.773
    14   6 C        2.919     0.028    27.383     8.581
    15   6 C        2.970    -0.024    28.604     8.773
    16   6 C        2.919    -0.030    28.744     8.792
    17   6 C        2.920    -0.028    28.706     8.786
    18   6 C        2.918    -0.029    28.724     8.789
    19   6 C        3.009    -0.023    28.574     8.768
    20   6 C        3.254    -0.007    27.100     8.420
    21  15 P        3.806    -0.125   165.892    23.137
    22   6 C        2.917     0.021    27.542     8.606
    23   6 C        2.964    -0.027    28.669     8.782
    24   6 C        2.920    -0.029    28.731     8.790
    25   6 C        2.920    -0.030    28.741     8.791
    26   6 C        2.918    -0.030    28.749     8.792
    27   6 C        3.025    -0.026    28.622     8.776
    28   6 C        2.916     0.021    27.544     8.606
    29   6 C        3.028    -0.025    28.598     8.772
    30   6 C        2.918    -0.029    28.734     8.790
    31   6 C        2.920    -0.030    28.759     8.794
    32   6 C        2.919    -0.029    28.729     8.790
    33   6 C        2.957    -0.031    28.764     8.797
    34   1 H        0.924     0.054     2.268     2.355
    35   1 H        0.925     0.058     2.223     2.332
    36   1 H        0.925     0.055     2.255     2.348
    37   1 H        0.924     0.054     2.274     2.358
    38   1 H        0.925     0.053     2.280     2.361
    39   1 H        0.925     0.053     2.284     2.363
    40   1 H        0.925     0.029     2.595     2.519
    41   1 H        0.926     0.031     2.572     2.508
    42   1 H        0.926     0.033     2.545     2.495
    43   1 H        0.926     0.033     2.548     2.496
    44   1 H        0.925     0.035     2.521     2.483
    45   1 H        0.925     0.033     2.544     2.494
    46   1 H        0.926     0.033     2.543     2.494
    47   1 H        0.926     0.033     2.537     2.491
    48   1 H        0.926     0.033     2.540     2.492
    49   1 H        0.925     0.042     2.421     2.433
    50   1 H        0.926     0.030     2.584     2.514
    51   1 H        0.926     0.033     2.545     2.495
    52   1 H        0.926     0.035     2.520     2.482
    53   1 H        0.926     0.035     2.516     2.480
    54   1 H        0.925     0.038     2.474     2.460
    55   1 H        0.925     0.034     2.531     2.488
    56   1 H        0.926     0.033     2.540     2.492
    57   1 H        0.926     0.034     2.530     2.487
    58   1 H        0.926     0.034     2.533     2.489
    59   1 H        0.926     0.034     2.527     2.486

molecular dipole:
                 x           y           z       tot (Debye)
 q only:       -0.258      -0.222      -0.488
   full:       -0.244      -0.375      -0.745       2.209

 projected vibrational frequencies (cm⁻¹)
eigval :       -0.00    -0.00    -0.00     0.00     0.00     0.00
eigval :       21.38    23.75    28.79    35.76    39.02    44.48
eigval :       48.77    51.52    58.05    63.92    66.07    78.02
eigval :       95.29   112.56   113.78   118.94   146.27   177.07
eigval :      184.09   188.99   193.60   201.67   214.60   228.22
eigval :      236.06   243.78   256.06   292.29   330.22   350.23
eigval :      361.68   362.88   365.85   368.84   390.87   405.02
eigval :      409.98   420.53   431.07   431.46   456.33   459.25
eigval :      473.89   485.45   491.52   526.82   584.85   585.18
eigval :      585.72   586.81   590.71   654.98   655.53   655.80
eigval :      657.18   679.69   681.32   693.23   694.30   713.13
eigval :      735.84   738.30   741.71   742.25   763.31   847.96
eigval :      873.41   874.63   876.00   877.86   895.16   896.58
eigval :      900.24   901.06   925.15   926.27   927.48   929.11
eigval :      931.09   931.96   932.99   933.51   966.70   967.98
eigval :      968.06   968.91  1023.48  1026.40  1029.91  1050.27
eigval :     1079.56  1080.26  1080.89  1081.24  1106.59  1108.54
eigval :     1113.38  1113.94  1116.38  1116.80  1117.46  1118.64
eigval :     1130.07  1164.77  1178.83  1178.93  1179.21  1180.70
eigval :     1192.36  1196.00  1197.17  1199.08  1264.37  1272.34
eigval :     1272.67  1275.86  1277.00  1314.10  1314.56  1316.57
eigval :     1316.95  1397.72  1401.39  1419.07  1419.16  1421.90
eigval :     1423.43  1449.95  1450.14  1451.52  1452.12  1458.14
eigval :     1461.95  1464.80  1471.16  1530.80  1559.96  1573.91
eigval :     1574.29  1576.90  1578.45  1583.54  1584.44  1586.38
eigval :     1586.72  2981.15  2986.30  3022.76  3027.78  3032.31
eigval :     3032.91  3040.43  3042.42  3044.01  3054.59  3058.84
eigval :     3062.04  3065.60  3066.57  3067.94  3068.84  3069.47
eigval :     3070.85  3072.12  3074.18  3075.37  3077.64  3084.72
eigval :     3086.03  3086.23  3087.04

   temp. (K)  partition function   enthalpy   heat capacity  entropy
                                   cal/mol     cal/K/mol   cal/K/mol   J/K/mol
 298.15  VIB  0.220E+15            18286.940    109.074    115.726
         ROT  0.236E+08              888.752      2.981     36.718
         INT  0.520E+22            19175.692    112.055    152.443
         TR   0.102E+29             1481.254      4.968     44.377
         TOT                       20656.9464   117.0234   196.8202   823.4958

       T/K    H(0)-H(T)+PV         H(T)/Eh          T*S/Eh         G(T)/Eh
   ------------------------------------------------------------------------
    298.15    0.329189E-01    0.486680E+00    0.935156E-01    0.393164E+00
   ------------------------------------------------------------------------

         :::::::::::::::::::::::::::::::::::::::::::::::::::::
         ::                  THERMODYNAMIC                  ::
         :::::::::::::::::::::::::::::::::::::::::::::::::::::
         :: total free energy         -85.374136807770 Eh   ::
         ::.................................................::
         :: total energy              -85.767300697382 Eh   ::
         :: zero point energy           0.453760583802 Eh   ::
         :: G(RRHO) w/o ZPVE           -0.060596694190 Eh   ::
         :: G(RRHO) contrib.            0.393163889612 Eh   ::
         :::::::::::::::::::::::::::::::::::::::::::::::::::::

           -------------------------------------------------
          | TOTAL ENERGY              -85.767300697382 Eh   |
          | TOTAL ENTHALPY            -85.280621174123 Eh   |
          | TOTAL FREE ENERGY         -85.374136807770 Eh   |
          | GRADIENT NORM               0.000130657060 Eh/α |
          | HOMO-LUMO GAP               2.869698265591 eV   |
           -------------------------------------------------

 * finished run on 2025/09/13 at 03:43:40.581
