   * xtb version 6.7.1 (edcfbbe) compiled by 'albert@albert-system' on 2024-07-22

   ID    Z sym.   atoms
    1    6 C      1, 2, 4-6, 8-20, 22-33
    2   16 S      3
    3   15 P      7, 21
    4    1 H      34-59

          program call               : xtb data2507/toluene/dpmt/dpmt_toluene_S0_finalOpt.xtbopt.xyz --gfn 2 --uhf 2 --gbsa toluene --ohess vtight --parallel 40 --molden --ceasefiles --namespace data2507/toluene/dpmt/dpmt_toluene_T1_preOpt
      * Solvation model:               GBSA
        Solvent                        toluene
        Solvent mass                       9.2140E+01 g/mol
          :  Hamiltonian                  GFN2-xTB          :
 * total energy  :   -85.6551555 Eh     change       -0.7594991E-09 Eh
 * total energy  :   -85.6622386 Eh     change       -0.7083177E-02 Eh
 * total energy  :   -85.6643539 Eh     change       -0.2115214E-02 Eh
 * total energy  :   -85.6651650 Eh     change       -0.8110925E-03 Eh
 * total energy  :   -85.6661819 Eh     change       -0.1016949E-02 Eh
 * total energy  :   -85.6667888 Eh     change       -0.6069341E-03 Eh
 * total energy  :   -85.6672459 Eh     change       -0.4570316E-03 Eh
 * total energy  :   -85.6676880 Eh     change       -0.4421268E-03 Eh
 * total energy  :   -85.6681518 Eh     change       -0.4638230E-03 Eh
 * total energy  :   -85.6686368 Eh     change       -0.4850035E-03 Eh
 * total energy  :   -85.6724553 Eh     change       -0.6321067E-06 Eh
 * total energy  :   -85.6724561 Eh     change       -0.7629067E-06 Eh
 * total energy  :   -85.6724568 Eh     change       -0.7480373E-06 Eh
 * total energy  :   -85.6724573 Eh     change       -0.5011763E-06 Eh
 * total energy  :   -85.6724576 Eh     change       -0.2514209E-06 Eh
 * total energy  :   -85.6724577 Eh     change       -0.1686982E-06 Eh
 * total energy  :   -85.6724579 Eh     change       -0.1230710E-06 Eh
 * total energy  :   -85.6724578 Eh     change        0.3628504E-07 Eh
 * total energy  :   -85.6724579 Eh     change       -0.9261905E-07 Eh
   *** GEOMETRY OPTIMIZATION CONVERGED AFTER 55 ITERATIONS ***

 final structure:
================
59
 xtb: 6.7.1 (edcfbbe)
C           -2.38834657474604        2.26671749241094       -2.36842083160897
C           -1.00802001115874        1.87313251364850       -1.98960595774585
S            0.35043094107429        2.26483202323502       -3.05339439905436
C            1.51975303517076        1.51710528972515       -1.95609709628313
C            2.96518759456997        1.51610187954739       -2.29426113336603
C            0.86768988143006        1.02026420758726       -0.86266067354756
P            1.28815459916370        0.00206152392667        0.54663091648227
C            2.99206616713544        0.47725785753065        1.01141978079289
C            3.94431560393633       -0.46793312447216        1.39334530743385
C            5.18169458306524       -0.04989276725396        1.84439590210528
C            5.46766357391678        1.30329021715793        1.95319056266756
C            4.50639448778711        2.24669930442244        1.61244462987433
C            3.26735601882743        1.83773992086368        1.16575477909705
C            1.38453900794180       -1.72661292454315        0.02122030413626
C            1.46367305406900       -2.06851127710355       -1.33305907017144
C            1.39440394643453       -3.39110881650171       -1.71386136017491
C            1.22980259051103       -4.39094968423517       -0.76283675681001
C            1.13388449033013       -4.05600227714273        0.58217468677491
C            1.19739306496856       -2.73683805356666        0.97373524721616
C           -0.54753390467776        1.21987388171318       -0.88102953536196
P           -1.26779492755637        0.36809874129669        0.51796684211892
C           -1.84134882118516       -1.26515918173151       -0.00814483898903
C           -2.01374235335822       -1.56860197613660       -1.36294162443710
C           -2.31929011100099       -2.85665795110152       -1.74596840936256
C           -2.44213266133810       -3.86398730192604       -0.79665535279164
C           -2.25429206442640       -3.57202050862754        0.54872912927253
C           -1.94465105243811       -2.28890870578349        0.94258233546512
C           -2.77600529293411        1.30989119732538        0.94704413297061
C           -2.65927646064107        2.69393161517146        1.09329452781560
C           -3.74023411577828        3.43849087451306        1.51682603389962
C           -4.93428852215216        2.80679461388496        1.84125910907255
C           -5.03979424903371        1.42717466328204        1.73989841093910
C           -3.96268318311301        0.67428418087823        1.31309590429389
H           -2.54046520445706        3.34019437001944       -2.23621320133462
H           -3.10516110835941        1.73775334614184       -1.74182472185596
H           -2.58204069153244        2.03113215808169       -3.41540921754246
H            3.40415813477361        2.50463262755772       -2.14194775455831
H            3.48989910676486        0.80499680614418       -1.65760749642664
H            3.11587116633559        1.24377482909452       -3.33925320959577
H            3.71959336027926       -1.52127901472568        1.29832762187959
H            5.92828336356416       -0.78279369708422        2.11537208873020
H            6.43403941198145        1.62377590278058        2.31314386072538
H            4.72697166669746        3.30046003097514        1.70460078588460
H            2.50593599255628        2.56057997826127        0.90203999770190
H            1.58528285962322       -1.28941301402042       -2.07282891417371
H            1.46647937802286       -3.65078011083332       -2.76077161923331
H            1.17238418868824       -5.42473170882858       -1.06914645197400
H            1.00466000623881       -4.83250542995218        1.32273839136049
H            1.11898185879706       -2.46649254130810        2.01877837347469
H           -1.91172839316491       -0.78534581829884       -2.10114636299690
H           -2.46208571392058       -3.08350939481951       -2.79323981262016
H           -2.67835350246087       -4.87156972797680       -1.10449012460051
H           -2.34797493421904       -4.35503660978214        1.28774311232491
H           -1.79308813895389       -2.05369349128709        1.98797388554206
H           -1.72051868004913        3.17123677985728        0.84250574690470
H           -3.65644311153911        4.51232152201963        1.60337682726539
H           -5.77707840415006        3.38921637866365        2.18283260917057
H           -5.96737034439279        0.93630732539556        1.99817962229484
H           -4.04180193301091       -0.40051959119639        1.22499688356162

          :  Hamiltonian                  GFN2-xTB          :
         :: gradient norm              0.000061731472 Eh/a0 ::
         :: HOMO-LUMO gap              0.434272910729 eV    ::
         :: SCC energy               -87.186104007168 Eh    ::
         :: -> dispersion             -0.093403428806 Eh    ::
         :: -> Gsolv                  -0.034144890665 Eh    ::
         :: repulsion energy           1.513646088286 Eh    ::

    * Orbital Energies and Occupations

         #    Occupation            Energy/Eh            Energy/eV
      -------------------------------------------------------------
         1        2.0000           -0.7180351             -19.5387
       ...           ...                  ...                  ...
        70        2.0000           -0.4171401             -11.3510
        71        2.0000           -0.4138380             -11.2611
        72        2.0000           -0.4117584             -11.2045
        73        2.0000           -0.4116820             -11.2024
        74        2.0000           -0.4113341             -11.1930
        75        2.0000           -0.4029615             -10.9651
        76        2.0000           -0.4006679             -10.9027
        77        2.0000           -0.3969341             -10.8011
        78        2.0000           -0.3963901             -10.7863
        79        2.0000           -0.3820993             -10.3975
        80        2.0000           -0.3754366             -10.2161
        81        1.0000           -0.3417928              -9.3007
        82        0.9998           -0.2605699              -7.0905 (HOMO)
        83        0.0002           -0.2446107              -6.6562 (LUMO)
        84        0.0000           -0.2374209              -6.4606
        85                         -0.2357453              -6.4150
        86                         -0.2311486              -6.2899
        87                         -0.2300015              -6.2587
        88                         -0.2292688              -6.2387
        89                         -0.2276222              -6.1939
        90                         -0.2179896              -5.9318
        91                         -0.2066284              -5.6226
        92                         -0.1998045              -5.4370
        93                         -0.1766290              -4.8063
       ...                                ...                  ...
       173                          1.4962876              40.7161
      -------------------------------------------------------------
                  HL-Gap            0.0159592 Eh            0.4343 eV

     #   Z          covCN         q      C6AA      α(0)
     1   6 C        3.770    -0.093    22.313     6.731
     2   6 C        2.984     0.011    27.752     8.641
     3  16 S        2.314    -0.147   147.267    20.425
     4   6 C        2.984     0.012    27.750     8.641
     5   6 C        3.770    -0.093    22.315     6.732
     6   6 C        3.316    -0.010    26.177     8.154
     7  15 P        4.213    -0.085   164.053    23.008
     8   6 C        2.918     0.019    27.585     8.613
     9   6 C        2.972    -0.027    28.670     8.783
    10   6 C        2.918    -0.027    28.669     8.780
    11   6 C        2.920    -0.028    28.709     8.786
    12   6 C        2.917    -0.027    28.676     8.781
    13   6 C        3.007    -0.022    28.549     8.765
    14   6 C        2.917     0.017    27.640     8.621
    15   6 C        2.985    -0.028    28.693     8.787
    16   6 C        2.918    -0.030    28.749     8.793
    17   6 C        2.919    -0.037    28.917     8.818
    18   6 C        2.917    -0.030    28.747     8.792
    19   6 C        3.003    -0.028    28.683     8.785
    20   6 C        3.316    -0.010    26.186     8.157
    21  15 P        4.212    -0.085   164.072    23.009
    22   6 C        2.917     0.017    27.641     8.621
    23   6 C        2.985    -0.028    28.700     8.788
    24   6 C        2.918    -0.030    28.750     8.793
    25   6 C        2.919    -0.037    28.920     8.819
    26   6 C        2.917    -0.030    28.749     8.792
    27   6 C        3.002    -0.028    28.683     8.785
    28   6 C        2.918     0.019    27.587     8.613
    29   6 C        3.006    -0.022    28.550     8.765
    30   6 C        2.917    -0.027    28.676     8.781
    31   6 C        2.920    -0.028    28.709     8.786
    32   6 C        2.918    -0.027    28.670     8.780
    33   6 C        2.973    -0.027    28.668     8.783
    34   1 H        0.924     0.050     2.319     2.381
    35   1 H        0.925     0.050     2.321     2.383
    36   1 H        0.924     0.049     2.336     2.390
    37   1 H        0.924     0.050     2.318     2.381
    38   1 H        0.925     0.050     2.321     2.382
    39   1 H        0.924     0.049     2.335     2.389
    40   1 H        0.925     0.039     2.466     2.456
    41   1 H        0.926     0.039     2.468     2.457
    42   1 H        0.926     0.039     2.457     2.451
    43   1 H        0.926     0.039     2.458     2.452
    44   1 H        0.925     0.042     2.428     2.437
    45   1 H        0.925     0.029     2.595     2.519
    46   1 H        0.926     0.030     2.587     2.515
    47   1 H        0.926     0.029     2.594     2.519
    48   1 H        0.926     0.031     2.566     2.505
    49   1 H        0.925     0.034     2.536     2.490
    50   1 H        0.926     0.030     2.590     2.517
    51   1 H        0.926     0.030     2.587     2.515
    52   1 H        0.926     0.029     2.595     2.519
    53   1 H        0.926     0.031     2.569     2.506
    54   1 H        0.925     0.034     2.537     2.491
    55   1 H        0.925     0.041     2.429     2.437
    56   1 H        0.926     0.039     2.459     2.452
    57   1 H        0.926     0.039     2.458     2.452
    58   1 H        0.926     0.039     2.468     2.457
    59   1 H        0.925     0.039     2.468     2.457

molecular dipole:
                 x           y           z       tot (Debye)
 q only:        0.022       0.149       0.610
   full:       -0.006      -0.044       0.573       1.461

 projected vibrational frequencies (cm⁻¹)
eigval :       -0.00    -0.00    -0.00    -0.00     0.00     0.00
eigval :       23.19    24.78    27.23    35.28    37.66    41.54
eigval :       45.44    50.53    52.74    54.92    57.47    70.20
eigval :       89.59   110.77   121.52   130.75   139.98   161.86
eigval :      163.89   172.12   181.01   188.34   208.78   218.29
eigval :      222.36   235.36   243.02   266.91   285.01   298.68
eigval :      357.84   358.74   362.66   365.91   370.63   390.40
eigval :      398.49   403.05   406.97   424.99   429.45   435.28
eigval :      439.40   458.95   460.65   516.39   534.16   580.14
eigval :      580.60   581.94   583.37   632.96   635.76   637.32
eigval :      640.84   669.10   669.68   686.35   689.09   693.95
eigval :      718.99   724.33   728.07   729.23   743.15   845.95
eigval :      857.47   861.19   862.45   863.31   870.48   875.40
eigval :      884.84   885.74   915.27   916.03   916.90   917.83
eigval :      918.58   920.30   922.79   923.21   961.14   961.50
eigval :      962.08   962.96  1022.55  1025.10  1027.89  1042.15
eigval :     1052.99  1059.37  1066.48  1070.71  1071.57  1072.05
eigval :     1077.41  1083.24  1109.94  1111.29  1112.26  1113.59
eigval :     1131.61  1150.88  1173.87  1175.17  1175.45  1176.36
eigval :     1185.82  1186.91  1190.49  1194.17  1263.82  1264.24
eigval :     1267.58  1268.28  1282.67  1320.59  1320.79  1324.62
eigval :     1326.71  1396.32  1396.79  1411.31  1414.74  1415.18
eigval :     1415.39  1426.99  1428.36  1429.70  1430.76  1454.46
eigval :     1455.90  1465.87  1468.90  1500.31  1511.76  1518.39
eigval :     1521.43  1542.57  1544.03  1545.84  1547.29  1555.71
eigval :     1571.68  2961.38  2962.12  2996.81  2998.50  3016.08
eigval :     3016.30  3047.01  3047.27  3047.53  3049.44  3060.46
eigval :     3061.46  3061.67  3063.65  3068.83  3070.15  3071.16
eigval :     3071.68  3072.52  3072.77  3074.83  3075.62  3087.62
eigval :     3088.90  3089.09  3089.90

   temp. (K)  partition function   enthalpy   heat capacity  entropy
                                   cal/mol     cal/K/mol   cal/K/mol   J/K/mol
 298.15  VIB  0.849E+15            18834.057    110.742    119.331
         ROT  0.240E+08              888.752      2.981     36.750
         INT  0.203E+23            19722.809    113.723    156.080
         TR   0.102E+29             1481.254      4.968     44.377
         TOT                       21204.0633   118.6908   200.4571   838.7126

       T/K    H(0)-H(T)+PV         H(T)/Eh          T*S/Eh         G(T)/Eh
   ------------------------------------------------------------------------
    298.15    0.337908E-01    0.483033E+00    0.952437E-01    0.387789E+00
   ------------------------------------------------------------------------

         :::::::::::::::::::::::::::::::::::::::::::::::::::::
         ::                  THERMODYNAMIC                  ::
         :::::::::::::::::::::::::::::::::::::::::::::::::::::
         :: total free energy         -85.284668637098 Eh   ::
         ::.................................................::
         :: total energy              -85.672457918411 Eh   ::
         :: zero point energy           0.449242106243 Eh   ::
         :: G(RRHO) w/o ZPVE           -0.061452824930 Eh   ::
         :: G(RRHO) contrib.            0.387789281313 Eh   ::
         :::::::::::::::::::::::::::::::::::::::::::::::::::::

           -------------------------------------------------
          | TOTAL ENERGY              -85.672457918411 Eh   |
          | TOTAL ENTHALPY            -85.189424986391 Eh   |
          | TOTAL FREE ENERGY         -85.284668637098 Eh   |
          | GRADIENT NORM               0.000061564801 Eh/α |
          | HOMO-LUMO GAP               0.434272584770 eV   |
           -------------------------------------------------

 * finished run on 2025/09/13 at 03:43:46.428
