   * xtb version 6.7.1 (edcfbbe) compiled by 'albert@albert-system' on 2024-07-22

   ID    Z sym.   atoms
    1    6 C      1, 2, 4-6, 8-20, 22-33
    2   16 S      3
    3   15 P      7, 21
    4    1 H      34-59

          program call               : xtb data2507/toluene/dpmt/dpmt_toluene_T1_crest.xyz --gfn 2 --uhf 2 --gbsa toluene --ohess vtight --parallel 40 --molden --ceasefiles --namespace data2507/toluene/dpmt/dpmt_toluene_T1_finalOpt
      * Solvation model:               GBSA
        Solvent                        toluene
        Solvent mass                       9.2140E+01 g/mol
          :  Hamiltonian                  GFN2-xTB          :
 * total energy  :   -85.6722014 Eh     change       -0.1410044E-08 Eh
 * total energy  :   -85.6722500 Eh     change       -0.4858153E-04 Eh
 * total energy  :   -85.6722876 Eh     change       -0.3761975E-04 Eh
 * total energy  :   -85.6723059 Eh     change       -0.1836267E-04 Eh
 * total energy  :   -85.6723301 Eh     change       -0.2412148E-04 Eh
 * total energy  :   -85.6723463 Eh     change       -0.1620004E-04 Eh
 * total energy  :   -85.6723619 Eh     change       -0.1563319E-04 Eh
 * total energy  :   -85.6723708 Eh     change       -0.8857092E-05 Eh
 * total energy  :   -85.6723748 Eh     change       -0.4035970E-05 Eh
 * total energy  :   -85.6723793 Eh     change       -0.4489246E-05 Eh
 * total energy  :   -85.6724019 Eh     change       -0.9220865E-06 Eh
 * total energy  :   -85.6724026 Eh     change       -0.7366308E-06 Eh
 * total energy  :   -85.6724031 Eh     change       -0.4806096E-06 Eh
 * total energy  :   -85.6724033 Eh     change       -0.1961913E-06 Eh
 * total energy  :   -85.6724036 Eh     change       -0.3246688E-06 Eh
 * total energy  :   -85.6724040 Eh     change       -0.3807378E-06 Eh
 * total energy  :   -85.6724043 Eh     change       -0.3010176E-06 Eh
 * total energy  :   -85.6724044 Eh     change       -0.1641707E-06 Eh
 * total energy  :   -85.6724045 Eh     change       -0.7177121E-07 Eh
   *** GEOMETRY OPTIMIZATION CONVERGED AFTER 27 ITERATIONS ***

 final structure:
================
59
 xtb: 6.7.1 (edcfbbe)
C           -2.69971387265230        1.84549402108553       -2.31208449146406
C           -1.27408707180941        1.65392043703802       -1.94545143424164
S            0.00311926572264        2.19092581966841       -3.04531025620855
C            1.27867022462735        1.65123270434254       -1.94480923194893
C            2.70488524048793        1.84002326926772       -2.31066989926535
C            0.71610426246643        1.10579766569414       -0.82498169456403
P            1.29239936992487        0.20415081472581        0.60895703220874
C            2.92009794812592        0.92765617711151        1.02604976782320
C            4.00383349023549        0.13597735811777        1.40618830912756
C            5.17991248805458        0.73522142491385        1.81481634404957
C            5.27460493572706        2.11748551440603        1.88555526343615
C            4.18263985642507        2.90727572022680        1.54813912060016
C            3.00418418273439        2.31687873061762        1.14179215351308
C            1.62627049498448       -1.51011052423927        0.13618413853080
C            1.75802054110921       -1.87720422999214       -1.20741696207315
C            1.87378091163322       -3.20725587570287       -1.54896544628067
C            1.84562387289551       -4.19196555993971       -0.56882382974238
C            1.69852408974568       -3.83421499583743        0.76568979744045
C            1.57744758268622       -2.50813591941291        1.11813147806193
C           -0.71328161593648        1.10743891718777       -0.82523865074767
P           -1.29254651613999        0.20734568914286        0.60838523615649
C           -1.63124720799753       -1.50609561669491        0.13622924154635
C           -1.75954055035895       -1.87469171706025       -1.20727931550119
C           -1.87912751212696       -3.20481968612460       -1.54725299448891
C           -1.85811933645958       -4.18818274579008       -0.56556662788995
C           -1.71428413118247       -3.82902378636993        0.76891112898722
C           -1.58949898006697       -2.50285686188646        1.11980128561214
C           -2.91792954828482        0.93570873257192        1.02586858514932
C           -2.99681059943092        2.32511934819230        1.14339192597330
C           -4.17276127373166        2.91945204466150        1.55118675691492
C           -5.26750162817285        2.13334072978487        1.88824858019418
C           -5.17806311398606        0.75081555842246        1.81557139087656
C           -4.00452181720944        0.14762565612689        1.40545910421213
H           -2.87132461313303        1.56013407087201       -3.35038750660544
H           -2.99493298260197        2.89134622651049       -2.20212194161895
H           -3.33047078844166        1.23957568796992       -1.66314190469430
H            3.00199126455241        2.88536175920207       -2.20086324090782
H            3.33417239216941        1.23314350410004       -1.66120494777200
H            2.87654905709289        1.55401194821521       -3.34878305953220
H            3.92746348988541       -0.94072152844823        1.34241688442660
H            6.02797658124792        0.12151984372058        2.08325469920671
H            6.19455530350172        2.57949311937496        2.21192249623039
H            4.25434675696838        3.98365149251569        1.61066901249967
H            2.14299444760935        2.91859413311257        0.88058194958405
H            1.77352636926713       -1.11076260534871       -1.96984276663722
H            1.98527392225404       -3.48482342861504       -2.58781015876557
H            1.93313257227333       -5.23225848528619       -0.84446749791345
H            1.67462492707712       -4.59908151932982        1.52890267150334
H            1.45857320925071       -2.22081832505358        2.15472908587279
H           -1.76917420215388       -1.10935710435788       -1.97092770847410
H           -1.98796517116843       -3.48355344767471       -2.58606732615830
H           -1.94878200422550       -5.22853609903807       -0.83996826542764
H           -1.69628633154953       -4.59280497890163        1.53337772996932
H           -1.47327068531725       -2.21441606259983        2.15639377389569
H           -2.13339097505087        2.92388248365809        0.88271295017785
H           -4.24028559042103        3.99599994820055        1.61534363704331
H           -6.18546958001051        2.59839052030326        2.21588599876243
H           -6.02840513522989        0.13999695749550        2.08338884979259
H           -3.93250300638663       -0.92926849974916        1.33991793045300

          :  Hamiltonian                  GFN2-xTB          :
         :: gradient norm              0.000078632871 Eh/a0 ::
         :: HOMO-LUMO gap              0.433092865576 eV    ::
         :: SCC energy               -87.185976975319 Eh    ::
         :: -> dispersion             -0.093446379496 Eh    ::
         :: -> Gsolv                  -0.034090196544 Eh    ::
         :: repulsion energy           1.513572460779 Eh    ::

    * Orbital Energies and Occupations

         #    Occupation            Energy/Eh            Energy/eV
      -------------------------------------------------------------
         1        2.0000           -0.7180635             -19.5395
       ...           ...                  ...                  ...
        70        2.0000           -0.4170299             -11.3480
        71        2.0000           -0.4138327             -11.2610
        72        2.0000           -0.4117895             -11.2054
        73        2.0000           -0.4117313             -11.2038
        74        2.0000           -0.4113349             -11.1930
        75        2.0000           -0.4029510             -10.9649
        76        2.0000           -0.4005469             -10.8994
        77        2.0000           -0.3969366             -10.8012
        78        2.0000           -0.3963045             -10.7840
        79        2.0000           -0.3820380             -10.3958
        80        2.0000           -0.3754520             -10.2166
        81        1.0000           -0.3420852              -9.3086
        82        0.9998           -0.2605347              -7.0895 (HOMO)
        83        0.0002           -0.2446189              -6.6564 (LUMO)
        84        0.0000           -0.2373709              -6.4592
        85                         -0.2357558              -6.4152
        86                         -0.2312580              -6.2929
        87                         -0.2300223              -6.2592
        88                         -0.2293782              -6.2417
        89                         -0.2276002              -6.1933
        90                         -0.2178664              -5.9284
        91                         -0.2066050              -5.6220
        92                         -0.1998018              -5.4369
        93                         -0.1765005              -4.8028
       ...                                ...                  ...
       173                          1.4940522              40.6552
      -------------------------------------------------------------
                  HL-Gap            0.0159158 Eh            0.4331 eV

     #   Z          covCN         q      C6AA      α(0)
     1   6 C        3.771    -0.093    22.314     6.732
     2   6 C        2.985     0.012    27.749     8.641
     3  16 S        2.315    -0.147   147.264    20.424
     4   6 C        2.984     0.012    27.750     8.641
     5   6 C        3.771    -0.093    22.314     6.732
     6   6 C        3.315    -0.010    26.202     8.161
     7  15 P        4.209    -0.085   164.061    23.009
     8   6 C        2.918     0.019    27.585     8.613
     9   6 C        2.972    -0.027    28.666     8.782
    10   6 C        2.918    -0.027    28.670     8.780
    11   6 C        2.920    -0.028    28.707     8.786
    12   6 C        2.917    -0.027    28.675     8.781
    13   6 C        3.006    -0.022    28.549     8.765
    14   6 C        2.917     0.016    27.643     8.622
    15   6 C        2.985    -0.028    28.699     8.788
    16   6 C        2.918    -0.030    28.751     8.793
    17   6 C        2.919    -0.037    28.920     8.819
    18   6 C        2.917    -0.030    28.748     8.792
    19   6 C        3.003    -0.028    28.684     8.786
    20   6 C        3.315    -0.010    26.199     8.161
    21  15 P        4.209    -0.085   164.060    23.009
    22   6 C        2.917     0.017    27.642     8.622
    23   6 C        2.985    -0.028    28.698     8.787
    24   6 C        2.918    -0.030    28.751     8.793
    25   6 C        2.919    -0.037    28.919     8.819
    26   6 C        2.917    -0.030    28.748     8.792
    27   6 C        3.003    -0.028    28.684     8.785
    28   6 C        2.918     0.019    27.585     8.613
    29   6 C        3.006    -0.022    28.549     8.765
    30   6 C        2.917    -0.027    28.675     8.781
    31   6 C        2.920    -0.028    28.707     8.786
    32   6 C        2.918    -0.027    28.670     8.780
    33   6 C        2.972    -0.027    28.667     8.782
    34   1 H        0.924     0.049     2.335     2.389
    35   1 H        0.924     0.050     2.318     2.381
    36   1 H        0.925     0.050     2.322     2.383
    37   1 H        0.924     0.050     2.318     2.381
    38   1 H        0.925     0.050     2.322     2.383
    39   1 H        0.924     0.049     2.335     2.389
    40   1 H        0.925     0.039     2.467     2.456
    41   1 H        0.926     0.039     2.467     2.456
    42   1 H        0.926     0.039     2.456     2.451
    43   1 H        0.926     0.039     2.457     2.451
    44   1 H        0.925     0.042     2.428     2.437
    45   1 H        0.926     0.030     2.593     2.518
    46   1 H        0.926     0.030     2.588     2.516
    47   1 H        0.926     0.029     2.596     2.520
    48   1 H        0.926     0.031     2.569     2.506
    49   1 H        0.925     0.034     2.537     2.491
    50   1 H        0.926     0.029     2.594     2.519
    51   1 H        0.926     0.030     2.588     2.516
    52   1 H        0.926     0.029     2.596     2.520
    53   1 H        0.926     0.031     2.568     2.506
    54   1 H        0.925     0.034     2.537     2.491
    55   1 H        0.925     0.042     2.428     2.437
    56   1 H        0.926     0.039     2.458     2.452
    57   1 H        0.926     0.039     2.457     2.451
    58   1 H        0.926     0.039     2.467     2.456
    59   1 H        0.925     0.039     2.467     2.456

molecular dipole:
                 x           y           z       tot (Debye)
 q only:        0.001       0.182       0.601
   full:        0.001      -0.015       0.569       1.447

 projected vibrational frequencies (cm⁻¹)
eigval :       -0.00    -0.00    -0.00     0.00     0.00     0.00
eigval :       19.64    24.30    25.85    32.73    34.06    40.96
eigval :       45.13    51.44    54.88    56.15    58.35    69.09
eigval :       88.51   110.63   120.99   127.46   138.50   160.59
eigval :      161.96   171.35   181.18   188.12   208.53   218.80
eigval :      222.14   235.07   242.67   267.38   285.15   299.53
eigval :      357.23   357.46   360.43   362.21   370.37   390.30
eigval :      398.06   402.15   405.83   424.84   429.31   435.41
eigval :      439.20   458.26   459.76   514.92   534.06   580.10
eigval :      580.41   582.08   583.44   630.34   633.30   637.72
eigval :      641.22   669.08   669.59   686.38   689.02   694.01
eigval :      719.17   724.10   727.67   728.76   743.32   845.75
eigval :      857.17   860.40   860.58   861.55   871.43   874.76
eigval :      886.02   889.02   913.41   914.74   915.92   917.00
eigval :      917.45   919.88   922.43   924.33   961.32   961.61
eigval :      961.93   962.87  1024.25  1027.07  1029.36  1042.66
eigval :     1053.34  1059.49  1066.50  1070.80  1071.74  1072.06
eigval :     1077.71  1083.54  1111.28  1111.80  1112.55  1114.01
eigval :     1131.26  1150.31  1173.65  1173.88  1174.12  1176.43
eigval :     1187.44  1187.93  1190.84  1194.51  1264.31  1264.63
eigval :     1267.90  1268.62  1282.28  1320.47  1320.68  1324.44
eigval :     1326.51  1396.96  1397.48  1411.07  1414.67  1415.31
eigval :     1415.41  1426.99  1428.78  1430.04  1430.89  1454.41
eigval :     1455.31  1466.12  1469.52  1500.06  1511.40  1517.77
eigval :     1521.12  1542.74  1544.36  1545.90  1547.24  1555.77
eigval :     1571.65  2961.67  2961.90  2998.04  2999.38  3018.11
eigval :     3018.21  3045.61  3045.79  3047.65  3049.71  3060.68
eigval :     3061.24  3065.02  3065.06  3068.65  3069.87  3071.15
eigval :     3071.72  3071.86  3072.56  3075.34  3075.48  3087.12
eigval :     3088.39  3088.53  3088.63

   temp. (K)  partition function   enthalpy   heat capacity  entropy
                                   cal/mol     cal/K/mol   cal/K/mol   J/K/mol
 298.15  VIB  0.127E+16            18867.044    110.696    119.709
         ROT  0.240E+08              888.752      2.981     36.749
         INT  0.304E+23            19755.797    113.676    156.458
         TR   0.102E+29             1481.254      4.968     44.377
         TOT                       21237.0506   118.6446   200.8348   840.2927

       T/K    H(0)-H(T)+PV         H(T)/Eh          T*S/Eh         G(T)/Eh
   ------------------------------------------------------------------------
    298.15    0.338434E-01    0.483023E+00    0.954231E-01    0.387600E+00
   ------------------------------------------------------------------------

         :::::::::::::::::::::::::::::::::::::::::::::::::::::
         ::                  THERMODYNAMIC                  ::
         :::::::::::::::::::::::::::::::::::::::::::::::::::::
         :: total free energy         -85.284804873372 Eh   ::
         ::.................................................::
         :: total energy              -85.672404514638 Eh   ::
         :: zero point energy           0.449179325663 Eh   ::
         :: G(RRHO) w/o ZPVE           -0.061579684397 Eh   ::
         :: G(RRHO) contrib.            0.387599641266 Eh   ::
         :::::::::::::::::::::::::::::::::::::::::::::::::::::

           -------------------------------------------------
          | TOTAL ENERGY              -85.672404514638 Eh   |
          | TOTAL ENTHALPY            -85.189381794626 Eh   |
          | TOTAL FREE ENERGY         -85.284804873372 Eh   |
          | GRADIENT NORM               0.000078529219 Eh/α |
          | HOMO-LUMO GAP               0.433091469254 eV   |
           -------------------------------------------------

 * finished run on 2025/09/13 at 03:45:54.930
