   * xtb version 6.7.1 (edcfbbe) compiled by 'albert@albert-system' on 2024-07-22

   ID    Z sym.   atoms
    1    6 C      1-6, 8-28
    2    5 B      7
    3    1 H      29-61

          program call               : xtb data2507/gas/trimesitylboron/trimesitylboron_gas_T1_crest.xyz --gfn 2 --spinpol --tblite --uhf 2 --ohess vtight --parallel 40 --molden --ceasefiles --namespace data2507/gas/trimesitylboron/trimesitylboron_gas_T1_finalOpt
 * total energy  :   -75.8004951 Eh     change       -0.2358742E-07 Eh
 * total energy  :   -75.8005130 Eh     change       -0.1787263E-04 Eh
 * total energy  :   -75.8005195 Eh     change       -0.6528754E-05 Eh
 * total energy  :   -75.8005210 Eh     change       -0.1512692E-05 Eh
 * total energy  :   -75.8005229 Eh     change       -0.1863627E-05 Eh
 * total energy  :   -75.8005243 Eh     change       -0.1368687E-05 Eh
 * total energy  :   -75.8005250 Eh     change       -0.7344454E-06 Eh
 * total energy  :   -75.8005255 Eh     change       -0.5109767E-06 Eh
 * total energy  :   -75.8005260 Eh     change       -0.4799672E-06 Eh
 * total energy  :   -75.8005263 Eh     change       -0.3184106E-06 Eh
 * total energy  :   -75.8005266 Eh     change       -0.2849485E-06 Eh
 * total energy  :   -75.8005268 Eh     change       -0.1605941E-06 Eh
 * total energy  :   -75.8005269 Eh     change       -0.9819843E-07 Eh
   *** GEOMETRY OPTIMIZATION CONVERGED AFTER 13 ITERATIONS ***

 final structure:
================
61
 xtb: 6.7.1 (edcfbbe)
C           -5.17792163245337        2.77783090848017       -0.03883638450610
C           -3.84004200194935        2.10623198845995        0.00543318154281
C           -2.80537843343146        2.53271955231736       -0.82502927684284
C           -1.55576511154676        1.94444884196489       -0.80143212075375
C           -0.51165231658262        2.45492587474619       -1.74912020812937
C           -1.31677282180991        0.83959650962500        0.04481762680385
B           -0.00006081337973       -0.01053244552926       -0.00181743038071
C            0.00192504821355       -1.54500059515878       -0.00556671941647
C            0.91737500604072       -2.30270585957693        0.79233651714146
C            1.89723468479041       -1.60245993573523        1.68284843878819
C            0.89990541672669       -3.67804355441892        0.77348504457363
C           -0.01289201033602       -4.39501460553421       -0.00421328041876
C           -0.01068769008412       -5.89017269874573        0.01173970649314
C           -0.91625681088506       -3.67341249140304       -0.78179916476020
C           -0.91761584207937       -2.29569867754458       -0.80520220919034
C           -1.88792836069590       -1.58798178643060       -1.69934428257081
C            1.32194744498824        0.83691964766978       -0.04225622421274
C            1.56341214760915        1.92875816597695        0.81763016477928
C            0.52388183160309        2.42554980669617        1.77767548865170
C            2.81270706180630        2.51984224908548        0.84105682176390
C            3.84177336054018        2.10639029900935       -0.00103033722008
C            5.18148148696219        2.77480874139574        0.04344904157759
C            3.58535123251060        1.06298797454476       -0.87956404438593
C            2.34634091420071        0.44973028190610       -0.94073690281621
C            2.12381572197682       -0.62867702531432       -1.95630745371230
C           -2.34698950739482        0.44178852898262        0.93453063769077
C           -2.12875398238785       -0.64753257882649        1.93891752326692
C           -3.58714097598835        1.05248158317324        0.87222565878558
H           -5.73030259503020        2.45472772260681       -0.92277519910445
H           -5.76786563443982        2.52951862328280        0.84036819390777
H           -5.06646541133179        3.85950329348381       -0.09462392484529
H           -2.98937461186288        3.35044974956041       -1.50916528088320
H           -0.97037245078247        3.03848100902522       -2.54509032153392
H            0.04145591570257        1.62888799600155       -2.19053360495794
H            0.20888674658345        3.09040520547775       -1.23532573764703
H            1.40957813935423       -0.80162603798578        2.23568751399323
H            2.34380987975645       -2.30132514012889        2.38716221723959
H            2.69655698578913       -1.14567660694773        1.09897017119303
H            1.60255563459402       -4.22814111535452        1.38582686676793
H           -0.73707780186806       -6.29001607068417       -0.69175083906352
H            0.97616542432160       -6.27399986647429       -0.24754644063312
H           -0.25421313177990       -6.25926327722129        1.00893289755905
H           -1.62600866430309       -4.21406661775885       -1.39442476099052
H           -1.39217773077050       -0.78972696617861       -2.24887006725061
H           -2.33697594521647       -2.28263639461091       -2.40625945419863
H           -2.68645807243428       -1.12553475534927       -1.11834912899679
H           -0.03107539749159        1.59375341298510        2.20574235726564
H           -0.19560744895411        3.07291945194618        1.27730533537870
H            0.98683971733714        2.99311883950962        2.58271780234455
H            2.99851108528892        3.32894004150479        1.53488829277570
H            5.72960408668709        2.61034492317598       -0.88151071578929
H            5.07554176602836        3.84588861236648        0.20558221339711
H            5.77431119382399        2.36993816986875        0.86554090750077
H            4.36428866531433        0.73946479746400       -1.55734184857246
H            2.92465922131710       -0.63637951374633       -2.69279964292386
H            2.09021186783957       -1.60744855084074       -1.47660490046629
H            1.17313685705138       -0.49080523778426       -2.46912378624756
H           -1.17679682645852       -0.51998568438774        2.45196718657766
H           -2.10051583675573       -1.62172942421032        1.44919380730958
H           -2.92916487717615       -0.65894829566432        2.67586297604195
H           -4.36946306039824        0.71892503655448        1.54121608660970

 projected vibrational frequencies (cm⁻¹)
eigval :       -0.00    -0.00    -0.00    -0.00    -0.00     0.00
eigval :       -3.91    23.79    27.37    28.36    34.62    39.08
eigval :       42.87    53.26    84.70    98.67   108.49   114.39
eigval :      135.92   137.65   143.05   145.82   155.44   165.38
eigval :      172.72   175.85   185.97   188.56   193.66   195.67
eigval :      205.89   207.04   210.08   269.52   274.79   276.27
eigval :      295.93   311.11   313.51   321.81   325.23   340.84
eigval :      425.79   455.70   464.80   477.06   478.91   484.36
eigval :      487.99   492.40   493.10   503.44   506.26   513.37
eigval :      516.27   528.45   552.94   580.74   590.53   593.35
eigval :      599.62   644.60   653.37   658.01   823.83   834.22
eigval :      835.88   846.02   846.92   864.51   867.53   879.03
eigval :      909.83   956.03   961.44   964.06   972.97   974.35
eigval :      974.78  1007.42  1013.14  1015.22  1017.48  1020.55
eigval :     1021.88  1023.47  1023.94  1026.95  1027.19  1028.07
eigval :     1028.80  1029.69  1034.27  1036.48  1039.67  1043.10
eigval :     1047.20  1064.92  1162.68  1182.66  1192.85  1203.77
eigval :     1223.19  1232.37  1233.61  1258.70  1277.15  1316.02
eigval :     1317.68  1319.70  1325.18  1385.92  1392.05  1399.66
eigval :     1401.54  1402.09  1403.31  1404.23  1406.73  1409.53
eigval :     1410.37  1410.54  1412.40  1422.97  1423.57  1425.39
eigval :     1451.71  1465.05  1466.57  1469.83  1470.39  1471.95
eigval :     1476.91  1478.00  1478.49  1479.73  1482.35  1482.72
eigval :     1483.58  1484.03  1486.56  1488.29  1489.73  1490.76
eigval :     1494.81  1498.81  1501.21  1544.24  1547.37  1568.14
eigval :     2981.19  2982.84  2985.02  2985.56  2987.75  2988.80
eigval :     2992.50  3001.17  3002.39  3004.26  3013.12  3013.62
eigval :     3018.55  3018.86  3020.12  3023.68  3024.75  3024.91
eigval :     3026.99  3027.55  3027.94  3028.39  3031.79  3032.12
eigval :     3034.20  3036.35  3038.40  3052.26  3054.09  3054.26
eigval :     3054.98  3057.79  3058.57

   temp. (K)  partition function   enthalpy   heat capacity  entropy
                                   cal/mol     cal/K/mol   cal/K/mol   J/K/mol
 298.15  VIB  0.720E+15            18266.109    105.901    116.094
         ROT  0.138E+08              888.752      2.981     35.649
         INT  0.993E+22            19154.861    108.882    151.743
         TR   0.684E+28             1481.254      4.968     43.585
         TOT                       20636.1149   113.8499   195.3279   817.2519

       T/K    H(0)-H(T)+PV         H(T)/Eh          T*S/Eh         G(T)/Eh
   ------------------------------------------------------------------------
    298.15    0.328857E-01    0.542195E+00    0.928066E-01    0.449389E+00
   ------------------------------------------------------------------------

         :::::::::::::::::::::::::::::::::::::::::::::::::::::
         ::                  THERMODYNAMIC                  ::
         :::::::::::::::::::::::::::::::::::::::::::::::::::::
         :: total free energy         -75.351138285953 Eh   ::
         ::.................................................::
         :: total energy              -75.800526914829 Eh   ::
         :: zero point energy           0.509309471237 Eh   ::
         :: G(RRHO) w/o ZPVE           -0.059920842362 Eh   ::
         :: G(RRHO) contrib.            0.449388628876 Eh   ::
         :::::::::::::::::::::::::::::::::::::::::::::::::::::

           -------------------------------------------------
          | TOTAL ENERGY              -75.800526914829 Eh   |
          | TOTAL ENTHALPY            -75.258331701262 Eh   |
          | TOTAL FREE ENERGY         -75.351138285953 Eh   |
          | GRADIENT NORM               0.000052009500 Eh/α |
           -------------------------------------------------

 * finished run on 2025/09/10 at 04:57:59.399
