   * xtb version 6.7.1 (edcfbbe) compiled by 'albert@albert-system' on 2024-07-22

   ID    Z sym.   atoms
    1    6 C      1-6, 8-28
    2    5 B      7
    3    1 H      29-61

          program call               : xtb data2507/gas/trimesitylboron/trimesitylboron_gas_S0_crest.xyz --gfn 2 --ohess vtight --parallel 40 --molden --ceasefiles --namespace data2507/gas/trimesitylboron/trimesitylboron_gas_S0_finalOpt
          :  Hamiltonian                  GFN2-xTB          :
 * total energy  :   -75.8966318 Eh     change       -0.8319020E-08 Eh
 * total energy  :   -75.8966320 Eh     change       -0.2257935E-06 Eh
 * total energy  :   -75.8966322 Eh     change       -0.1912548E-06 Eh
 * total energy  :   -75.8966326 Eh     change       -0.3819739E-06 Eh
 * total energy  :   -75.8966328 Eh     change       -0.2269935E-06 Eh
 * total energy  :   -75.8966330 Eh     change       -0.1730507E-06 Eh
 * total energy  :   -75.8966331 Eh     change       -0.1697930E-06 Eh
 * total energy  :   -75.8966333 Eh     change       -0.1623772E-06 Eh
 * total energy  :   -75.8966334 Eh     change       -0.1011816E-06 Eh
 * total energy  :   -75.8966335 Eh     change       -0.1003803E-06 Eh
 * total energy  :   -75.8966336 Eh     change       -0.8770448E-07 Eh
   *** GEOMETRY OPTIMIZATION CONVERGED AFTER 11 ITERATIONS ***

 final structure:
================
61
 xtb: 6.7.1 (edcfbbe)
C           -4.36163798608513        3.96962633383179        0.00945660008684
C           -3.26084547310556        2.95303633327591       -0.00268101280023
C           -3.25386787495426        1.89706748724675        0.89540134461780
C           -2.23572895374082        0.95652983978953        0.90338736103611
C           -2.31192488729219       -0.16223931345105        1.90359655972153
C           -1.16268764384193        1.05755149106088        0.00129828970540
B            0.00049481160521        0.00117314789201        0.00019021098961
C            1.49739615774519        0.47898375343926       -0.00169784561865
C            2.43123368829415       -0.05846084678264       -0.90414209298640
C            2.03527427466950       -1.10769379475814       -1.90427105281235
C            3.74802395084993        0.37424432515303       -0.89666109969650
C            4.19330116235287        1.33177514409759        0.00145375731562
C            5.61687089502937        1.79938597420111       -0.01139149659350
C            3.27600033070461        1.85976365057802        0.89683007370194
C            1.94988553385515        1.45648466903446        0.90117389941952
C            1.02053716656210        2.08496091723180        1.90082001493871
C           -0.33341490058194       -1.53428318020594        0.00113939038798
C           -1.26870655352347       -2.07588307089009       -0.89839926620105
C           -1.98416592743706       -1.20937567916500       -1.89600245088722
C           -1.54946794039157       -3.43241375658234       -0.88993305455808
C           -0.93729059340816       -4.29662542367024        0.00606959815837
C           -1.25251766180881       -5.76148541057653       -0.01013417518370
C           -0.02035827830600       -3.76509190048031        0.89814211190363
C            0.29070889357475       -2.41355546962249        0.90174490288002
C            1.30178656716815       -1.92233654488601        1.89893494896179
C           -1.16794408830234        2.13470677204174       -0.90159867972940
C           -0.06123373384156        2.32034430036166       -1.90093385922067
C           -2.20670417713485        3.05239934825246       -0.89760068489591
H           -5.29103213520180        3.53122353462327        0.36645025130798
H           -4.10047154874885        4.79372048107030        0.67488981065497
H           -4.52261074319486        4.37959283417401       -0.98525469496365
H           -4.06678503563364        1.80225676090075        1.60297028004022
H           -1.35662268375234       -0.32388476270510        2.39612667724009
H           -2.58674996335454       -1.09343954503536        1.40993008029236
H           -3.06068380866651        0.05523916728141        2.66264039166028
H            2.80599284379081       -1.22037467422670       -2.66413961865043
H            1.89934062772160       -2.06904373152956       -1.41059930086550
H            1.09853938264413       -0.85809553299723       -2.39576628634029
H            4.44786192035408       -0.04939990231317       -1.60464576437864
H            5.93206193386914        2.11159470345024        0.98187799967548
H            6.28082366199062        1.01242666203601       -0.36254380831248
H            5.72257962782311        2.65332349159661       -0.68203536483942
H            3.60368481944193        2.60721806232509        1.60701353802305
H            0.40668513605853        1.33945725480619        2.39973152275084
H            1.58404903668310        2.63058649167889        2.65501815086191
H            0.34777526890096        2.78354204966754        1.40519401903278
H           -1.30144755294175       -0.52555890842268       -2.39369514867338
H           -2.74438907884144       -0.60813267409444       -1.39914635123337
H           -2.47312600864105       -1.82148222702267       -2.65119290369204
H           -2.26779908980928       -3.82933631784841       -1.59487283291044
H           -2.32552692931519       -5.92319140511384       -0.09772572428610
H           -0.77305186796758       -6.23828712442250       -0.86578545688943
H           -0.89586850568307       -6.24712563959647        0.89506071366519
H            0.46762426269803       -4.42069230617954        1.60701474457919
H            2.24502377178498       -1.69805682952313        1.40256114048113
H            0.96830404346149       -1.01281071880711        2.39174971134296
H            1.48763121992116       -2.67942317092317        2.65812855514362
H            0.84046668712365        2.67746630467555       -1.40526667123752
H           -0.34742356652157        3.04989165349122       -2.65586378647089
H            0.18833993720054        1.38697162433534       -2.39893478481883
H           -2.19407155624919        3.86844243813208       -1.60776957953099

          :  Hamiltonian                  GFN2-xTB          :
         :: gradient norm              0.000035734169 Eh/a0 ::
         :: HOMO-LUMO gap              2.735674086770 eV    ::
         :: SCC energy               -77.247045088814 Eh    ::
         :: -> dispersion             -0.075144637192 Eh    ::
         :: repulsion energy           1.350411505160 Eh    ::

    * Orbital Energies and Occupations

         #    Occupation            Energy/Eh            Energy/eV
      -------------------------------------------------------------
         1        2.0000           -0.6318275             -17.1929
       ...           ...                  ...                  ...
        60        2.0000           -0.4302124             -11.7067
        61        2.0000           -0.4135876             -11.2543
        62        2.0000           -0.4102196             -11.1626
        63        2.0000           -0.4095383             -11.1441
        64        2.0000           -0.4094520             -11.1418
        65        2.0000           -0.3918483             -10.6627
        66        2.0000           -0.3916265             -10.6567
        67        2.0000           -0.3783883             -10.2965
        68        2.0000           -0.3776196             -10.2756
        69        2.0000           -0.3775397             -10.2734
        70        2.0000           -0.3752900             -10.2122
        71        2.0000           -0.3613516              -9.8329
        72        2.0000           -0.3612208              -9.8293 (HOMO)
        73                         -0.2606865              -7.0936 (LUMO)
        74                         -0.2066639              -5.6236
        75                         -0.2065023              -5.6192
        76                         -0.2026973              -5.5157
        77                         -0.2025099              -5.5106
        78                         -0.2006079              -5.4588
        79                         -0.1602778              -4.3614
        80                         -0.0817358              -2.2241
        81                         -0.0816428              -2.2216
        82                         -0.0597964              -1.6271
        83                          0.0900121               2.4494
       ...                                ...                  ...
       145                          0.6658242              18.1180
      -------------------------------------------------------------
                  HL-Gap            0.1005343 Eh            2.7357 eV

     #   Z          covCN         q      C6AA      α(0)
     1   6 C        3.758    -0.106    22.583     6.775
     2   6 C        2.963     0.012    27.741     8.639
     3   6 C        2.929    -0.057    29.415     8.895
     4   6 C        2.967     0.012    27.752     8.641
     5   6 C        3.759    -0.108    22.615     6.780
     6   6 C        2.889    -0.081    30.017     8.982
     7   5 B        2.708     0.253    17.675     7.051
     8   6 C        2.889    -0.081    30.017     8.982
     9   6 C        2.967     0.012    27.752     8.641
    10   6 C        3.759    -0.108    22.614     6.780
    11   6 C        2.929    -0.057    29.415     8.894
    12   6 C        2.963     0.012    27.741     8.639
    13   6 C        3.758    -0.106    22.583     6.775
    14   6 C        2.929    -0.057    29.416     8.895
    15   6 C        2.967     0.012    27.753     8.641
    16   6 C        3.759    -0.108    22.614     6.780
    17   6 C        2.889    -0.081    30.018     8.982
    18   6 C        2.967     0.012    27.752     8.641
    19   6 C        3.759    -0.108    22.616     6.780
    20   6 C        2.930    -0.057    29.423     8.896
    21   6 C        2.963     0.012    27.741     8.639
    22   6 C        3.758    -0.106    22.584     6.775
    23   6 C        2.929    -0.057    29.408     8.893
    24   6 C        2.967     0.012    27.751     8.641
    25   6 C        3.759    -0.108    22.614     6.780
    26   6 C        2.967     0.012    27.753     8.641
    27   6 C        3.759    -0.108    22.615     6.780
    28   6 C        2.929    -0.057    29.416     8.895
    29   1 H        0.925     0.039     2.468     2.457
    30   1 H        0.924     0.043     2.410     2.428
    31   1 H        0.925     0.039     2.466     2.456
    32   1 H        0.925     0.021     2.716     2.577
    33   1 H        0.925     0.035     2.517     2.481
    34   1 H        0.925     0.047     2.357     2.401
    35   1 H        0.925     0.036     2.509     2.477
    36   1 H        0.925     0.035     2.510     2.478
    37   1 H        0.925     0.047     2.358     2.401
    38   1 H        0.925     0.035     2.518     2.481
    39   1 H        0.925     0.021     2.716     2.577
    40   1 H        0.925     0.039     2.466     2.456
    41   1 H        0.925     0.039     2.467     2.456
    42   1 H        0.924     0.043     2.410     2.428
    43   1 H        0.925     0.021     2.716     2.577
    44   1 H        0.925     0.035     2.518     2.482
    45   1 H        0.925     0.035     2.511     2.478
    46   1 H        0.925     0.047     2.358     2.401
    47   1 H        0.925     0.035     2.519     2.482
    48   1 H        0.925     0.047     2.356     2.401
    49   1 H        0.925     0.035     2.510     2.477
    50   1 H        0.925     0.021     2.711     2.575
    51   1 H        0.925     0.040     2.446     2.446
    52   1 H        0.924     0.043     2.415     2.430
    53   1 H        0.925     0.037     2.484     2.465
    54   1 H        0.925     0.021     2.720     2.579
    55   1 H        0.925     0.047     2.357     2.401
    56   1 H        0.925     0.035     2.518     2.481
    57   1 H        0.925     0.035     2.510     2.477
    58   1 H        0.925     0.047     2.358     2.401
    59   1 H        0.925     0.035     2.511     2.478
    60   1 H        0.925     0.035     2.518     2.481
    61   1 H        0.925     0.021     2.716     2.577

molecular dipole:
                 x           y           z       tot (Debye)
 q only:        0.003       0.014      -0.012
   full:        0.008       0.026      -0.021       0.088

 projected vibrational frequencies (cm⁻¹)
eigval :       -0.00    -0.00    -0.00     0.00     0.00     0.00
eigval :       -4.75     8.56     9.26    27.73    27.80    37.00
eigval :       45.20    45.27    68.14    94.82   106.35   107.21
eigval :      110.32   110.65   115.54   120.78   125.78   126.32
eigval :      163.60   163.85   181.85   182.13   186.09   187.93
eigval :      203.55   203.73   205.54   275.96   276.42   277.11
eigval :      311.50   314.59   314.69   332.13   337.56   339.13
eigval :      459.17   468.11   470.25   494.19   496.04   499.93
eigval :      500.92   501.10   504.26   512.05   512.55   520.10
eigval :      545.85   548.87   586.14   599.21   599.40   603.40
eigval :      605.61   677.66   678.05   685.31   837.15   837.70
eigval :      840.54   872.04   872.51   888.62   888.68   888.79
eigval :      962.17   963.29   963.52   979.97   980.06   980.16
eigval :     1013.51  1018.45  1018.72  1025.82  1026.33  1027.11
eigval :     1028.87  1029.08  1029.59  1031.02  1032.96  1033.32
eigval :     1039.41  1039.78  1041.50  1045.53  1045.91  1045.98
eigval :     1086.51  1159.38  1159.65  1204.86  1218.65  1219.05
eigval :     1237.76  1237.95  1238.10  1306.76  1307.50  1307.82
eigval :     1331.09  1331.57  1334.08  1404.02  1404.13  1404.18
eigval :     1404.90  1405.01  1406.75  1410.71  1410.84  1413.15
eigval :     1428.81  1428.93  1429.99  1450.38  1450.51  1458.73
eigval :     1479.06  1479.10  1481.28  1481.31  1483.52  1483.68
eigval :     1484.99  1485.35  1485.47  1485.50  1486.93  1488.33
eigval :     1491.44  1493.28  1493.29  1493.99  1496.36  1496.54
eigval :     1560.43  1560.50  1560.74  1601.15  1601.23  1603.99
eigval :     2990.69  2990.80  2994.65  3011.31  3011.63  3012.01
eigval :     3012.22  3012.46  3012.69  3022.38  3027.31  3027.41
eigval :     3027.59  3027.65  3028.02  3028.67  3031.55  3031.59
eigval :     3033.23  3033.40  3038.58  3038.86  3039.37  3039.76
eigval :     3040.31  3041.40  3042.01  3058.02  3058.25  3058.25
eigval :     3059.28  3059.40  3060.36

   temp. (K)  partition function   enthalpy   heat capacity  entropy
                                   cal/mol     cal/K/mol   cal/K/mol   J/K/mol
 298.15  VIB  0.210E+17            18368.407    103.775    120.079
         ROT  0.139E+08              888.752      2.981     35.669
         INT  0.292E+24            19257.160    106.756    155.747
         TR   0.684E+28             1481.254      4.968     43.585
         TOT                       20738.4136   111.7238   199.3321   834.0056

       T/K    H(0)-H(T)+PV         H(T)/Eh          T*S/Eh         G(T)/Eh
   ------------------------------------------------------------------------
    298.15    0.330488E-01    0.546537E+00    0.947091E-01    0.451828E+00
   ------------------------------------------------------------------------

         :::::::::::::::::::::::::::::::::::::::::::::::::::::
         ::                  THERMODYNAMIC                  ::
         :::::::::::::::::::::::::::::::::::::::::::::::::::::
         :: total free energy         -75.444805383127 Eh   ::
         ::.................................................::
         :: total energy              -75.896633583660 Eh   ::
         :: zero point energy           0.513488559126 Eh   ::
         :: G(RRHO) w/o ZPVE           -0.061660358593 Eh   ::
         :: G(RRHO) contrib.            0.451828200533 Eh   ::
         :::::::::::::::::::::::::::::::::::::::::::::::::::::

           -------------------------------------------------
          | TOTAL ENERGY              -75.896633583660 Eh   |
          | TOTAL ENTHALPY            -75.350096258744 Eh   |
          | TOTAL FREE ENERGY         -75.444805383127 Eh   |
          | GRADIENT NORM               0.000035727607 Eh/α |
          | HOMO-LUMO GAP               2.735678355733 eV   |
           -------------------------------------------------

 * finished run on 2025/09/10 at 04:54:38.944
