   * xtb version 6.7.1 (edcfbbe) compiled by 'albert@albert-system' on 2024-07-22

   ID    Z sym.   atoms
    1    6 C      1-6, 8-28
    2    5 B      7
    3    1 H      29-61

          program call               : xtb data2507/gas/trimesitylboron/trimesitylboron_gas_S0_finalOpt.xtbopt.xyz --gfn 2 --spinpol --tblite --uhf 2 --ohess vtight --parallel 40 --molden --ceasefiles --namespace data2507/gas/trimesitylboron/trimesitylboron_gas_T1_preOpt
 * total energy  :   -75.7952364 Eh     change       -0.3538138E-07 Eh
 * total energy  :   -75.7968977 Eh     change       -0.1661313E-02 Eh
 * total energy  :   -75.7975450 Eh     change       -0.6472923E-03 Eh
 * total energy  :   -75.7978470 Eh     change       -0.3019790E-03 Eh
 * total energy  :   -75.7985474 Eh     change       -0.7004346E-03 Eh
 * total energy  :   -75.7987849 Eh     change       -0.2375302E-03 Eh
 * total energy  :   -75.7993446 Eh     change       -0.5596760E-03 Eh
 * total energy  :   -75.7997034 Eh     change       -0.3587657E-03 Eh
 * total energy  :   -75.7999446 Eh     change       -0.2412325E-03 Eh
 * total energy  :   -75.8000580 Eh     change       -0.1134040E-03 Eh
 * total energy  :   -75.8005115 Eh     change       -0.2162876E-05 Eh
 * total energy  :   -75.8005133 Eh     change       -0.1882225E-05 Eh
 * total energy  :   -75.8005153 Eh     change       -0.1957257E-05 Eh
 * total energy  :   -75.8005173 Eh     change       -0.1994609E-05 Eh
 * total energy  :   -75.8005187 Eh     change       -0.1356358E-05 Eh
 * total energy  :   -75.8005192 Eh     change       -0.5036460E-06 Eh
 * total energy  :   -75.8005194 Eh     change       -0.2757237E-06 Eh
 * total energy  :   -75.8005196 Eh     change       -0.2149783E-06 Eh
 * total energy  :   -75.8005196 Eh     change       -0.5067733E-09 Eh
   *** GEOMETRY OPTIMIZATION CONVERGED AFTER 39 ITERATIONS ***

 final structure:
================
61
 xtb: 6.7.1 (edcfbbe)
C           -4.22054946224745        4.08673033278544        0.16792670288443
C           -3.17831294217097        3.01367761858808        0.09270010697238
C           -3.25374545465948        1.88665382270047        0.90662393138100
C           -2.31017079373776        0.87789267727238        0.85222425060149
C           -2.46303046152411       -0.28830824683153        1.78258029418991
C           -1.20024502741746        1.00280263575994       -0.00980366240557
B            0.01077330989752        0.00387276830355       -0.00070063093163
C            1.47257724756461        0.47076839227454       -0.00197153640463
C            2.46362515716150       -0.15773418056493       -0.82132337254469
C            2.08186181384605       -1.27988705440038       -1.73645416358374
C            3.77402891897611        0.26530096357327       -0.79781790074346
C            4.19082496276135        1.32879956782094        0.00225382535764
C            5.61082767883428        1.79700398322788       -0.00823213874748
C            3.23470542460188        1.96130626019820        0.79865820885715
C            1.91957170036277        1.55573899492744        0.81761311934586
C            0.95964111534656        2.25369724683828        1.73108382711536
C           -0.39751439447729       -1.51102475577053        0.01187044593320
C           -1.38031366038569       -2.05421785488555       -0.84357145491376
C           -2.18996137203768       -1.19313058578779       -1.76654629020307
C           -1.55987020809762       -3.42295027988767       -0.89939816016495
C           -0.83538354523713       -4.29787559533242       -0.09263371672503
C           -1.06590080407829       -5.77556319316752       -0.17230592808337
C            0.09383037287164       -3.75671444640684        0.78457126989864
C            0.29815764642267       -2.39132862770214        0.87848226474449
C            1.27159224476754       -1.87523539510163        1.89304904478686
C           -1.14950339272762        2.11930802913386       -0.88139564190837
C           -0.06034086407213        2.26128352326292       -1.89992046450005
C           -2.11074480136603        3.10988948123825       -0.78981498677237
H           -5.19234494554695        3.66779500933902        0.42133767626473
H           -3.95591569765792        4.81096593162623        0.94058555857643
H           -4.30046891947734        4.61857715007635       -0.77779678214086
H           -4.07742446820782        1.79842482939770        1.60256926194783
H           -1.49955206052248       -0.57762912429918        2.19606580825900
H           -2.86671375011699       -1.15598824299406        1.26168114550142
H           -3.13816471915810       -0.04003871308754        2.59935727171072
H            2.87636547243634       -1.47914050713440       -2.45269147398131
H            1.89073075038266       -2.19364159002521       -1.17306960659187
H            1.16666701919706       -1.04169621898690       -2.27545466642143
H            4.50293308801612       -0.23121546417397       -1.42509869639617
H            5.91189758135762        2.14382371644953        0.97875212758305
H            6.28176002867893        1.00144799304448       -0.32515602393442
H            5.72575980357614        2.63162130091198       -0.70284574987266
H            3.54603104645176        2.78481214358720        1.42815697204769
H            0.35116726288953        1.53197918313998        2.27303286863733
H            1.49319658199336        2.87782929839247        2.44500317916869
H            0.27512300061148        2.88683168736728        1.16610938713908
H           -1.57558450701169       -0.40159945785159       -2.18964417976593
H           -3.01438983549690       -0.71652346422322       -1.23717825089392
H           -2.60720293492649       -1.78807563289576       -2.57677517528892
H           -2.28531535193078       -3.83063200993985       -1.59084693325687
H           -2.12885669474344       -5.99814936755828       -0.24946085409327
H           -0.57557009107380       -6.18390427596168       -1.05763049506008
H           -0.66278304307583       -6.28055711052352        0.70246514716147
H            0.65185793593456       -4.41596029242693        1.43636227563509
H            2.18825175830979       -1.53633735835230        1.40891234896959
H            0.85944093441205       -1.02221198808334        2.42997537614545
H            1.53078031200893       -2.65223410967764        2.60926097096287
H            0.88542784351308        2.51308763507975       -1.41890219423692
H           -0.30010055767031        3.04604072327990       -2.61442673083008
H            0.09341610700204        1.32742493405584       -2.43856359114089
H           -2.04470840602216        3.96732429127026       -1.44652154918111

 projected vibrational frequencies (cm⁻¹)
eigval :       -0.00    -0.00    -0.00     0.00     0.00     0.00
eigval :      -12.76    24.60    28.50    31.87    34.67    39.19
eigval :       42.54    52.61    84.97    98.89   110.00   114.45
eigval :      135.46   138.08   141.87   145.47   155.91   165.44
eigval :      173.04   175.75   185.98   188.26   193.88   195.16
eigval :      205.87   206.98   210.15   270.03   275.89   276.50
eigval :      296.15   311.41   313.42   321.96   325.31   340.96
eigval :      425.82   455.64   465.07   476.95   479.04   484.41
eigval :      488.44   492.62   493.06   503.52   505.99   513.34
eigval :      516.18   528.52   553.18   580.66   590.71   593.58
eigval :      599.78   644.58   653.50   658.11   823.96   834.40
eigval :      835.96   845.63   847.29   864.62   867.61   879.00
eigval :      911.33   956.08   961.42   964.37   972.86   974.36
eigval :      974.53  1007.46  1012.99  1015.55  1017.30  1019.95
eigval :     1022.51  1023.36  1024.20  1027.07  1027.50  1027.98
eigval :     1028.85  1029.84  1034.35  1036.52  1039.58  1043.08
eigval :     1047.14  1064.81  1163.09  1182.73  1192.89  1204.19
eigval :     1223.67  1232.56  1233.72  1258.99  1277.00  1315.94
eigval :     1317.29  1320.83  1324.52  1386.49  1392.48  1400.69
eigval :     1401.47  1402.19  1402.82  1404.10  1406.75  1409.09
eigval :     1410.26  1410.37  1412.21  1423.03  1423.19  1425.49
eigval :     1451.37  1465.50  1466.23  1469.90  1470.42  1472.10
eigval :     1476.81  1478.38  1479.56  1480.60  1482.47  1483.04
eigval :     1483.79  1484.78  1486.97  1488.13  1489.08  1489.86
eigval :     1494.38  1499.40  1500.13  1544.23  1546.73  1568.04
eigval :     2974.58  2979.29  2982.41  2985.99  2987.43  2990.05
eigval :     2991.52  3001.06  3002.26  3012.72  3013.20  3019.16
eigval :     3019.79  3020.11  3021.97  3024.78  3025.10  3027.04
eigval :     3027.34  3027.57  3027.99  3028.37  3030.72  3031.42
eigval :     3032.42  3032.84  3036.01  3052.82  3053.73  3054.32
eigval :     3054.86  3057.70  3058.50

   temp. (K)  partition function   enthalpy   heat capacity  entropy
                                   cal/mol     cal/K/mol   cal/K/mol   J/K/mol
 298.15  VIB  0.189E+15            18243.091    105.946    114.811
         ROT  0.138E+08              888.752      2.981     35.649
         INT  0.260E+22            19131.844    108.927    150.460
         TR   0.684E+28             1481.254      4.968     43.585
         TOT                       20613.0977   113.8952   194.0449   811.8839

       T/K    H(0)-H(T)+PV         H(T)/Eh          T*S/Eh         G(T)/Eh
   ------------------------------------------------------------------------
    298.15    0.328491E-01    0.542214E+00    0.921970E-01    0.450017E+00
   ------------------------------------------------------------------------

         :::::::::::::::::::::::::::::::::::::::::::::::::::::
         ::                  THERMODYNAMIC                  ::
         :::::::::::::::::::::::::::::::::::::::::::::::::::::
         :: total free energy         -75.350502955656 Eh   ::
         ::.................................................::
         :: total energy              -75.800519679487 Eh   ::
         :: zero point energy           0.509364655456 Eh   ::
         :: G(RRHO) w/o ZPVE           -0.059347931626 Eh   ::
         :: G(RRHO) contrib.            0.450016723831 Eh   ::
         :::::::::::::::::::::::::::::::::::::::::::::::::::::

           -------------------------------------------------
          | TOTAL ENERGY              -75.800519679487 Eh   |
          | TOTAL ENTHALPY            -75.258305961941 Eh   |
          | TOTAL FREE ENERGY         -75.350502955656 Eh   |
          | GRADIENT NORM               0.000110169986 Eh/α |
           -------------------------------------------------

 * finished run on 2025/09/10 at 04:54:43.490
