   * xtb version 6.7.1 (edcfbbe) compiled by 'albert@albert-system' on 2024-07-22

   ID    Z sym.   atoms
    1    6 C      1-6, 8-28
    2    5 B      7
    3    1 H      29-61

          program call               : xtb data2507/gas/trimesitylboron/trimesitylboron.xyz --gfn 2 --ohess vtight --parallel 40 --molden --ceasefiles --namespace data2507/gas/trimesitylboron/trimesitylboron_gas_S0_preOpt
          :  Hamiltonian                  GFN2-xTB          :
 * total energy  :   -75.8630293 Eh     change       -0.3098833E-08 Eh
 * total energy  :   -75.8903026 Eh     change       -0.2727333E-01 Eh
 * total energy  :   -75.8951183 Eh     change       -0.4815727E-02 Eh
 * total energy  :   -75.8954961 Eh     change       -0.3777585E-03 Eh
 * total energy  :   -75.8956550 Eh     change       -0.1589212E-03 Eh
 * total energy  :   -75.8957455 Eh     change       -0.9045203E-04 Eh
 * total energy  :   -75.8958308 Eh     change       -0.8532113E-04 Eh
 * total energy  :   -75.8959077 Eh     change       -0.7690726E-04 Eh
 * total energy  :   -75.8959986 Eh     change       -0.9090995E-04 Eh
 * total energy  :   -75.8961034 Eh     change       -0.1048324E-03 Eh
 * total energy  :   -75.8966270 Eh     change       -0.1415445E-05 Eh
 * total energy  :   -75.8966279 Eh     change       -0.8718074E-06 Eh
 * total energy  :   -75.8966285 Eh     change       -0.5819583E-06 Eh
 * total energy  :   -75.8966285 Eh     change        0.1959059E-07 Eh
 * total energy  :   -75.8966290 Eh     change       -0.4998464E-06 Eh
 * total energy  :   -75.8966294 Eh     change       -0.4258266E-06 Eh
 * total energy  :   -75.8966296 Eh     change       -0.2257641E-06 Eh
 * total energy  :   -75.8966298 Eh     change       -0.1471630E-06 Eh
 * total energy  :   -75.8966299 Eh     change       -0.8489214E-07 Eh
   *** GEOMETRY OPTIMIZATION CONVERGED AFTER 38 ITERATIONS ***

 final structure:
================
61
 xtb: 6.7.1 (edcfbbe)
C           -2.38576118017185       -5.39270823945748       -0.01790485178406
C           -1.78650730281936       -4.01940819493087        0.00123186499712
C           -2.20353457834358       -3.05246186737955       -0.90158592817165
C           -1.65596258426480       -1.77983511699870       -0.90785248325401
C           -2.17236275958734       -0.78938826782422       -1.91292432770577
C           -0.63986959123084       -1.43487266073087        0.00068248881834
B           -0.00208606697652        0.00113196437351        0.00000138479826
C            1.56058666924732        0.16622168104095        0.00873194053977
C            2.19458546851960        1.03950408383386        0.90875964242431
C            1.40561116543157        1.84868168484963        1.89907703354023
C            3.57471968424359        1.17203193821156        0.90879229436082
C            4.37217668455637        0.46772848994368        0.02089763081381
C            5.86393273909271        0.60828902523198        0.03737597305412
C            3.74919777777302       -0.39031451860589       -0.87287613175900
C            2.37316740372108       -0.55335579145172       -0.88477610005708
C            1.78094541916497       -1.50872094456031       -1.88204567073234
C           -0.92512010109415        1.27271287681971       -0.00922256948749
C           -2.00051603894539        1.39763238878564        0.88840037416456
C           -2.31108509039138        0.31945176682056        1.88787994883340
C           -2.79829182899700        2.52982746190646        0.87728304912567
C           -2.57978554487196        3.56543536676230       -0.01999900461871
C           -3.46858956140444        4.77191322119436       -0.01992067729122
C           -1.52727584551184        3.44120970314759       -0.91164600256417
C           -0.70314642119781        2.32548728387802       -0.91224532504339
C            0.42159900567863        2.27652549345446       -1.90747918520203
C           -0.21437767121418       -2.41898261927983        0.90864667192079
C            0.86504476228525       -2.13750595215543        1.91540378753601
C           -0.79064499579095       -3.68027907990133        0.90286816710490
H           -2.19444581259680       -5.91448556068655        0.91682951138312
H           -3.46075705236694       -5.34232785089044       -0.18079797040061
H           -1.95239773896812       -5.97818836173855       -0.82976230124183
H           -2.97974399430546       -3.29873114225183       -1.61385833413474
H           -1.36042760289193       -0.26590075279450       -2.41123060082028
H           -2.79190693148638       -0.03985719266102       -1.42243217493579
H           -2.77557441853198       -1.29068985365197       -2.66716950672581
H            0.90268287021750        2.67468097987135        1.39784655761221
H            0.64145850687987        1.24928731643797        2.38693063012925
H            2.06169035786068        2.26197841224741        2.66253816389191
H            4.04055831167473        1.84609595096761        1.61527388318214
H            6.16103116515172        1.55010979418163        0.49301612103043
H            6.30875889979406       -0.20312351412433        0.61504563927534
H            6.26830081128504        0.56036920213516       -0.97173291354353
H            4.35435169476724       -0.94802546563127       -1.57514361600128
H            1.44699511822299       -2.41765984097970       -1.38344016831254
H            0.91958357458982       -1.07780272661851       -2.38584279951313
H            2.51970471592485       -1.78299117963104       -2.63245654607482
H           -1.41406380233129       -0.02368147438564        2.39706554419488
H           -2.75409183073720       -0.54220484779089        1.39042780112829
H           -3.01518788261873        0.68239873347209        2.63390045125990
H           -3.61548755137709        2.60973776849226        1.58174564962275
H           -4.47607949367849        4.49811671952838       -0.33364041282960
H           -3.53678304531485        5.19617290354064        0.98089029979598
H           -3.09190208343595        5.53390658092567       -0.69794372806185
H           -1.33972026364935        4.23575151655119       -1.62157985632198
H            1.37438908907451        2.45561740604479       -1.41091149461618
H            0.48411642419779        1.30609565751859       -2.39285439847481
H            0.28738773555047        3.03862244246993       -2.67252948399236
H            1.83864560514246       -2.10803775486684        1.42792765624176
H            0.88831169007871       -2.91435324962835        2.67701171180921
H            0.71583693060550       -1.17815127761334        2.40399256052111
H           -0.45188661361105       -4.41867351541400        1.61732813056294

          :  Hamiltonian                  GFN2-xTB          :
         :: gradient norm              0.000033833072 Eh/a0 ::
         :: HOMO-LUMO gap              2.736132694428 eV    ::
         :: SCC energy               -77.247032278382 Eh    ::
         :: -> dispersion             -0.075143976892 Eh    ::
         :: repulsion energy           1.350402425872 Eh    ::

    * Orbital Energies and Occupations

         #    Occupation            Energy/Eh            Energy/eV
      -------------------------------------------------------------
         1        2.0000           -0.6318346             -17.1931
       ...           ...                  ...                  ...
        60        2.0000           -0.4302082             -11.7066
        61        2.0000           -0.4135943             -11.2545
        62        2.0000           -0.4102205             -11.1627
        63        2.0000           -0.4095644             -11.1448
        64        2.0000           -0.4094116             -11.1407
        65        2.0000           -0.3918386             -10.6625
        66        2.0000           -0.3916551             -10.6575
        67        2.0000           -0.3784746             -10.2988
        68        2.0000           -0.3776231             -10.2756
        69        2.0000           -0.3774636             -10.2713
        70        2.0000           -0.3753067             -10.2126
        71        2.0000           -0.3613336              -9.8324
        72        2.0000           -0.3612438              -9.8299 (HOMO)
        73                         -0.2606928              -7.0938 (LUMO)
        74                         -0.2067965              -5.6272
        75                         -0.2064045              -5.6166
        76                         -0.2027682              -5.5176
        77                         -0.2024449              -5.5088
        78                         -0.2005991              -5.4586
        79                         -0.1602935              -4.3618
        80                         -0.0817409              -2.2243
        81                         -0.0816626              -2.2222
        82                         -0.0598101              -1.6275
        83                          0.0900055               2.4492
       ...                                ...                  ...
       145                          0.6664900              18.1361
      -------------------------------------------------------------
                  HL-Gap            0.1005509 Eh            2.7361 eV

     #   Z          covCN         q      C6AA      α(0)
     1   6 C        3.758    -0.106    22.584     6.775
     2   6 C        2.963     0.012    27.742     8.639
     3   6 C        2.930    -0.057    29.421     8.895
     4   6 C        2.967     0.012    27.754     8.641
     5   6 C        3.759    -0.108    22.616     6.780
     6   6 C        2.889    -0.081    30.017     8.982
     7   5 B        2.708     0.253    17.675     7.051
     8   6 C        2.889    -0.081    30.018     8.983
     9   6 C        2.967     0.012    27.751     8.641
    10   6 C        3.759    -0.108    22.615     6.780
    11   6 C        2.929    -0.057    29.412     8.894
    12   6 C        2.963     0.012    27.740     8.639
    13   6 C        3.758    -0.106    22.584     6.775
    14   6 C        2.930    -0.057    29.419     8.895
    15   6 C        2.967     0.012    27.752     8.641
    16   6 C        3.759    -0.108    22.615     6.780
    17   6 C        2.889    -0.081    30.017     8.982
    18   6 C        2.967     0.012    27.754     8.641
    19   6 C        3.759    -0.108    22.616     6.780
    20   6 C        2.930    -0.057    29.424     8.896
    21   6 C        2.963     0.012    27.741     8.639
    22   6 C        3.758    -0.106    22.584     6.775
    23   6 C        2.929    -0.057    29.406     8.893
    24   6 C        2.967     0.012    27.751     8.641
    25   6 C        3.759    -0.108    22.614     6.780
    26   6 C        2.967     0.012    27.752     8.641
    27   6 C        3.759    -0.108    22.614     6.780
    28   6 C        2.929    -0.057    29.410     8.894
    29   1 H        0.925     0.038     2.480     2.463
    30   1 H        0.925     0.040     2.451     2.448
    31   1 H        0.924     0.043     2.413     2.429
    32   1 H        0.925     0.021     2.712     2.575
    33   1 H        0.925     0.035     2.518     2.482
    34   1 H        0.925     0.047     2.357     2.401
    35   1 H        0.925     0.035     2.510     2.478
    36   1 H        0.925     0.047     2.357     2.401
    37   1 H        0.925     0.035     2.517     2.481
    38   1 H        0.925     0.036     2.509     2.477
    39   1 H        0.925     0.021     2.717     2.578
    40   1 H        0.925     0.038     2.476     2.461
    41   1 H        0.924     0.043     2.411     2.428
    42   1 H        0.925     0.039     2.457     2.451
    43   1 H        0.925     0.021     2.714     2.576
    44   1 H        0.925     0.047     2.358     2.401
    45   1 H        0.925     0.035     2.519     2.482
    46   1 H        0.925     0.035     2.511     2.478
    47   1 H        0.925     0.035     2.520     2.482
    48   1 H        0.925     0.047     2.356     2.400
    49   1 H        0.925     0.035     2.510     2.478
    50   1 H        0.925     0.022     2.710     2.574
    51   1 H        0.925     0.042     2.421     2.433
    52   1 H        0.925     0.041     2.435     2.440
    53   1 H        0.925     0.037     2.489     2.467
    54   1 H        0.925     0.021     2.721     2.579
    55   1 H        0.925     0.047     2.357     2.401
    56   1 H        0.925     0.035     2.518     2.481
    57   1 H        0.925     0.036     2.509     2.477
    58   1 H        0.925     0.047     2.359     2.402
    59   1 H        0.925     0.035     2.510     2.478
    60   1 H        0.925     0.035     2.517     2.481
    61   1 H        0.925     0.021     2.719     2.579

molecular dipole:
                 x           y           z       tot (Debye)
 q only:       -0.003      -0.017      -0.002
   full:       -0.003      -0.032      -0.004       0.082

 projected vibrational frequencies (cm⁻¹)
eigval :       -0.00    -0.00    -0.00    -0.00     0.00     0.00
eigval :      -13.86     4.39     5.58    27.72    27.86    37.02
eigval :       44.98    45.41    67.91    94.88   106.64   106.98
eigval :      110.33   110.68   115.64   120.74   126.00   126.26
eigval :      163.66   163.86   182.04   182.16   186.11   188.10
eigval :      203.53   203.74   205.54   275.48   276.16   276.92
eigval :      311.54   314.49   314.81   332.20   337.84   339.12
eigval :      458.83   467.79   470.74   493.54   496.42   499.93
eigval :      500.89   501.13   504.30   512.09   512.59   520.28
eigval :      546.13   548.86   586.14   599.10   599.41   603.35
eigval :      605.64   677.64   678.06   685.32   837.25   837.74
eigval :      840.61   871.82   872.69   888.68   888.73   888.81
eigval :      962.14   963.40   963.47   979.95   980.07   980.27
eigval :     1013.50  1018.39  1018.80  1025.72  1026.40  1027.17
eigval :     1028.62  1028.89  1029.57  1031.17  1033.12  1033.50
eigval :     1039.35  1039.73  1041.50  1045.52  1045.90  1045.97
eigval :     1086.49  1159.26  1159.71  1204.79  1218.51  1219.01
eigval :     1237.56  1237.90  1238.24  1306.45  1307.12  1307.78
eigval :     1331.34  1331.87  1334.43  1404.15  1404.18  1404.23
eigval :     1404.87  1405.04  1406.76  1410.65  1410.85  1413.15
eigval :     1428.79  1428.91  1429.96  1450.41  1450.46  1458.60
eigval :     1478.98  1479.13  1481.24  1481.33  1483.05  1483.53
eigval :     1484.03  1484.35  1486.21  1486.63  1487.45  1488.35
eigval :     1491.44  1493.21  1493.32  1494.07  1496.31  1496.47
eigval :     1560.45  1560.56  1560.77  1601.19  1601.32  1604.09
eigval :     2991.63  2992.93  2999.04  3011.08  3011.37  3011.83
eigval :     3012.32  3012.68  3013.13  3016.94  3025.01  3027.27
eigval :     3027.38  3027.57  3027.60  3027.98  3028.18  3028.61
eigval :     3035.74  3037.58  3038.34  3039.17  3039.56  3039.81
eigval :     3040.37  3041.64  3042.12  3057.72  3058.07  3058.17
eigval :     3059.38  3059.62  3060.45

   temp. (K)  partition function   enthalpy   heat capacity  entropy
                                   cal/mol     cal/K/mol   cal/K/mol   J/K/mol
 298.15  VIB  0.232E+17            18366.476    103.776    120.184
         ROT  0.139E+08              888.752      2.981     35.669
         INT  0.323E+24            19255.229    106.757    155.852
         TR   0.684E+28             1481.254      4.968     43.585
         TOT                       20736.4826   111.7251   199.4371   834.4448

       T/K    H(0)-H(T)+PV         H(T)/Eh          T*S/Eh         G(T)/Eh
   ------------------------------------------------------------------------
    298.15    0.330457E-01    0.546536E+00    0.947590E-01    0.451777E+00
   ------------------------------------------------------------------------

         :::::::::::::::::::::::::::::::::::::::::::::::::::::
         ::                  THERMODYNAMIC                  ::
         :::::::::::::::::::::::::::::::::::::::::::::::::::::
         :: total free energy         -75.444853347386 Eh   ::
         ::.................................................::
         :: total energy              -75.896629852513 Eh   ::
         :: zero point energy           0.513489814481 Eh   ::
         :: G(RRHO) w/o ZPVE           -0.061713309354 Eh   ::
         :: G(RRHO) contrib.            0.451776505127 Eh   ::
         :::::::::::::::::::::::::::::::::::::::::::::::::::::

           -------------------------------------------------
          | TOTAL ENERGY              -75.896629852513 Eh   |
          | TOTAL ENTHALPY            -75.350094349511 Eh   |
          | TOTAL FREE ENERGY         -75.444853347386 Eh   |
          | GRADIENT NORM               0.000033831053 Eh/α |
          | HOMO-LUMO GAP               2.736130527455 eV   |
           -------------------------------------------------

 * finished run on 2025/09/10 at 04:51:47.046
