   * xtb version 6.7.1 (edcfbbe) compiled by 'albert@albert-system' on 2024-07-22

   ID    Z sym.   atoms
    1    6 C      1, 2, 4-9, 11-18, 20-30, 32-38, 40-56
    2    7 N      3, 19, 31, 39
    3   14 Si     10
    4    1 H      57-92

          program call               : xtb data2507/gas/SiCz1Py3/SiCz1Py3_gas_S0_finalOpt.xtbopt.xyz --gfn 2 --spinpol --tblite --uhf 2 --ohess vtight --parallel 40 --molden --ceasefiles --namespace data2507/gas/SiCz1Py3/SiCz1Py3_gas_T1_preOpt
 * total energy  :  -140.8443159 Eh     change        0.1695184E-08 Eh
 * total energy  :  -140.8462198 Eh     change       -0.1903872E-02 Eh
 * total energy  :  -140.8470806 Eh     change       -0.8607895E-03 Eh
 * total energy  :  -140.8472993 Eh     change       -0.2187136E-03 Eh
 * total energy  :  -140.8475629 Eh     change       -0.2635357E-03 Eh
 * total energy  :  -140.8477374 Eh     change       -0.1745100E-03 Eh
 * total energy  :  -140.8478873 Eh     change       -0.1499073E-03 Eh
 * total energy  :  -140.8480237 Eh     change       -0.1364110E-03 Eh
 * total energy  :  -140.8481135 Eh     change       -0.8980238E-04 Eh
 * total energy  :  -140.8481744 Eh     change       -0.6089778E-04 Eh
 * total energy  :  -140.8504669 Eh     change       -0.3837399E-06 Eh
 * total energy  :  -140.8504672 Eh     change       -0.2896001E-06 Eh
 * total energy  :  -140.8504674 Eh     change       -0.1555970E-06 Eh
 * total energy  :  -140.8504676 Eh     change       -0.2482670E-06 Eh
 * total energy  :  -140.8504679 Eh     change       -0.2755474E-06 Eh
 * total energy  :  -140.8504681 Eh     change       -0.2307880E-06 Eh
 * total energy  :  -140.8504683 Eh     change       -0.1345870E-06 Eh
 * total energy  :  -140.8504681 Eh     change        0.1757078E-06 Eh
 * total energy  :  -140.8504682 Eh     change       -0.5291525E-07 Eh
   *** GEOMETRY OPTIMIZATION CONVERGED AFTER 67 ITERATIONS ***

 final structure:
================
92
 xtb: 6.7.1 (edcfbbe)
C           -4.23261345073839       -7.70412647558124       -0.06546550501716
C           -3.19475161023247       -8.61418762968231       -0.20186507042641
N           -1.92923904301868       -8.24860870463215       -0.31202138141514
C           -1.64033821708265       -6.96305976364269       -0.28484132300838
C           -2.59505075720548       -5.95369283817175       -0.14176373446026
C           -2.21031280130307       -4.53889151831938       -0.11337997140478
C           -2.97430901362058       -3.57952858319356       -0.77504540818135
C           -2.60433172442415       -2.24950089417921       -0.75101926244187
C           -1.47076484228531       -1.82768353784622       -0.06346986380788
Si          -0.97090540959778        0.00293106406288       -0.02216572449112
C           -1.63711230534966        0.77126448919303        1.57888437643319
C           -1.74604389547421        2.15346039363880        1.70415866464683
C           -2.21645020237229        2.73346299081696        2.86519961011128
C           -2.60383150798590        1.94098709674112        3.94402744142624
C           -3.11120488888242        2.55183062554026        5.17723984520014
C           -2.54127580254757        3.70550178989410        5.71391582410050
C           -3.05945168552236        4.23922532814212        6.88035428328431
C           -4.13444243352129        3.59870169508795        7.47853563921707
N           -4.68992783194143        2.50840343557525        6.97850028798683
C           -4.19606421499075        2.00416331001779        5.86541902800792
C           -2.50549303252216        0.55649664057041        3.82309605563042
C           -2.02727626099382       -0.01306304385092        2.65940185943761
C           -1.63734263489214        0.95414233432448       -1.48946083005745
C           -0.85728829921526        1.23743085894179       -2.63275013277860
C           -1.36985253567291        1.87412707658750       -3.72028278771897
C           -2.73153227076173        2.32718968811990       -3.75481824670090
C           -3.24271400918690        3.06966419293590       -4.83096789706019
C           -2.44130346150829        3.64538475924106       -5.88115065830059
C           -3.01043358032202        4.27487016393016       -6.94642168676466
C           -4.41011564393938        4.42783040190188       -6.98987552387811
N           -5.15702743771444        3.83479666987807       -6.06529001660109
C           -4.65877211972969        3.19617247859442       -5.06330050114728
C           -3.51562902176061        2.02745460454217       -2.59216990653236
C           -2.98251427964719        1.39484716353392       -1.51312473839992
C            0.92303575270751        0.07173688743887       -0.01418875933536
C            1.65862068410650       -0.75247577542629       -0.86092356435445
C            3.03805245190137       -0.70569691195293       -0.89159298045402
C            3.71956298275922        0.17475415148239       -0.05588033687701
N            5.12040942238111        0.22492592061406       -0.07564761363384
C            5.88485331840828        1.36596327144978       -0.20611682458392
C            5.48333883761666        2.68163100014809       -0.39185068870486
C            6.46733977753014        3.64305672002535       -0.52240778563054
C            7.81936412786808        3.31067623626104       -0.47939168987776
C            8.22481595130091        1.99957851261246       -0.31875378887195
C            7.25513771353771        1.01597407201367       -0.18513760702499
C            7.30847525255716       -0.41156232098964       -0.02778231694738
C            8.34949850924656       -1.32316184460939        0.07676869576285
C            8.04369752342575       -2.65984281879557        0.24671775673268
C            6.72072273597955       -3.08816435525774        0.32747507317968
C            5.66721053937044       -2.19961850271049        0.22652740332276
C            5.96790471682855       -0.85861660427156        0.03162062501586
C            2.99931053169079        1.00237241879741        0.80068748508998
C            1.61929203061020        0.94822741082944        0.81086830988097
C           -0.71178110004479       -2.79219821724827        0.59460681562332
C           -1.06892803552538       -4.12536668971316        0.57116968900373
C           -3.92590705186517       -6.35556627026656       -0.03367783001962
H           -5.25349188021576       -8.04342620705067        0.02066985656636
H           -3.37880316834509       -9.68002704034986       -0.22427363349290
H           -0.59216030028325       -6.71819217288109       -0.40001704784750
H           -3.85005969537438       -3.88454356222270       -1.33027977027798
H           -3.20158634343345       -1.52050301693771       -1.27965162706535
H           -1.46272275739899        2.78209078642944        0.87151958997956
H           -2.30822781855542        3.80848538626568        2.93181128077575
H           -1.69005522309173        4.16402974608368        5.23048701547720
H           -2.63510858751473        5.12867027107761        7.32036109438215
H           -4.57231806026137        3.96973044998255        8.39562196029881
H           -4.70034841751418        1.12379213568939        5.48793608874704
H           -2.78752842546080       -0.07215240010346        4.65563021164844
H           -1.95684210439277       -1.08899144069520        2.58441488824413
H            0.17891455281167        0.92761904659384       -2.63782912259787
H           -0.73735629025989        2.05150939922542       -4.57650414811821
H           -1.36703907640494        3.62701942342248       -5.78703711523704
H           -2.40793806822116        4.73274225766507       -7.71608515048346
H           -4.91191259783798        5.03254296421981       -7.72600395998231
H           -5.35906168918328        2.64639316228301       -4.45156578343601
H           -4.55033697777497        2.33493373903306       -2.56472677767407
H           -3.60007428742735        1.20447891885104       -0.64560210915638
H            1.13762579078469       -1.44219603060069       -1.50952513352549
H            3.59508115754118       -1.33520971145318       -1.57012935327081
H            4.43789380173847        2.94541821105179       -0.44452505638597
H            6.18141413459372        4.67465806093858       -0.66501160383323
H            8.55809338029417        4.09130545921097       -0.58300682824928
H            9.27267326261642        1.74083286565878       -0.30166141838488
H            9.37521879416224       -0.99002444920190        0.03021322185818
H            8.83901529348504       -3.38556823417160        0.32780441515037
H            6.51348223444470       -4.13753975682395        0.47593302600985
H            4.64536573633006       -2.53799774244895        0.30778686809581
H            3.52838327854385        1.66973630788719        1.46527437633670
H            1.06876746725649        1.59046657730339        1.48296049854674
H            0.17457169837879       -2.48877338333624        1.13472430633694
H           -0.47425269628134       -4.85345544215044        1.10439448293148
H           -4.70528485463505       -5.61750837653563        0.09370758890969

 projected vibrational frequencies (cm⁻¹)
eigval :       -0.00    -0.00    -0.00     0.00     0.00     0.00
eigval :        6.71     8.39     9.00    11.10    12.77    14.81
eigval :       17.39    18.28    22.97    39.65    42.14    49.31
eigval :       57.26    60.29    69.39    71.03    72.86    77.25
eigval :       80.93    83.53    89.79   103.38   119.55   128.18
eigval :      139.44   143.73   157.06   159.34   167.54   180.31
eigval :      188.55   197.17   218.45   235.64   253.00   268.52
eigval :      271.02   280.46   290.52   309.88   314.35   333.57
eigval :      348.89   356.32   359.41   359.74   362.33   368.09
eigval :      370.89   373.89   377.01   387.06   388.48   396.33
eigval :      401.28   418.49   422.88   436.24   444.75   472.93
eigval :      475.21   481.52   502.06   506.22   515.58   517.55
eigval :      535.10   536.79   537.42   539.60   559.85   580.97
eigval :      583.61   588.40   589.43   594.64   595.37   604.68
eigval :      606.30   613.42   619.21   632.75   655.95   661.48
eigval :      663.43   674.00   676.80   679.08   680.08   680.78
eigval :      690.81   691.23   708.95   723.68   742.37   758.61
eigval :      766.45   769.30   772.68   775.77   776.47   777.70
eigval :      779.79   781.65   789.56   801.50   809.44   812.70
eigval :      813.70   867.32   872.61   875.16   875.39   876.91
eigval :      883.50   897.95   900.51   900.94   901.42   903.20
eigval :      903.57   911.13   911.67   912.81   920.13   920.73
eigval :      921.14   921.73   923.08   927.29   928.16   928.42
eigval :      931.95   932.48   933.53   936.37   958.33   970.97
eigval :      972.92   988.78  1005.03  1005.93  1011.89  1014.88
eigval :     1057.47  1069.49  1072.99  1083.59  1083.90  1096.09
eigval :     1097.15  1112.91  1117.06  1119.79  1132.36  1137.41
eigval :     1137.81  1138.40  1145.32  1146.75  1147.98  1149.45
eigval :     1150.15  1151.15  1151.28  1175.90  1180.01  1184.55
eigval :     1194.95  1195.35  1200.53  1208.16  1208.87  1211.10
eigval :     1222.35  1234.86  1242.38  1243.87  1259.64  1264.96
eigval :     1265.28  1273.39  1276.49  1277.32  1282.52  1283.22
eigval :     1296.29  1296.85  1297.55  1297.96  1309.43  1309.90
eigval :     1311.01  1311.17  1311.91  1330.63  1354.82  1355.15
eigval :     1361.45  1363.70  1381.99  1382.66  1386.40  1394.29
eigval :     1405.76  1406.53  1421.18  1427.15  1442.52  1443.17
eigval :     1447.45  1469.85  1469.97  1484.63  1485.27  1486.30
eigval :     1489.32  1490.16  1504.60  1548.79  1550.84  1554.76
eigval :     1557.43  1560.58  1564.17  1569.28  1571.00  1582.79
eigval :     1584.27  1587.75  1590.70  1592.03  1593.00  1609.90
eigval :     3053.79  3054.04  3054.45  3058.05  3060.93  3061.13
eigval :     3061.65  3063.16  3064.02  3066.78  3067.71  3069.01
eigval :     3070.76  3071.03  3073.72  3076.19  3077.03  3078.53
eigval :     3078.69  3079.32  3079.46  3079.90  3080.60  3083.51
eigval :     3084.73  3085.70  3086.24  3086.40  3090.56  3090.76
eigval :     3091.20  3092.43  3094.44  3096.90  3098.16  3106.02

   temp. (K)  partition function   enthalpy   heat capacity  entropy
                                   cal/mol     cal/K/mol   cal/K/mol   J/K/mol
 298.15  VIB  0.139E+26            28089.529    169.241    181.233
         ROT  0.197E+09              888.752      2.981     40.934
         INT  0.273E+34            28978.281    172.222    222.166
         TR   0.192E+29             1481.254      4.968     45.635
         TOT                       30459.5348   177.1899   267.8008  1120.4787

       T/K    H(0)-H(T)+PV         H(T)/Eh          T*S/Eh         G(T)/Eh
   ------------------------------------------------------------------------
    298.15    0.485404E-01    0.747465E+00    0.127241E+00    0.620224E+00
   ------------------------------------------------------------------------

         :::::::::::::::::::::::::::::::::::::::::::::::::::::
         ::                  THERMODYNAMIC                  ::
         :::::::::::::::::::::::::::::::::::::::::::::::::::::
         :: total free energy        -140.230243903132 Eh   ::
         ::.................................................::
         :: total energy             -140.850468214265 Eh   ::
         :: zero point energy           0.698924767699 Eh   ::
         :: G(RRHO) w/o ZPVE           -0.078700456567 Eh   ::
         :: G(RRHO) contrib.            0.620224311132 Eh   ::
         :::::::::::::::::::::::::::::::::::::::::::::::::::::

           -------------------------------------------------
          | TOTAL ENERGY             -140.850468214265 Eh   |
          | TOTAL ENTHALPY           -140.103003088070 Eh   |
          | TOTAL FREE ENERGY        -140.230243903132 Eh   |
          | GRADIENT NORM               0.000070946090 Eh/α |
           -------------------------------------------------

 * finished run on 2025/08/30 at 08:46:35.874
