   * xtb version 6.7.1 (edcfbbe) compiled by 'albert@albert-system' on 2024-07-22

   ID    Z sym.   atoms
    1    6 C      1, 2, 4-9, 11-18, 20-30, 32-38, 40-56
    2    7 N      3, 19, 31, 39
    3   14 Si     10
    4    1 H      57-92

          program call               : xtb data2507/gas/SiCz1Py3/SiCz1Py3_gas_T1_crest.xyz --gfn 2 --spinpol --tblite --uhf 2 --ohess vtight --parallel 40 --molden --ceasefiles --namespace data2507/gas/SiCz1Py3/SiCz1Py3_gas_T1_finalOpt
 * total energy  :  -140.8501991 Eh     change        0.5989281E-07 Eh
 * total energy  :  -140.8503377 Eh     change       -0.1385888E-03 Eh
 * total energy  :  -140.8504091 Eh     change       -0.7140270E-04 Eh
 * total energy  :  -140.8504190 Eh     change       -0.9941532E-05 Eh
 * total energy  :  -140.8504306 Eh     change       -0.1161573E-04 Eh
 * total energy  :  -140.8504394 Eh     change       -0.8758818E-05 Eh
 * total energy  :  -140.8504479 Eh     change       -0.8494656E-05 Eh
 * total energy  :  -140.8504518 Eh     change       -0.3909221E-05 Eh
 * total energy  :  -140.8504538 Eh     change       -0.1940007E-05 Eh
 * total energy  :  -140.8504557 Eh     change       -0.1991942E-05 Eh
 * total energy  :  -140.8504931 Eh     change       -0.1508499E-05 Eh
 * total energy  :  -140.8504939 Eh     change       -0.7554584E-06 Eh
 * total energy  :  -140.8504946 Eh     change       -0.7564421E-06 Eh
 * total energy  :  -140.8504969 Eh     change       -0.2211010E-05 Eh
 * total energy  :  -140.8504981 Eh     change       -0.1255503E-05 Eh
 * total energy  :  -140.8504994 Eh     change       -0.1280110E-05 Eh
 * total energy  :  -140.8505010 Eh     change       -0.1638913E-05 Eh
 * total energy  :  -140.8505026 Eh     change       -0.1553520E-05 Eh
 * total energy  :  -140.8505027 Eh     change       -0.9182364E-07 Eh
   *** GEOMETRY OPTIMIZATION CONVERGED AFTER 31 ITERATIONS ***

 final structure:
================
92
 xtb: 6.7.1 (edcfbbe)
C           -2.82287147383437        8.19030965936802       -0.85538416427109
C           -4.08063689370016        8.31869451713434       -1.47558963747395
N           -4.79228256442920        7.22717036104199       -1.73471006719787
C           -4.34785684080370        6.03500449200747       -1.52948715613031
C           -3.03243530579582        5.75899680319798       -1.01277745187724
C           -2.59677306153183        4.44898175954323       -0.75541478120874
C           -3.20389586752036        3.30508060877467       -1.37187315479068
C           -2.71490459196247        2.04871782709609       -1.19062458420803
C           -1.60660751427578        1.78961450919516       -0.35210106215661
Si          -0.98515691583757        0.05616171172375       -0.02016616409279
C           -1.56010481327488       -1.12606623717204       -1.38274330740427
C           -2.86448228495571       -1.61194705192222       -1.38903160326285
C           -3.30909708523725       -2.45987328026336       -2.38342283119211
C           -2.45216015435847       -2.85786379841447       -3.40783579900558
C           -2.91609720858266       -3.76717790998543       -4.46073843204579
C           -4.18644861609039       -3.65298761169664       -5.02404861461123
C           -4.57242705153574       -4.53904822836269       -6.01390482337308
C           -3.67159795964332       -5.51475299358609       -6.41433188845854
N           -2.46657542126726       -5.63965022361709       -5.88547677615426
C           -2.10268039934255       -4.79626641548128       -4.94052873502013
C           -1.14354176033573       -2.37921200270387       -3.40553195968837
C           -0.71189952305244       -1.52453547382636       -2.41056277623955
C           -1.60941370800915       -0.61935691720389        1.64068393792788
C           -1.97815910607297        0.23790045189946        2.67286170894203
C           -2.42989660894707       -0.25003074955493        3.88274975667270
C           -2.52482032287282       -1.62312848197496        4.10138172990774
C           -2.99804971387913       -2.14667845365688        5.38668668682329
C           -4.05546503743077       -1.55508681348779        6.07704432449291
C           -4.46147182701548       -2.09112020444779        7.28597433775435
C           -3.79718994782779       -3.20888303729030        7.76900445542135
N           -2.78891858216939       -3.77660103882017        7.12977219175043
C           -2.40218228954630       -3.26205101115219        5.97987649856476
C           -2.15963563027695       -2.48835753116037        3.07166391077607
C           -1.71521698598458       -1.98996803428971        1.86342678130182
C            0.91250159274479        0.06931012978483        0.02730529510254
C            1.62481622217750       -0.75087724764205        0.89577273875446
C            3.00590280504020       -0.75249031154522        0.91335745645975
C            3.71095295877019        0.07734190192253        0.04658564910934
N            5.11296580899332        0.07785341361345        0.05275841623710
C            5.91950575165107       -1.03706133526703       -0.04709593067351
C            5.56747607851223       -2.36953191376977       -0.21192354769005
C            6.58680297898012       -3.29683079259527       -0.31560013358336
C            7.92538053102746       -2.91477734278830       -0.26572348989117
C            8.28171452849054       -1.58723702894032       -0.12410341734855
C            7.27587449873384       -0.63721285281411       -0.01789647744829
C            7.27573560475443        0.79410174752415        0.11307267627252
C            8.28140666278717        1.74502654043438        0.21196612637669
C            7.92490937270589        3.07269689506501        0.35210183080278
C            6.58633842461940        3.45392075806383        0.40828471855194
C            5.56711839927454        2.52568349496619        0.31232147070336
C            5.91917000616097        1.19308877709704        0.14814350040745
C            3.01366625102009        0.90736672065698       -0.82678489266207
C            1.63306136710970        0.89875270464520       -0.82724618522747
C           -1.00339353438494        2.90998966600374        0.26611628030413
C           -1.47519026096953        4.17419611514267        0.09586230666024
C           -2.29864523556719        6.94800533561572       -0.66160235697581
H           -2.25962005785334        9.08058194655625       -0.62029497885754
H           -4.48972528026940        9.26644303316773       -1.78203152559682
H           -5.05947373331428        5.23213533235790       -1.65547882070187
H           -4.05810324856473        3.44975324128632       -2.01613172150318
H           -3.18908141811775        1.21367935948930       -1.68747061342394
H           -3.53852133190827       -1.32436748518024       -0.59420000785097
H           -4.32137438834110       -2.83817473113587       -2.35637652554379
H           -4.85278508269573       -2.86544303007983       -4.70126423987741
H           -5.54793653766633       -4.47087308190834       -6.47051817029072
H           -3.91985579591084       -6.22737664979272       -7.18951648474234
H           -1.11476528808949       -4.95575906434207       -4.52769030326337
H           -0.47075302213271       -2.66439397148192       -4.20167410176437
H            0.30541368227062       -1.15976953277519       -2.42714977420029
H           -1.91154137938644        1.30558273027675        2.52031279809093
H           -2.69262183996589        0.43611188460787        4.67554866710331
H           -4.56311222820319       -0.69786545666600        5.65765205680571
H           -5.27995254432917       -1.65641335854260        7.83907292115442
H           -4.07998337731236       -3.67233366987846        8.70474548416988
H           -1.55965385601278       -3.75252843720494        5.50927799846971
H           -2.24740579201444       -3.55582814175416        3.21603697381381
H           -1.44707644018634       -2.67630995535780        1.07201046650077
H            1.08645328269055       -1.39274678633895        1.57807047055352
H            3.54637810027906       -1.38005920231693        1.60691937085557
H            4.53276340847566       -2.67190225826050       -0.26880171308593
H            6.33981981050933       -4.34044723760251       -0.44221926201007
H            8.69281897797527       -3.66971996555359       -0.34866746708991
H            9.31933587190552       -1.29050446600932       -0.10123804677329
H            9.31911307814339        1.44903272791701        0.18401291989616
H            8.69227609306797        3.82842521730399        0.42858965771608
H            6.33943136751389        4.49777940006515        0.53338173315003
H            4.53244653790429        2.82730507099689        0.37404310326594
H            3.56041243421407        1.53962663094689       -1.51115725915806
H            1.09868957228467        1.54586705001239       -1.50796296945766
H           -0.14344569327365        2.74449695054249        0.90172718305414
H           -0.99217201695037        4.99299052142319        0.60699295296591
H           -1.28982366785185        6.84937236354596       -0.29300507377714

 projected vibrational frequencies (cm⁻¹)
eigval :       -0.00    -0.00    -0.00    -0.00     0.00     0.00
eigval :        6.09     7.95     9.61    11.46    12.39    15.75
eigval :       18.34    20.17    26.61    39.18    41.66    49.67
eigval :       58.15    59.66    70.47    70.55    73.97    78.55
eigval :       80.45    83.09    90.96   103.44   120.22   129.88
eigval :      135.17   143.51   153.73   163.43   169.93   180.64
eigval :      184.97   201.79   215.90   233.73   254.64   270.86
eigval :      272.94   277.23   288.26   309.95   316.04   332.39
eigval :      348.19   356.43   359.18   361.29   363.11   367.47
eigval :      369.93   374.29   376.75   387.30   389.03   396.83
eigval :      401.48   418.08   422.73   435.79   445.27   474.08
eigval :      475.02   480.14   501.01   506.41   516.12   517.69
eigval :      535.39   536.35   536.88   539.57   560.10   580.81
eigval :      583.58   587.57   588.92   593.79   596.40   605.10
eigval :      606.10   613.27   619.91   632.90   656.09   661.40
eigval :      663.65   674.01   677.07   678.75   680.34   681.19
eigval :      690.61   690.89   708.99   723.93   741.31   758.46
eigval :      767.18   769.45   773.49   776.04   776.64   777.99
eigval :      779.87   781.30   789.70   802.16   809.00   812.96
eigval :      813.58   867.59   872.61   875.67   875.85   876.46
eigval :      883.50   898.02   900.46   900.63   903.09   903.38
eigval :      903.63   910.69   911.11   912.49   920.25   920.77
eigval :      921.24   922.22   922.96   927.17   927.79   928.54
eigval :      931.80   932.87   933.34   936.09   958.75   970.85
eigval :      973.17   989.42  1004.48  1005.80  1011.90  1014.55
eigval :     1058.43  1069.40  1072.90  1083.38  1083.72  1096.63
eigval :     1096.99  1113.54  1117.14  1120.74  1131.57  1137.44
eigval :     1138.03  1138.23  1145.01  1146.67  1147.71  1148.69
eigval :     1149.23  1151.65  1153.14  1176.02  1180.13  1184.50
eigval :     1195.22  1195.55  1202.77  1207.69  1209.33  1211.29
eigval :     1222.56  1234.80  1242.42  1243.73  1261.23  1265.02
eigval :     1265.21  1272.74  1276.90  1277.40  1282.88  1283.52
eigval :     1296.45  1296.70  1297.39  1297.66  1309.38  1310.05
eigval :     1311.13  1312.02  1312.48  1330.12  1354.35  1355.12
eigval :     1362.39  1363.63  1381.91  1383.05  1385.97  1393.75
eigval :     1405.89  1406.02  1420.81  1426.80  1441.72  1442.73
eigval :     1445.02  1469.52  1470.11  1483.95  1484.34  1486.12
eigval :     1488.98  1490.48  1504.55  1547.94  1549.42  1555.25
eigval :     1556.46  1559.25  1561.04  1565.51  1570.85  1581.70
eigval :     1584.49  1587.75  1589.97  1590.32  1592.89  1610.25
eigval :     3050.33  3053.76  3054.37  3060.86  3061.24  3061.44
eigval :     3061.77  3063.33  3064.73  3066.48  3067.14  3069.69
eigval :     3070.61  3071.74  3073.62  3076.18  3078.00  3078.08
eigval :     3078.91  3079.26  3079.49  3079.80  3082.02  3083.67
eigval :     3084.52  3084.85  3085.56  3086.40  3090.53  3090.93
eigval :     3090.96  3092.57  3093.87  3097.09  3098.17  3105.75

   temp. (K)  partition function   enthalpy   heat capacity  entropy
                                   cal/mol     cal/K/mol   cal/K/mol   J/K/mol
 298.15  VIB  0.105E+26            28076.479    169.296    180.984
         ROT  0.197E+09              888.752      2.981     40.933
         INT  0.206E+34            28965.232    172.277    221.917
         TR   0.192E+29             1481.254      4.968     45.635
         TOT                       30446.4854   177.2448   267.5517  1119.4364

       T/K    H(0)-H(T)+PV         H(T)/Eh          T*S/Eh         G(T)/Eh
   ------------------------------------------------------------------------
    298.15    0.485196E-01    0.747442E+00    0.127122E+00    0.620319E+00
   ------------------------------------------------------------------------

         :::::::::::::::::::::::::::::::::::::::::::::::::::::
         ::                  THERMODYNAMIC                  ::
         :::::::::::::::::::::::::::::::::::::::::::::::::::::
         :: total free energy        -140.230183352534 Eh   ::
         ::.................................................::
         :: total energy             -140.850502731825 Eh   ::
         :: zero point energy           0.698922272322 Eh   ::
         :: G(RRHO) w/o ZPVE           -0.078602893031 Eh   ::
         :: G(RRHO) contrib.            0.620319379291 Eh   ::
         :::::::::::::::::::::::::::::::::::::::::::::::::::::

           -------------------------------------------------
          | TOTAL ENERGY             -140.850502731825 Eh   |
          | TOTAL ENTHALPY           -140.103060896560 Eh   |
          | TOTAL FREE ENERGY        -140.230183352534 Eh   |
          | GRADIENT NORM               0.000117535435 Eh/α |
           -------------------------------------------------

 * finished run on 2025/08/30 at 09:06:43.075
