   * xtb version 6.7.1 (edcfbbe) compiled by 'albert@albert-system' on 2024-07-22

   ID    Z sym.   atoms
    1    6 C      1, 2, 4-9, 11-18, 20-30, 32-38, 40-56
    2    7 N      3, 19, 31, 39
    3   14 Si     10
    4    1 H      57-92

          program call               : xtb data2507/gas/SiCz1Py3/SiCz1Py3_gas_S0_crest.xyz --gfn 2 --ohess vtight --parallel 40 --molden --ceasefiles --namespace data2507/gas/SiCz1Py3/SiCz1Py3_gas_S0_finalOpt
          :  Hamiltonian                  GFN2-xTB          :
 * total energy  :  -140.9500760 Eh     change       -0.5833670E-08 Eh
 * total energy  :  -140.9500766 Eh     change       -0.5528608E-06 Eh
 * total energy  :  -140.9500773 Eh     change       -0.7282632E-06 Eh
 * total energy  :  -140.9500784 Eh     change       -0.1082624E-05 Eh
 * total energy  :  -140.9500790 Eh     change       -0.5746184E-06 Eh
 * total energy  :  -140.9500797 Eh     change       -0.7030432E-06 Eh
 * total energy  :  -140.9500804 Eh     change       -0.7552655E-06 Eh
 * total energy  :  -140.9500811 Eh     change       -0.7000608E-06 Eh
 * total energy  :  -140.9500819 Eh     change       -0.7728394E-06 Eh
 * total energy  :  -140.9500829 Eh     change       -0.9850812E-06 Eh
 * total energy  :  -140.9500864 Eh     change       -0.1004634E-05 Eh
 * total energy  :  -140.9500874 Eh     change       -0.9650888E-06 Eh
 * total energy  :  -140.9500882 Eh     change       -0.8171186E-06 Eh
 * total energy  :  -140.9500888 Eh     change       -0.5767990E-06 Eh
 * total energy  :  -140.9500892 Eh     change       -0.4449235E-06 Eh
 * total energy  :  -140.9500897 Eh     change       -0.4213296E-06 Eh
 * total energy  :  -140.9500901 Eh     change       -0.4252418E-06 Eh
 * total energy  :  -140.9500904 Eh     change       -0.3301354E-06 Eh
 * total energy  :  -140.9500904 Eh     change       -0.1017901E-07 Eh
   *** GEOMETRY OPTIMIZATION CONVERGED AFTER 22 ITERATIONS ***

 final structure:
================
92
 xtb: 6.7.1 (edcfbbe)
C           -4.26860519972113       -7.69118672172091       -0.23121841873439
C           -3.22962561840052       -8.60802858011309       -0.29330660558571
N           -1.95615946254275       -8.25334926964222       -0.31932406116540
C           -1.66276654552795       -6.96875971489511       -0.27743262488230
C           -2.61817502320073       -5.95299637103354       -0.20300062886459
C           -2.22661471891804       -4.54023682648743       -0.15445179741541
C           -2.93117485584615       -3.58106339001438       -0.87865131237917
C           -2.55457858771604       -2.25313269956067       -0.83618289789241
C           -1.47119062485860       -1.83492145804052       -0.07005385465141
Si          -0.95667279917524       -0.01502273648514        0.01535174300605
C           -1.62977423692831        0.77873527586698        1.59700392493017
C           -1.73678578592270        2.16324957099725        1.70270486384178
C           -2.20341394495252        2.75997652611095        2.85667452883170
C           -2.58819334880387        1.98351392033735        3.94801911753939
C           -3.09039100142279        2.61233944225322        5.17441578189306
C           -2.51290981352554        3.76951431532884        5.69494622509744
C           -3.02577676836421        4.31931895538987        6.85625857486984
C           -4.10238298543031        3.69091346467193        7.46441502634917
N           -4.66619867159205        2.59747191937135        6.97992731514072
C           -4.17634921545612        2.07851451691162        5.87146311564864
C           -2.49177325675590        0.59732851527650        3.84679937680877
C           -2.01688508540128        0.01033401405009        2.69059272638946
C           -1.65035387375296        0.92378692075213       -1.47543343608339
C           -0.87130596684422        1.19085852784748       -2.59687217878318
C           -1.39232417662360        1.85685297545523       -3.68863660006539
C           -2.72153265399675        2.27410232853724       -3.69518837862652
C           -3.28275026458691        2.97200113220800       -4.85690927092206
C           -2.55814946008253        3.93741295052434       -5.55440610588106
C           -3.13777445215285        4.56426818613657       -6.64300755611100
C           -4.42970324948468        4.20708371256523       -6.99964949976532
N           -5.12773781066673        3.28868647713957       -6.35349947690336
C           -4.57041788298963        2.69134804250745       -5.31884667781276
C           -3.50807044171979        2.01152754604877       -2.57504321990359
C           -2.97594787802178        1.35114448927434       -1.48594318431995
C            0.93492806828691        0.06472593033239        0.00834911594508
C            1.67128356628480       -0.78395842719682       -0.81460597051645
C            3.05019472584092       -0.73345755516274       -0.85036057404935
C            3.73320943103805        0.17253816874574       -0.04299535832446
N            5.13205020415734        0.22461570253680       -0.06747159614187
C            5.89639644421753        1.36489942904675       -0.21868899803218
C            5.49544770891049        2.67686601780672       -0.42653471389729
C            6.47889813471919        3.63584529595538       -0.57609566979012
C            7.83131601420016        3.30485677805713       -0.53045369867777
C            8.23614542252075        1.99757919767762       -0.34922879179924
C            7.26621549308944        1.01573234943465       -0.19650199294414
C            7.32174781619320       -0.40793741914268       -0.01589484357077
C            8.36604257411930       -1.31575443619581        0.10082717487332
C            8.06492731501057       -2.64877435467727        0.29565173072860
C            6.74294808715993       -3.07795122295088        0.39000234728937
C            5.68710957402071       -2.19396737986605        0.27663330549179
C            5.98304080497972       -0.85656091929901        0.05533539497779
C            3.01178421295977        1.02254851263434        0.79077975095233
C            1.63206331381353        0.96651443016884        0.80622008638707
C           -0.77144224691814       -2.79958164174292        0.65096176560030
C           -1.13674018220218       -4.13003138243251        0.61113651732528
C           -3.95608207295365       -6.34433359325672       -0.18396443861206
H           -5.29525733887019       -8.02343827507860       -0.21336099777009
H           -3.41968836030157       -9.67269701185667       -0.32379743977086
H           -0.60767159611030       -6.73031794899247       -0.32244142212777
H           -3.76501121836705       -3.88439286270207       -1.49572740656788
H           -3.10660159088865       -1.52476925349313       -1.41303130834442
H           -1.45469944018406        2.78046415837698        0.86093575559782
H           -2.29305318372655        3.83590165664146        2.90866335196065
H           -1.66028302752056        4.21754710691273        5.20410896797729
H           -2.59583881503242        5.21174242493967        7.28464826946062
H           -4.53538968242082        4.07526513513780        8.37838928090580
H           -4.68575259888095        1.19625941259013        5.50512108762092
H           -2.77250011231985       -0.01865379890420        4.68896144710619
H           -1.94683995260817       -1.06641118822455        2.63087398973214
H            0.16147871529723        0.87274302209144       -2.61093182493146
H           -0.77177164592802        2.03774726924366       -4.55486291286092
H           -1.56152263791534        4.20458120654455       -5.23202856932220
H           -2.60222181847698        5.31847833334927       -7.19901140656903
H           -4.93142338856322        4.67303033993396       -7.83734707506722
H           -5.17508025322323        1.93311144215202       -4.83765122254980
H           -4.53493044482027        2.34735035350963       -2.55447480511558
H           -3.59685223319010        1.16642538167148       -0.62031727436247
H            1.15101356455613       -1.49556544400778       -1.44015502699458
H            3.60638353791213       -1.38243378639085       -1.51073886055551
H            4.45000436387531        2.94107150430569       -0.48153556497275
H            6.19231872558119        4.66501753372415       -0.73560126042161
H            8.56946550702128        4.08414413215596       -0.64849534368890
H            9.28388107434612        1.73807271678307       -0.33043393150859
H            9.39054726659443       -0.98010559722173        0.04434051777215
H            8.86195373067527       -3.37163004498949        0.38645422887557
H            6.53845393089999       -4.12489118060786        0.55929441810508
H            4.66670577691211       -2.53428295361975        0.36942408537589
H            3.54021740124408        1.71035982349976        1.43442739667882
H            1.08230897352998        1.62656578829018        1.46169575791459
H            0.07676123673343       -2.49837938877556        1.25002089823056
H           -0.58880463881380       -4.85858742383826        1.19134779077056
H           -4.73703090307848       -5.60033546748335       -0.11237417898995

          :  Hamiltonian                  GFN2-xTB          :
         :: gradient norm              0.000051078544 Eh/a0 ::
         :: HOMO-LUMO gap              2.615566310225 eV    ::
         :: SCC energy              -143.585032687386 Eh    ::
         :: -> dispersion             -0.125666974033 Eh    ::
         :: repulsion energy           2.634942268562 Eh    ::

    * Orbital Energies and Occupations

         #    Occupation            Energy/Eh            Energy/eV
      -------------------------------------------------------------
         1        2.0000           -0.7639619             -20.7885
       ...           ...                  ...                  ...
       120        2.0000           -0.4119304             -11.2092
       121        2.0000           -0.4056209             -11.0375
       122        2.0000           -0.4040851             -10.9957
       123        2.0000           -0.4029489             -10.9648
       124        2.0000           -0.3997877             -10.8788
       125        2.0000           -0.3954136             -10.7598
       126        2.0000           -0.3928060             -10.6888
       127        2.0000           -0.3921368             -10.6706
       128        2.0000           -0.3782327             -10.2922
       129        2.0000           -0.3689495             -10.0396
       130        2.0000           -0.3688043             -10.0357
       131        2.0000           -0.3681324             -10.0174
       132        2.0000           -0.3625339              -9.8651 (HOMO)
       133                         -0.2664136              -7.2495 (LUMO)
       134                         -0.2648910              -7.2081
       135                         -0.2626023              -7.1458
       136                         -0.2507520              -6.8233
       137                         -0.2480694              -6.7503
       138                         -0.2479041              -6.7458
       139                         -0.2471034              -6.7240
       140                         -0.2422213              -6.5912
       141                         -0.2338400              -6.3631
       142                         -0.2309893              -6.2855
       143                         -0.2295923              -6.2475
       ...                                ...                  ...
       265                          0.7464359              20.3116
      -------------------------------------------------------------
                  HL-Gap            0.0961203 Eh            2.6156 eV

     #   Z          covCN         q      C6AA      α(0)
     1   6 C        2.912    -0.039    28.969     8.826
     2   6 C        2.914     0.058    26.710     8.475
     3   7 N        1.835    -0.219    26.608     7.644
     4   6 C        2.918     0.056    26.751     8.482
     5   6 C        2.973     0.000    28.015     8.682
     6   6 C        2.977     0.009    27.804     8.649
     7   6 C        2.922    -0.033    28.822     8.804
     8   6 C        2.934    -0.032    28.795     8.800
     9   6 C        2.863    -0.095    30.389     9.036
    10  14 Si       3.615     0.487    98.218    19.023
    11   6 C        2.863    -0.095    30.385     9.035
    12   6 C        2.936    -0.031    28.778     8.798
    13   6 C        2.922    -0.034    28.836     8.806
    14   6 C        2.977     0.009    27.806     8.650
    15   6 C        2.972     0.000    28.014     8.682
    16   6 C        2.934    -0.016    28.421     8.743
    17   6 C        2.912    -0.039    28.972     8.826
    18   6 C        2.914     0.058    26.710     8.475
    19   7 N        1.835    -0.219    26.604     7.644
    20   6 C        2.918     0.056    26.750     8.481
    21   6 C        2.922    -0.034    28.840     8.807
    22   6 C        2.934    -0.031    28.783     8.799
    23   6 C        2.863    -0.095    30.384     9.035
    24   6 C        2.934    -0.032    28.800     8.801
    25   6 C        2.922    -0.033    28.824     8.804
    26   6 C        2.977     0.009    27.808     8.650
    27   6 C        2.972     0.000    28.014     8.682
    28   6 C        2.933    -0.017    28.423     8.743
    29   6 C        2.912    -0.039    28.971     8.826
    30   6 C        2.914     0.057    26.711     8.475
    31   7 N        1.835    -0.219    26.607     7.644
    32   6 C        2.918     0.056    26.750     8.481
    33   6 C        2.922    -0.034    28.853     8.809
    34   6 C        2.936    -0.030    28.760     8.795
    35   6 C        2.862    -0.099    30.477     9.049
    36   6 C        2.938    -0.030    28.760     8.795
    37   6 C        2.919    -0.043    29.080     8.843
    38   6 C        2.914     0.066    26.526     8.445
    39   7 N        2.802    -0.045    22.100     6.982
    40   6 C        3.075     0.047    26.874     8.500
    41   6 C        2.910    -0.051    29.271     8.872
    42   6 C        2.924    -0.034    28.840     8.807
    43   6 C        2.920    -0.041    29.018     8.834
    44   6 C        2.913    -0.033    28.818     8.803
    45   6 C        3.068    -0.017    28.361     8.732
    46   6 C        3.068    -0.017    28.363     8.733
    47   6 C        2.913    -0.033    28.817     8.803
    48   6 C        2.920    -0.041    29.012     8.833
    49   6 C        2.924    -0.033    28.832     8.806
    50   6 C        2.910    -0.051    29.264     8.870
    51   6 C        3.076     0.047    26.874     8.499
    52   6 C        2.920    -0.043    29.074     8.842
    53   6 C        2.935    -0.032    28.788     8.799
    54   6 C        2.937    -0.031    28.762     8.796
    55   6 C        2.922    -0.034    28.852     8.809
    56   6 C        2.933    -0.016    28.420     8.743
    57   1 H        0.926     0.036     2.509     2.477
    58   1 H        0.925     0.039     2.467     2.456
    59   1 H        0.925     0.039     2.466     2.456
    60   1 H        0.926     0.031     2.575     2.510
    61   1 H        0.926     0.023     2.684     2.562
    62   1 H        0.925     0.021     2.712     2.575
    63   1 H        0.926     0.030     2.584     2.514
    64   1 H        0.926     0.035     2.521     2.483
    65   1 H        0.926     0.035     2.512     2.478
    66   1 H        0.925     0.039     2.466     2.456
    67   1 H        0.925     0.039     2.464     2.455
    68   1 H        0.926     0.032     2.555     2.500
    69   1 H        0.926     0.024     2.673     2.557
    70   1 H        0.926     0.023     2.687     2.563
    71   1 H        0.926     0.031     2.579     2.511
    72   1 H        0.926     0.035     2.519     2.482
    73   1 H        0.926     0.035     2.512     2.478
    74   1 H        0.925     0.039     2.467     2.456
    75   1 H        0.925     0.039     2.466     2.456
    76   1 H        0.926     0.032     2.558     2.501
    77   1 H        0.926     0.022     2.699     2.569
    78   1 H        0.926     0.025     2.654     2.547
    79   1 H        0.926     0.039     2.458     2.452
    80   1 H        0.926     0.026     2.641     2.541
    81   1 H        0.926     0.028     2.611     2.527
    82   1 H        0.926     0.028     2.617     2.530
    83   1 H        0.926     0.031     2.571     2.508
    84   1 H        0.926     0.031     2.572     2.508
    85   1 H        0.926     0.028     2.610     2.526
    86   1 H        0.926     0.029     2.594     2.519
    87   1 H        0.926     0.027     2.631     2.537
    88   1 H        0.926     0.039     2.465     2.455
    89   1 H        0.926     0.026     2.642     2.542
    90   1 H        0.925     0.022     2.709     2.574
    91   1 H        0.926     0.032     2.557     2.501
    92   1 H        0.926     0.035     2.514     2.479

molecular dipole:
                 x           y           z       tot (Debye)
 q only:        0.026       0.493      -0.031
   full:        0.323       1.026      -0.082       2.741

 projected vibrational frequencies (cm⁻¹)
eigval :       -0.00    -0.00    -0.00     0.00     0.00     0.00
eigval :        7.08     8.53     9.79    11.94    12.46    15.81
eigval :       18.68    20.29    25.81    39.42    42.21    52.51
eigval :       57.51    62.02    70.60    71.45    72.92    77.97
eigval :       78.23    83.24    85.04   103.72   120.28   135.65
eigval :      144.85   150.55   158.05   166.06   169.01   178.85
eigval :      193.31   202.09   221.14   252.27   266.92   271.77
eigval :      275.50   280.53   291.35   309.33   319.16   332.58
eigval :      357.88   359.79   360.96   362.58   365.93   368.78
eigval :      372.32   373.47   375.12   377.95   387.77   393.56
eigval :      400.60   423.73   437.23   473.80   474.82   476.24
eigval :      483.04   510.96   513.37   518.76   519.97   534.56
eigval :      536.42   537.56   538.73   541.24   581.43   594.97
eigval :      595.56   596.22   597.32   605.63   606.84   607.86
eigval :      613.84   639.39   664.26   667.41   668.71   673.90
eigval :      679.18   680.54   680.98   682.27   692.24   692.36
eigval :      692.73   708.46   743.71   759.25   769.68   776.54
eigval :      776.94   777.41   778.18   781.03   784.69   785.16
eigval :      810.56   814.11   814.58   815.67   867.88   873.85
eigval :      876.49   877.37   878.63   885.17   898.08   902.22
eigval :      902.26   902.50   902.89   903.30   913.29   913.36
eigval :      913.53   920.42   921.57   921.83   922.92   923.88
eigval :      927.98   929.03   929.19   929.61   932.44   932.75
eigval :      933.84   934.59   937.45   977.64   978.43   978.49
eigval :     1009.23  1009.95  1010.01  1012.15  1015.41  1070.47
eigval :     1074.04  1083.79  1084.27  1084.31  1097.17  1097.20
eigval :     1097.23  1118.27  1137.89  1138.36  1138.44  1138.91
eigval :     1146.14  1146.56  1147.88  1148.16  1153.05  1153.17
eigval :     1155.21  1155.68  1177.00  1181.40  1186.22  1196.46
eigval :     1196.64  1196.80  1209.25  1209.83  1210.13  1213.19
eigval :     1236.89  1246.38  1266.50  1266.59  1266.68  1274.10
eigval :     1276.03  1276.26  1276.94  1281.73  1282.05  1283.30
eigval :     1298.04  1298.17  1298.61  1300.46  1303.39  1309.67
eigval :     1309.80  1311.00  1311.66  1357.27  1362.00  1366.46
eigval :     1381.98  1382.38  1383.52  1395.62  1405.91  1406.31
eigval :     1406.70  1428.30  1429.74  1443.89  1444.05  1444.20
eigval :     1476.35  1488.34  1489.12  1490.86  1491.01  1491.14
eigval :     1551.17  1551.59  1552.21  1555.48  1564.63  1564.73
eigval :     1564.75  1573.01  1573.06  1573.22  1575.25  1588.32
eigval :     1590.19  1594.10  1594.20  1595.55  1599.27  1615.44
eigval :     3053.25  3053.29  3053.64  3060.86  3060.87  3060.91
eigval :     3061.95  3063.41  3064.40  3066.58  3066.92  3068.53
eigval :     3068.65  3069.61  3069.80  3069.89  3072.92  3075.62
eigval :     3076.67  3076.72  3079.20  3079.48  3080.39  3080.68
eigval :     3081.04  3082.22  3082.53  3087.14  3088.22  3088.79
eigval :     3089.85  3091.13  3091.19  3091.38  3095.20  3096.89

   temp. (K)  partition function   enthalpy   heat capacity  entropy
                                   cal/mol     cal/K/mol   cal/K/mol   J/K/mol
 298.15  VIB  0.470E+25            27662.144    166.611    178.415
         ROT  0.197E+09              888.752      2.981     40.931
         INT  0.925E+33            28550.896    169.592    219.346
         TR   0.192E+29             1481.254      4.968     45.635
         TOT                       30032.1498   174.5604   264.9807  1108.6791

       T/K    H(0)-H(T)+PV         H(T)/Eh          T*S/Eh         G(T)/Eh
   ------------------------------------------------------------------------
    298.15    0.478593E-01    0.751839E+00    0.125901E+00    0.625938E+00
   ------------------------------------------------------------------------

         :::::::::::::::::::::::::::::::::::::::::::::::::::::
         ::                  THERMODYNAMIC                  ::
         :::::::::::::::::::::::::::::::::::::::::::::::::::::
         :: total free energy        -140.324152183789 Eh   ::
         ::.................................................::
         :: total energy             -140.950090418842 Eh   ::
         :: zero point energy           0.703979823942 Eh   ::
         :: G(RRHO) w/o ZPVE           -0.078041588889 Eh   ::
         :: G(RRHO) contrib.            0.625938235053 Eh   ::
         :::::::::::::::::::::::::::::::::::::::::::::::::::::

           -------------------------------------------------
          | TOTAL ENERGY             -140.950090418842 Eh   |
          | TOTAL ENTHALPY           -140.198251317763 Eh   |
          | TOTAL FREE ENERGY        -140.324152183789 Eh   |
          | GRADIENT NORM               0.000051050144 Eh/α |
          | HOMO-LUMO GAP               2.615566411581 eV   |
           -------------------------------------------------

 * finished run on 2025/08/30 at 08:46:10.987
