   * xtb version 6.7.1 (edcfbbe) compiled by 'albert@albert-system' on 2024-07-22

   ID    Z sym.   atoms
    1    6 C      1, 2, 4-9, 11-18, 20-30, 32-38, 40-56
    2    7 N      3, 19, 31, 39
    3   14 Si     10
    4    1 H      57-92

          program call               : xtb data2507/gas/SiCz1Py3/SiCz1Py3.xyz --gfn 2 --ohess vtight --parallel 40 --molden --ceasefiles --namespace data2507/gas/SiCz1Py3/SiCz1Py3_gas_S0_preOpt
          :  Hamiltonian                  GFN2-xTB          :
 * total energy  :  -140.9260622 Eh     change       -0.2616900E-08 Eh
 * total energy  :  -140.9446060 Eh     change       -0.1854372E-01 Eh
 * total energy  :  -140.9479823 Eh     change       -0.3376299E-02 Eh
 * total energy  :  -140.9485363 Eh     change       -0.5540777E-03 Eh
 * total energy  :  -140.9490431 Eh     change       -0.5067568E-03 Eh
 * total energy  :  -140.9492672 Eh     change       -0.2240942E-03 Eh
 * total energy  :  -140.9494537 Eh     change       -0.1865364E-03 Eh
 * total energy  :  -140.9496131 Eh     change       -0.1593535E-03 Eh
 * total energy  :  -140.9497415 Eh     change       -0.1284430E-03 Eh
 * total energy  :  -140.9498474 Eh     change       -0.1058795E-03 Eh
 * total energy  :  -140.9500799 Eh     change       -0.4242758E-06 Eh
 * total energy  :  -140.9500803 Eh     change       -0.3801942E-06 Eh
 * total energy  :  -140.9500807 Eh     change       -0.3582260E-06 Eh
 * total energy  :  -140.9500811 Eh     change       -0.3815941E-06 Eh
 * total energy  :  -140.9500815 Eh     change       -0.4735019E-06 Eh
 * total energy  :  -140.9500821 Eh     change       -0.5673542E-06 Eh
 * total energy  :  -140.9500828 Eh     change       -0.6434374E-06 Eh
 * total energy  :  -140.9500832 Eh     change       -0.4736036E-06 Eh
 * total energy  :  -140.9500832 Eh     change       -0.3444057E-08 Eh
   *** GEOMETRY OPTIMIZATION CONVERGED AFTER 68 ITERATIONS ***

 final structure:
================
92
 xtb: 6.7.1 (edcfbbe)
C           -4.40481414274659       -7.66136048277281       -0.19799922789260
C           -3.38009665101164       -8.59456639013969       -0.25289560089229
N           -2.10134534655336       -8.25977936355435       -0.28297125131776
C           -1.78821720395406       -6.97954821734164       -0.25200400104726
C           -2.72784174774171       -5.94866952648142       -0.18519886315762
C           -2.31429143125134       -4.54186737021632       -0.14715306097839
C           -3.00257483689947       -3.57722199827741       -0.87965392687141
C           -2.60570124234699       -2.25496345671977       -0.84565644097696
C           -1.51787673881046       -1.84798993412888       -0.07973800734886
Si          -0.97964465045955       -0.03459473990555        0.00035033225951
C           -1.67388848086309        0.77791593847874        1.56330399834819
C           -1.75289695076954        2.16477490921916        1.66279041402871
C           -2.24124178374314        2.77495258730978        2.80059400346697
C           -2.67743590570813        2.01023725834196        3.88085288551634
C           -3.20699112312077        2.65405138581961        5.08783785632946
C           -2.62247651544792        3.80009316317424        5.62482476549833
C           -3.16405542896528        4.36618317660881        6.76509015539474
C           -4.27578654320878        3.76479190069964        7.33624314343869
N           -4.84613496123219        2.68194396820002        6.83586813288305
C           -4.32865745594926        2.14734849710676        5.74757278785905
C           -2.60762575761811        0.62200933991054        3.78621590705917
C           -2.11020833928549        0.02136635660481        2.64655831896148
C           -1.63814401297064        0.90343619016025       -1.50694042181495
C           -0.83547238253804        1.16933673402543       -2.61180759315261
C           -1.33334542246238        1.83364714649994       -3.71538522196646
C           -2.66238238062223        2.24979396158974       -3.75117793593052
C           -3.19911003875625        2.94456977662729       -4.92628734492191
C           -2.46155757454173        3.91101667753437       -5.60856038229907
C           -3.01793630743760        4.53445213676777       -6.71116705083906
C           -4.30023507752847        4.17271392261603       -7.09683242934139
N           -5.01021792188007        3.25334734129488       -6.46526043521168
C           -4.47507439728475        2.65943140293832       -5.41700096335719
C           -3.47240240952597        1.98916356139188       -2.64745441977940
C           -2.96315377193920        1.33120710724907       -1.54604573147075
C            0.91245428625385        0.01928076171931        0.02671270052357
C            1.65060950628103       -0.81543418786971       -0.80891260736896
C            3.03048871842228       -0.78287205469342       -0.82191477460941
C            3.71270043384205        0.08872635086260        0.02320563106262
N            5.11220259515161        0.12448124664913        0.02117462516674
C            5.89081901606810        1.26106503150302       -0.07707069329148
C            5.50713006639277        2.58387238981551       -0.24514175930051
C            6.50279751195808        3.53669541450318       -0.34482845558016
C            7.85076174342436        3.18955662568370       -0.28903528123034
C            8.23887917531797        1.87232924398168       -0.14776292039102
C            7.25637076715860        0.89644487260545       -0.04545682961315
C            7.29421057777887       -0.53328658805287        0.08466162375805
C            8.32734633609604       -1.45569969657983        0.18491944123929
C            8.00982383176986       -2.79169648924046        0.32575519436661
C            6.68223132414028       -3.20987042667708        0.38313773647459
C            5.63726211051263       -2.31113062298495        0.28579831981102
C            5.94996320839915       -0.96970266947690        0.11830598826580
C            2.98924130445773        0.92222945030637        0.87184797386187
C            1.60880075395325        0.88605575239199        0.86304865165102
C           -0.83421572633451       -2.81817107392384        0.64922753944734
C           -1.21957220192805       -4.14316290503348        0.61755798651724
C           -4.07159772843123       -6.31911016303457       -0.16230043479551
H           -5.43643202957537       -7.97763881402607       -0.17666817469652
H           -3.58651366206750       -9.65641288138968       -0.27393662772471
H           -0.72965830700667       -6.75757087233447       -0.29978180139703
H           -3.83993530879244       -3.87209371285795       -1.49607108324280
H           -3.14530174012054       -1.52237092231553       -1.42882032435145
H           -1.43132977783933        2.77306316412468        0.82872640254620
H           -2.30848029402257        3.85273343948121        2.84762036279874
H           -1.74303100534998        4.22686528829411        5.16322907876496
H           -2.72974797605140        5.25059412690632        7.20551657390909
H           -4.73283824296362        4.16297034215527        8.23241612610011
H           -4.84410365196781        1.27493361908564        5.36640822001580
H           -2.92778475420990        0.01481645638198        4.62067312818527
H           -2.06138198287175       -1.05683574085012        2.59158120602805
H            0.19756538200047        0.85195469092016       -2.60348579655147
H           -0.69447491366116        2.01387312957573       -4.56834213351828
H           -1.47335101927244        4.18161772903786       -5.26388469016640
H           -2.47199282314006        5.28944007088062       -7.25588695655245
H           -4.78392404985083        4.63555582977712       -7.94677054285043
H           -5.08837949231420        1.90029508252114       -4.94831618570572
H           -4.49961586778254        2.32455800484293       -2.64939725576295
H           -3.60196041712462        1.14889996998616       -0.69299952975366
H            1.13097612921810       -1.50146800447161       -1.46295107352992
H            3.58816876282768       -1.41892863413648       -1.49348694333894
H            4.46563284856560        2.86145493205156       -0.30818059393916
H            6.22950466162268        4.57387351148325       -0.47263823918193
H            8.59879949030298        3.96438560121970       -0.36751577965685
H            9.28340196726683        1.60081691695729       -0.12143123003769
H            9.35592540291079       -1.12900253835914        0.15728393948038
H            8.79799737978832       -3.52579760005012        0.40258610907466
H            6.46447364039680       -4.26011057108942        0.51020240030149
H            4.61226352816277       -2.64406953521784        0.35012294504417
H            3.51629415845468        1.58178238225065        1.54548129637565
H            1.05753959795706        1.53414735917224        1.52912020150316
H            0.01682712969094       -2.52555510822465        1.24849229310202
H           -0.68406772807073       -4.87603802007182        1.20389905593706
H           -4.84093771061093       -5.56256591481180       -0.09663942365825

          :  Hamiltonian                  GFN2-xTB          :
         :: gradient norm              0.000042348497 Eh/a0 ::
         :: HOMO-LUMO gap              2.617192826936 eV    ::
         :: SCC energy              -143.584995751575 Eh    ::
         :: -> dispersion             -0.125666672640 Eh    ::
         :: repulsion energy           2.634912521597 Eh    ::

    * Orbital Energies and Occupations

         #    Occupation            Energy/Eh            Energy/eV
      -------------------------------------------------------------
         1        2.0000           -0.7639188             -20.7873
       ...           ...                  ...                  ...
       120        2.0000           -0.4119059             -11.2085
       121        2.0000           -0.4056180             -11.0374
       122        2.0000           -0.4040425             -10.9946
       123        2.0000           -0.4029825             -10.9657
       124        2.0000           -0.3998659             -10.8809
       125        2.0000           -0.3953667             -10.7585
       126        2.0000           -0.3927499             -10.6873
       127        2.0000           -0.3921269             -10.6703
       128        2.0000           -0.3782778             -10.2935
       129        2.0000           -0.3689255             -10.0390
       130        2.0000           -0.3688037             -10.0357
       131        2.0000           -0.3681036             -10.0166
       132        2.0000           -0.3625712              -9.8661 (HOMO)
       133                         -0.2663911              -7.2489 (LUMO)
       134                         -0.2647546              -7.2043
       135                         -0.2625299              -7.1438
       136                         -0.2507854              -6.8242
       137                         -0.2480423              -6.7496
       138                         -0.2479051              -6.7458
       139                         -0.2470793              -6.7234
       140                         -0.2422409              -6.5917
       141                         -0.2337925              -6.3618
       142                         -0.2309562              -6.2846
       143                         -0.2295668              -6.2468
       ...                                ...                  ...
       265                          0.7463556              20.3094
      -------------------------------------------------------------
                  HL-Gap            0.0961802 Eh            2.6172 eV

     #   Z          covCN         q      C6AA      α(0)
     1   6 C        2.912    -0.039    28.969     8.826
     2   6 C        2.914     0.058    26.710     8.475
     3   7 N        1.835    -0.219    26.607     7.644
     4   6 C        2.918     0.056    26.751     8.482
     5   6 C        2.973     0.000    28.015     8.682
     6   6 C        2.977     0.009    27.804     8.649
     7   6 C        2.922    -0.033    28.822     8.804
     8   6 C        2.934    -0.032    28.795     8.801
     9   6 C        2.863    -0.095    30.388     9.036
    10  14 Si       3.615     0.487    98.218    19.023
    11   6 C        2.863    -0.095    30.387     9.036
    12   6 C        2.936    -0.031    28.777     8.798
    13   6 C        2.922    -0.034    28.836     8.806
    14   6 C        2.977     0.009    27.807     8.650
    15   6 C        2.973     0.000    28.014     8.682
    16   6 C        2.933    -0.016    28.421     8.743
    17   6 C        2.912    -0.039    28.972     8.826
    18   6 C        2.914     0.057    26.711     8.475
    19   7 N        1.835    -0.219    26.604     7.644
    20   6 C        2.918     0.056    26.750     8.481
    21   6 C        2.922    -0.034    28.841     8.807
    22   6 C        2.934    -0.031    28.782     8.799
    23   6 C        2.863    -0.095    30.383     9.035
    24   6 C        2.934    -0.032    28.802     8.801
    25   6 C        2.922    -0.033    28.825     8.804
    26   6 C        2.977     0.009    27.808     8.650
    27   6 C        2.972     0.000    28.014     8.682
    28   6 C        2.933    -0.017    28.422     8.743
    29   6 C        2.912    -0.039    28.971     8.826
    30   6 C        2.914     0.057    26.711     8.475
    31   7 N        1.835    -0.219    26.606     7.644
    32   6 C        2.918     0.056    26.750     8.481
    33   6 C        2.922    -0.034    28.853     8.809
    34   6 C        2.937    -0.030    28.759     8.795
    35   6 C        2.862    -0.099    30.479     9.049
    36   6 C        2.938    -0.030    28.760     8.795
    37   6 C        2.919    -0.044    29.083     8.843
    38   6 C        2.914     0.066    26.526     8.446
    39   7 N        2.802    -0.045    22.099     6.982
    40   6 C        3.075     0.047    26.875     8.500
    41   6 C        2.910    -0.051    29.271     8.872
    42   6 C        2.924    -0.034    28.840     8.807
    43   6 C        2.920    -0.041    29.017     8.834
    44   6 C        2.913    -0.033    28.818     8.803
    45   6 C        3.068    -0.017    28.360     8.732
    46   6 C        3.068    -0.017    28.362     8.733
    47   6 C        2.913    -0.033    28.817     8.803
    48   6 C        2.920    -0.041    29.011     8.833
    49   6 C        2.924    -0.033    28.832     8.806
    50   6 C        2.910    -0.051    29.264     8.870
    51   6 C        3.075     0.047    26.874     8.500
    52   6 C        2.920    -0.043    29.076     8.843
    53   6 C        2.935    -0.032    28.789     8.800
    54   6 C        2.937    -0.031    28.762     8.796
    55   6 C        2.922    -0.034    28.851     8.808
    56   6 C        2.933    -0.016    28.420     8.743
    57   1 H        0.926     0.036     2.509     2.477
    58   1 H        0.925     0.039     2.467     2.456
    59   1 H        0.925     0.039     2.466     2.456
    60   1 H        0.926     0.031     2.575     2.510
    61   1 H        0.926     0.023     2.682     2.561
    62   1 H        0.925     0.021     2.711     2.575
    63   1 H        0.926     0.030     2.584     2.514
    64   1 H        0.926     0.035     2.521     2.483
    65   1 H        0.926     0.035     2.512     2.478
    66   1 H        0.925     0.039     2.466     2.456
    67   1 H        0.925     0.039     2.465     2.455
    68   1 H        0.926     0.032     2.556     2.500
    69   1 H        0.926     0.024     2.676     2.558
    70   1 H        0.926     0.023     2.684     2.562
    71   1 H        0.926     0.030     2.579     2.511
    72   1 H        0.926     0.035     2.519     2.482
    73   1 H        0.926     0.035     2.512     2.478
    74   1 H        0.925     0.039     2.467     2.456
    75   1 H        0.925     0.039     2.466     2.456
    76   1 H        0.926     0.032     2.559     2.501
    77   1 H        0.926     0.022     2.701     2.570
    78   1 H        0.926     0.025     2.654     2.548
    79   1 H        0.926     0.039     2.458     2.452
    80   1 H        0.926     0.026     2.639     2.541
    81   1 H        0.926     0.028     2.611     2.527
    82   1 H        0.926     0.028     2.616     2.529
    83   1 H        0.926     0.031     2.571     2.508
    84   1 H        0.926     0.031     2.572     2.508
    85   1 H        0.926     0.028     2.610     2.526
    86   1 H        0.926     0.029     2.594     2.519
    87   1 H        0.926     0.027     2.630     2.536
    88   1 H        0.926     0.039     2.465     2.455
    89   1 H        0.926     0.026     2.643     2.542
    90   1 H        0.926     0.022     2.709     2.574
    91   1 H        0.926     0.032     2.557     2.501
    92   1 H        0.926     0.035     2.514     2.479

molecular dipole:
                 x           y           z       tot (Debye)
 q only:        0.043       0.496      -0.024
   full:        0.350       1.028      -0.059       2.763

 projected vibrational frequencies (cm⁻¹)
eigval :       -0.00    -0.00    -0.00     0.00     0.00     0.00
eigval :        7.13     8.58     9.76    12.05    12.44    15.62
eigval :       18.91    19.62    25.38    39.61    42.24    52.33
eigval :       57.51    62.10    70.59    71.06    72.77    78.04
eigval :       78.45    83.19    84.93   103.77   120.14   136.04
eigval :      144.99   150.42   158.07   166.19   168.93   178.93
eigval :      193.20   201.89   221.22   252.36   267.00   271.82
eigval :      275.29   280.49   291.38   309.69   318.91   332.41
eigval :      357.85   359.73   361.00   362.44   366.00   368.66
eigval :      372.64   373.37   375.12   377.81   387.63   393.50
eigval :      400.59   423.78   437.36   473.91   474.99   476.40
eigval :      483.21   510.71   513.40   518.82   520.09   534.72
eigval :      536.35   537.58   538.60   541.24   581.46   594.97
eigval :      595.57   596.24   597.34   605.63   606.85   607.85
eigval :      613.86   639.39   664.41   667.29   668.56   673.94
eigval :      679.22   680.55   680.92   682.30   692.24   692.37
eigval :      692.75   708.50   743.75   759.27   769.73   776.62
eigval :      776.98   777.40   778.13   781.07   784.63   785.11
eigval :      810.74   814.02   814.58   815.60   867.87   873.93
eigval :      876.39   877.42   878.57   885.41   898.04   902.21
eigval :      902.27   902.49   902.95   903.34   913.28   913.36
eigval :      913.52   920.41   921.53   921.80   922.96   923.82
eigval :      928.01   929.02   929.15   929.86   932.40   932.63
eigval :      933.87   934.53   937.70   977.65   978.42   978.49
eigval :     1009.24  1009.95  1010.01  1012.11  1015.38  1070.58
eigval :     1074.15  1083.82  1084.31  1084.33  1097.15  1097.18
eigval :     1097.21  1118.31  1137.89  1138.38  1138.46  1138.91
eigval :     1146.06  1146.50  1147.89  1148.06  1153.16  1153.31
eigval :     1155.08  1155.56  1177.02  1181.39  1186.22  1196.43
eigval :     1196.64  1196.79  1209.24  1209.81  1210.05  1213.15
eigval :     1236.85  1246.38  1266.45  1266.56  1266.62  1274.03
eigval :     1276.03  1276.23  1276.89  1281.70  1282.02  1283.27
eigval :     1298.04  1298.30  1298.62  1300.49  1303.22  1309.66
eigval :     1309.79  1310.97  1311.67  1357.26  1361.95  1366.34
eigval :     1381.98  1382.41  1383.52  1395.61  1405.90  1406.30
eigval :     1406.68  1428.21  1429.69  1443.87  1444.03  1444.21
eigval :     1476.30  1488.31  1489.08  1490.86  1491.00  1491.13
eigval :     1551.20  1551.62  1552.22  1555.41  1564.63  1564.75
eigval :     1564.77  1573.04  1573.09  1573.24  1575.26  1588.28
eigval :     1590.16  1594.09  1594.19  1595.55  1599.24  1615.39
eigval :     3053.24  3053.30  3053.61  3060.83  3060.88  3060.92
eigval :     3061.98  3063.55  3064.14  3066.72  3067.01  3068.35
eigval :     3068.53  3069.52  3069.68  3069.87  3072.90  3075.67
eigval :     3076.68  3076.75  3079.33  3079.55  3080.43  3080.57
eigval :     3081.10  3082.27  3082.35  3087.22  3088.32  3088.92
eigval :     3089.95  3091.15  3091.22  3091.40  3095.23  3096.89

   temp. (K)  partition function   enthalpy   heat capacity  entropy
                                   cal/mol     cal/K/mol   cal/K/mol   J/K/mol
 298.15  VIB  0.485E+25            27663.267    166.602    178.437
         ROT  0.197E+09              888.752      2.981     40.932
         INT  0.954E+33            28552.020    169.583    219.370
         TR   0.192E+29             1481.254      4.968     45.635
         TOT                       30033.2737   174.5515   265.0044  1108.7786

       T/K    H(0)-H(T)+PV         H(T)/Eh          T*S/Eh         G(T)/Eh
   ------------------------------------------------------------------------
    298.15    0.478611E-01    0.751839E+00    0.125912E+00    0.625926E+00
   ------------------------------------------------------------------------

         :::::::::::::::::::::::::::::::::::::::::::::::::::::
         ::                  THERMODYNAMIC                  ::
         :::::::::::::::::::::::::::::::::::::::::::::::::::::
         :: total free energy        -140.324156749570 Eh   ::
         ::.................................................::
         :: total energy             -140.950083229972 Eh   ::
         :: zero point energy           0.703977575421 Eh   ::
         :: G(RRHO) w/o ZPVE           -0.078051095019 Eh   ::
         :: G(RRHO) contrib.            0.625926480402 Eh   ::
         :::::::::::::::::::::::::::::::::::::::::::::::::::::

           -------------------------------------------------
          | TOTAL ENERGY             -140.950083229972 Eh   |
          | TOTAL ENTHALPY           -140.198244586367 Eh   |
          | TOTAL FREE ENERGY        -140.324156749570 Eh   |
          | GRADIENT NORM               0.000042345537 Eh/α |
          | HOMO-LUMO GAP               2.617195606754 eV   |
           -------------------------------------------------

 * finished run on 2025/08/30 at 08:37:32.903
