   * xtb version 6.7.1 (edcfbbe) compiled by 'albert@albert-system' on 2024-07-22

   ID    Z sym.   atoms
    1    6 C      1-27
    2    7 N      28
    3    1 H      29-51

          program call               : xtb data2507/gas/MPAc/MPAc_gas_T1_crest.xyz --gfn 2 --spinpol --tblite --uhf 2 --ohess vtight --parallel 40 --molden --ceasefiles --namespace data2507/gas/MPAc/MPAc_gas_T1_finalOpt
 * total energy  :   -72.3762465 Eh     change        0.1955949E-07 Eh
 * total energy  :   -72.3762643 Eh     change       -0.1789249E-04 Eh
 * total energy  :   -72.3762720 Eh     change       -0.7699767E-05 Eh
 * total energy  :   -72.3762735 Eh     change       -0.1432609E-05 Eh
 * total energy  :   -72.3762744 Eh     change       -0.8921084E-06 Eh
 * total energy  :   -72.3762749 Eh     change       -0.5624503E-06 Eh
 * total energy  :   -72.3762755 Eh     change       -0.5916540E-06 Eh
 * total energy  :   -72.3762759 Eh     change       -0.4083747E-06 Eh
 * total energy  :   -72.3762762 Eh     change       -0.2728665E-06 Eh
 * total energy  :   -72.3762764 Eh     change       -0.1929413E-06 Eh
 * total energy  :   -72.3762766 Eh     change       -0.1845947E-06 Eh
 * total energy  :   -72.3762768 Eh     change       -0.1688373E-06 Eh
 * total energy  :   -72.3762770 Eh     change       -0.2231443E-06 Eh
 * total energy  :   -72.3762771 Eh     change       -0.1598900E-06 Eh
 * total energy  :   -72.3762773 Eh     change       -0.1460974E-06 Eh
 * total energy  :   -72.3762774 Eh     change       -0.1428296E-06 Eh
 * total energy  :   -72.3762775 Eh     change       -0.1038310E-06 Eh
 * total energy  :   -72.3762777 Eh     change       -0.1405135E-06 Eh
 * total energy  :   -72.3762777 Eh     change       -0.7277360E-07 Eh
   *** GEOMETRY OPTIMIZATION CONVERGED AFTER 19 ITERATIONS ***

 final structure:
================
51
 xtb: 6.7.1 (edcfbbe)
C            5.06774193036804       -0.26647787682026       -0.07912585226478
C            3.72024260317326       -0.79845612085916        0.28342397537446
C            3.61524588406933       -2.05666906779844        0.93751860812405
C            2.39633062359244       -2.55465731332988        1.28332564925442
C            1.21700118253858       -1.82851634115684        1.00370076308744
C            1.30427619489448       -0.55750463913626        0.33774359208257
C            2.55610068699330       -0.09399665531599       -0.00573527801839
C            0.04603761584227        0.18301968101790       -0.03292711960863
C            0.27291503433299        1.64098900760231        0.31902241456657
C            0.80633568501343        2.54844737361725       -0.59135771910262
C            1.04853975898637        3.85882127798345       -0.21731190727683
C            0.77308705828186        4.28131401600454        1.07096955248695
C            0.26016013378250        3.37830203332164        1.98942331082940
C            0.01539296281199        2.07063221927609        1.61623474721688
C           -0.29334146368596       -0.06416508876123       -1.50291345419421
C            0.09309806469636       -1.24766892183918       -2.13338136829091
C           -0.26189493503956       -1.50047008738243       -3.44236961518446
C           -1.01302428631003       -0.58006001391767       -4.15950545539437
C           -1.40778083029185        0.59589553859724       -3.54035815947282
C           -1.06162641505458        0.84971455016806       -2.22894030645571
C           -1.19364323984942       -0.36882685623244        0.61391397931781
C           -2.40767417501308        0.30388348454987        0.59803400017827
C           -3.57780637365209       -0.26304796415649        1.05833191411137
C           -4.87133708564788        0.48085476207377        1.05587819114532
C           -3.55361768014412       -1.61146622445498        1.55800415664363
C           -2.37879973485250       -2.29742515328124        1.61580936629430
C           -1.17930435858128       -1.70606374223272        1.18174583963562
N            0.00665696599365       -2.33797167853613        1.34288703806218
H            4.98634920766108        0.70390395219997       -0.56197190390725
H            5.69009600812917       -0.16176032665370        0.81085144645043
H            5.58047257901866       -0.95126664040113       -0.75647730292421
H            4.51578945316550       -2.61081826529352        1.15463378251709
H            2.30749290298567       -3.51290561582015        1.77810600675345
H            2.64176023045026        0.85447266446564       -0.51444216236384
H            1.02789683309060        2.23340980282582       -1.60094082909526
H            1.45707025344308        4.55246419312163       -0.93846492142763
H            0.96007068645683        5.30499354081882        1.36017395476920
H            0.05114174807872        3.69524639197434        3.00092290309049
H           -0.38315852871767        1.37077180205353        2.33704512084570
H            0.68856722605717       -1.97344740173202       -1.59896336648172
H            0.05370386956464       -2.42177786021368       -3.91094694160285
H           -1.28755876596127       -0.77785676265378       -5.18468628797395
H           -1.99567459192886        1.32128777174109       -4.08478102984985
H           -1.38746407157374        1.76915197225816       -1.76702577285337
H           -2.43470321550489        1.31478106203608        0.21791452147724
H           -4.74427922817769        1.48573120260077        0.66131239618415
H           -5.60937980246562       -0.04336558566735        0.44673056275121
H           -5.27517668154956        0.55017246558778        2.06736328274126
H           -4.47514772757524       -2.06003252555902        1.89329806125324
H           -2.34500329132820       -3.30509249999935        2.00989336238772
H           -0.00747519636697       -3.25361627779073        1.77820381721110

 projected vibrational frequencies (cm⁻¹)
eigval :       -0.00    -0.00    -0.00    -0.00     0.00     0.00
eigval :       20.54    39.26    47.75    55.94    58.07    60.10
eigval :       68.55    74.38    85.41    97.84   149.36   158.12
eigval :      182.83   198.49   223.95   234.56   251.24   257.32
eigval :      273.02   296.64   299.74   333.59   345.71   362.93
eigval :      373.21   375.95   386.28   389.97   412.29   440.61
eigval :      458.84   478.89   487.64   504.51   567.00   575.66
eigval :      582.62   586.84   591.65   603.52   612.64   631.33
eigval :      650.70   658.82   669.55   671.32   711.95   743.81
eigval :      755.94   764.69   774.78   783.04   802.92   840.46
eigval :      861.50   870.53   872.44   876.14   881.41   885.49
eigval :      889.12   893.30   903.86   917.90   925.21   926.84
eigval :      928.45   944.45   952.06   971.95   984.78   996.13
eigval :      997.76  1014.81  1018.57  1081.93  1084.78  1089.78
eigval :     1111.33  1124.41  1131.49  1154.07  1164.94  1170.91
eigval :     1176.65  1180.42  1181.66  1192.64  1200.58  1202.90
eigval :     1211.08  1223.64  1244.58  1246.81  1283.08  1289.10
eigval :     1296.51  1302.31  1323.09  1323.95  1332.41  1366.10
eigval :     1377.08  1398.41  1402.05  1411.03  1415.17  1426.97
eigval :     1434.41  1444.08  1457.79  1458.77  1471.51  1472.58
eigval :     1474.87  1484.30  1491.47  1495.04  1524.32  1535.41
eigval :     1535.86  1566.19  1575.94  1586.81  2972.54  2974.71
eigval :     2992.79  2994.17  3043.47  3045.10  3047.15  3051.92
eigval :     3067.43  3068.10  3068.71  3069.38  3077.84  3079.40
eigval :     3082.41  3082.75  3088.82  3089.14  3090.23  3092.57
eigval :     3093.97  3098.20  3362.12

   temp. (K)  partition function   enthalpy   heat capacity  entropy
                                   cal/mol     cal/K/mol   cal/K/mol   J/K/mol
 298.15  VIB  0.486E+10            13750.080     88.979     84.844
         ROT  0.113E+08              888.752      2.981     35.254
         INT  0.549E+17            14638.832     91.960    120.098
         TR   0.665E+28             1481.254      4.968     43.529
         TOT                       16120.0859    96.9284   163.6269   684.6148

       T/K    H(0)-H(T)+PV         H(T)/Eh          T*S/Eh         G(T)/Eh
   ------------------------------------------------------------------------
    298.15    0.256890E-01    0.429698E+00    0.777444E-01    0.351954E+00
   ------------------------------------------------------------------------

         :::::::::::::::::::::::::::::::::::::::::::::::::::::
         ::                  THERMODYNAMIC                  ::
         :::::::::::::::::::::::::::::::::::::::::::::::::::::
         :: total free energy         -72.024323930026 Eh   ::
         ::.................................................::
         :: total energy              -72.376277742972 Eh   ::
         :: zero point energy           0.404009228039 Eh   ::
         :: G(RRHO) w/o ZPVE           -0.052055415093 Eh   ::
         :: G(RRHO) contrib.            0.351953812947 Eh   ::
         :::::::::::::::::::::::::::::::::::::::::::::::::::::

           -------------------------------------------------
          | TOTAL ENERGY              -72.376277742972 Eh   |
          | TOTAL ENTHALPY            -71.946579522826 Eh   |
          | TOTAL FREE ENERGY         -72.024323930026 Eh   |
          | GRADIENT NORM               0.000074633843 Eh/α |
           -------------------------------------------------

 * finished run on 2025/09/09 at 23:55:55.074
