   * xtb version 6.7.1 (edcfbbe) compiled by 'albert@albert-system' on 2024-07-22

   ID    Z sym.   atoms
    1    6 C      1-27
    2    7 N      28
    3    1 H      29-51

          program call               : xtb data2507/gas/MPAc/MPAc_gas_S0_crest.xyz --gfn 2 --ohess vtight --parallel 40 --molden --ceasefiles --namespace data2507/gas/MPAc/MPAc_gas_S0_finalOpt
          :  Hamiltonian                  GFN2-xTB          :
 * total energy  :   -72.4867691 Eh     change       -0.1052385E-08 Eh
 * total energy  :   -72.4867699 Eh     change       -0.7826551E-06 Eh
 * total energy  :   -72.4867703 Eh     change       -0.4026090E-06 Eh
 * total energy  :   -72.4867708 Eh     change       -0.4269198E-06 Eh
 * total energy  :   -72.4867714 Eh     change       -0.6189593E-06 Eh
 * total energy  :   -72.4867721 Eh     change       -0.7187822E-06 Eh
 * total energy  :   -72.4867726 Eh     change       -0.5335560E-06 Eh
 * total energy  :   -72.4867729 Eh     change       -0.2989523E-06 Eh
 * total energy  :   -72.4867732 Eh     change       -0.2233919E-06 Eh
 * total energy  :   -72.4867733 Eh     change       -0.1842120E-06 Eh
 * total energy  :   -72.4867782 Eh     change       -0.1514376E-06 Eh
 * total energy  :   -72.4867783 Eh     change       -0.1408306E-06 Eh
 * total energy  :   -72.4867784 Eh     change       -0.1263465E-06 Eh
 * total energy  :   -72.4867786 Eh     change       -0.2013644E-06 Eh
 * total energy  :   -72.4867790 Eh     change       -0.3227159E-06 Eh
 * total energy  :   -72.4867792 Eh     change       -0.2789524E-06 Eh
 * total energy  :   -72.4867795 Eh     change       -0.2742745E-06 Eh
 * total energy  :   -72.4867796 Eh     change       -0.1229622E-06 Eh
 * total energy  :   -72.4867796 Eh     change       -0.1016431E-07 Eh
   *** GEOMETRY OPTIMIZATION CONVERGED AFTER 34 ITERATIONS ***

 final structure:
================
51
 xtb: 6.7.1 (edcfbbe)
C            4.87162162032479        0.34186032284095        1.18631754933181
C            3.59587867819380       -0.43737537178160        1.07004793189107
C            3.55188374349527       -1.79345539196018        1.36398410442723
C            2.37215838237559       -2.50144542946133        1.24843824985749
C            1.21094491954170       -1.86810348725998        0.81699077925314
C            1.24422070681398       -0.51059022539691        0.48528441478158
C            2.43419659134891        0.18381293355176        0.62782263743298
C            0.00120752236259        0.13036150944309       -0.10696730834541
C            0.00627348343703        1.62024065879592        0.18818855663696
C            0.02861093023253        2.58856190892769       -0.80453194528267
C            0.03864437179186        3.93383784247704       -0.47239830273104
C            0.02735203638416        4.32731091273853        0.85325632868824
C            0.00733521548706        3.36608116965094        1.85124748617350
C           -0.00236032846895        2.02509776601268        1.52045958232763
C           -0.02558329413596       -0.13930348601199       -1.61401945842089
C            1.14967772629627       -0.33527322661809       -2.32925106997853
C            1.11914155992554       -0.56012575197773       -3.69441218332355
C           -0.08691233492326       -0.59102150565853       -4.37138591712118
C           -1.26262523629003       -0.39030594724608       -3.66964562644173
C           -1.23184638879534       -0.16626036573298       -2.30502354487239
C           -1.22583549355858       -0.51670339027514        0.51253955211463
C           -2.41604743717575        0.17271195370830        0.68413500363678
C           -3.56557926564330       -0.45590313470039        1.14332791124092
C           -4.84833386182216        0.30568821114951        1.29475847837969
C           -3.51044802384723       -1.81502657239083        1.42687655113012
C           -2.33053861279888       -2.51626324388668        1.28690862423052
C           -1.17987313965408       -1.87456324369505        0.83771597369520
N            0.01660860578501       -2.55937823577756        0.73075368944798
H            5.57108021377790       -0.15618077314310        1.85340150440723
H            5.34564580804493        0.43834909057622        0.20864616306140
H            4.67701977773086        1.34401027886216        1.56280194776471
H            4.44625289410093       -2.29989495346743        1.69726379279838
H            2.34110589336216       -3.55351906788676        1.49602785228930
H            2.46453713170934        1.23468671677630        0.37630388223864
H            0.03943542357779        2.29684431014829       -1.84424914258803
H            0.05575051810620        4.67632496630557       -1.25722795658066
H            0.03478363252617        5.37664853797147        1.10954399124065
H           -0.00048264631723        3.66373825479390        2.88982898936534
H           -0.01710200583634        1.27590888088684        2.29948075421191
H            2.10134240004536       -0.31155854796863       -1.82023963313129
H            2.04518803385610       -0.71086722167319       -4.23041869180292
H           -0.11062603523587       -0.76794442404215       -5.43671132331819
H           -2.21153902666204       -0.40733206567793       -4.18621227574969
H           -2.15914548778074       -0.01005326844416       -1.77492027218211
H           -2.45228140705122        1.22670697024883        0.44603449188443
H           -5.50237276317949        0.11740758058702        0.44228876040640
H           -5.37665863747688       -0.00405165069818        2.19432640711938
H           -4.65927370310082        1.37514861779737        1.34815222362841
H           -4.39758608093704       -2.32590473300486        1.77243430918523
H           -2.28945324054855       -3.56944432285428        1.52830049513179
H            0.02188980000610       -3.51935112845840        1.04439469645991

          :  Hamiltonian                  GFN2-xTB          :
         :: gradient norm              0.000116417847 Eh/a0 ::
         :: HOMO-LUMO gap              3.349764193855 eV    ::
         :: SCC energy               -73.844869988729 Eh    ::
         :: -> dispersion             -0.068857261941 Eh    ::
         :: repulsion energy           1.358090351418 Eh    ::

    * Orbital Energies and Occupations

         #    Occupation            Energy/Eh            Energy/eV
      -------------------------------------------------------------
         1        2.0000           -0.6610886             -17.9891
       ...           ...                  ...                  ...
        56        2.0000           -0.4213681             -11.4660
        57        2.0000           -0.4205929             -11.4449
        58        2.0000           -0.4139050             -11.2629
        59        2.0000           -0.4103284             -11.1656
        60        2.0000           -0.4097560             -11.1500
        61        2.0000           -0.3996125             -10.8740
        62        2.0000           -0.3990777             -10.8595
        63        2.0000           -0.3958512             -10.7717
        64        2.0000           -0.3916265             -10.6567
        65        2.0000           -0.3883400             -10.5673
        66        2.0000           -0.3866949             -10.5225
        67        2.0000           -0.3833651             -10.4319
        68        2.0000           -0.3437770              -9.3546 (HOMO)
        69                         -0.2206754              -6.0049 (LUMO)
        70                         -0.2195751              -5.9749
        71                         -0.2187793              -5.9533
        72                         -0.2163695              -5.8877
        73                         -0.2136106              -5.8126
        74                         -0.2123849              -5.7793
        75                         -0.2109594              -5.7405
        76                         -0.1887604              -5.1364
        77                         -0.0892526              -2.4287
        78                         -0.0880051              -2.3947
        79                         -0.0871978              -2.3728
       ...                                ...                  ...
       135                          0.6805789              18.5195
      -------------------------------------------------------------
                  HL-Gap            0.1231016 Eh            3.3498 eV

     #   Z          covCN         q      C6AA      α(0)
     1   6 C        3.758    -0.106    22.585     6.776
     2   6 C        2.965     0.003    27.953     8.672
     3   6 C        2.924    -0.043    29.057     8.840
     4   6 C        2.921    -0.062    29.546     8.914
     5   6 C        2.925     0.061    26.632     8.463
     6   6 C        2.985    -0.009    28.243     8.718
     7   6 C        2.929    -0.046    29.142     8.853
     8   6 C        3.921     0.010    20.354     6.412
     9   6 C        2.979     0.017    27.637     8.623
    10   6 C        2.922    -0.036    28.906     8.817
    11   6 C        2.920    -0.031    28.774     8.796
    12   6 C        2.920    -0.033    28.829     8.805
    13   6 C        2.919    -0.031    28.769     8.796
    14   6 C        2.926    -0.031    28.779     8.798
    15   6 C        2.978     0.015    27.683     8.630
    16   6 C        2.924    -0.036    28.903     8.816
    17   6 C        2.920    -0.031    28.774     8.796
    18   6 C        2.919    -0.033    28.826     8.804
    19   6 C        2.920    -0.031    28.775     8.797
    20   6 C        2.925    -0.036    28.901     8.816
    21   6 C        2.985    -0.010    28.249     8.719
    22   6 C        2.928    -0.046    29.132     8.852
    23   6 C        2.965     0.003    27.955     8.672
    24   6 C        3.758    -0.106    22.585     6.776
    25   6 C        2.925    -0.043    29.062     8.841
    26   6 C        2.921    -0.062    29.540     8.913
    27   6 C        2.925     0.061    26.637     8.464
    28   7 N        2.702    -0.154    24.337     7.327
    29   1 H        0.925     0.039     2.459     2.452
    30   1 H        0.924     0.043     2.413     2.429
    31   1 H        0.925     0.041     2.437     2.441
    32   1 H        0.926     0.028     2.609     2.526
    33   1 H        0.925     0.022     2.709     2.574
    34   1 H        0.926     0.030     2.585     2.514
    35   1 H        0.926     0.030     2.585     2.514
    36   1 H        0.926     0.028     2.622     2.532
    37   1 H        0.926     0.027     2.625     2.534
    38   1 H        0.926     0.028     2.618     2.530
    39   1 H        0.926     0.028     2.614     2.528
    40   1 H        0.926     0.032     2.552     2.498
    41   1 H        0.926     0.027     2.626     2.534
    42   1 H        0.926     0.027     2.628     2.535
    43   1 H        0.926     0.027     2.625     2.534
    44   1 H        0.926     0.033     2.539     2.492
    45   1 H        0.926     0.030     2.593     2.518
    46   1 H        0.924     0.043     2.413     2.429
    47   1 H        0.925     0.041     2.440     2.443
    48   1 H        0.925     0.039     2.458     2.452
    49   1 H        0.926     0.029     2.602     2.522
    50   1 H        0.925     0.022     2.708     2.573
    51   1 H        0.860     0.155     1.369     1.833

molecular dipole:
                 x           y           z       tot (Debye)
 q only:       -0.007      -0.172       0.121
   full:       -0.009      -0.319       0.215       0.979

 projected vibrational frequencies (cm⁻¹)
eigval :       -0.00    -0.00    -0.00    -0.00     0.00     0.00
eigval :      -19.29     7.40    17.21    33.12    43.98    53.00
eigval :       56.21    67.57    75.77    90.42   137.46   178.77
eigval :      200.19   206.37   230.98   251.09   256.59   270.45
eigval :      291.64   300.56   331.35   352.27   359.42   368.34
eigval :      371.67   380.69   437.11   441.91   445.34   463.68
eigval :      489.59   508.02   526.31   541.37   545.12   588.95
eigval :      589.46   605.82   609.35   616.34   622.34   668.26
eigval :      671.20   678.43   682.12   696.28   745.86   755.32
eigval :      784.72   806.81   813.40   814.68   868.80   876.57
eigval :      879.16   888.81   891.80   895.84   901.23   905.42
eigval :      909.97   912.00   918.19   930.90   931.10   932.22
eigval :      932.86   960.90   991.04   993.78  1000.72  1018.45
eigval :     1028.45  1034.11  1034.28  1088.19  1092.83  1125.83
eigval :     1128.31  1135.96  1143.10  1173.71  1182.31  1182.99
eigval :     1187.02  1197.54  1204.29  1212.59  1213.91  1226.31
eigval :     1235.68  1241.52  1266.58  1287.61  1288.45  1296.85
eigval :     1307.56  1318.37  1320.18  1336.49  1338.18  1387.58
eigval :     1405.93  1406.12  1427.26  1432.97  1435.20  1448.79
eigval :     1474.22  1475.85  1484.72  1484.97  1488.54  1489.74
eigval :     1494.63  1505.10  1579.37  1584.63  1587.67  1589.31
eigval :     1600.14  1603.08  1604.06  1613.78  2990.87  2991.15
eigval :     3027.28  3029.76  3039.53  3039.88  3062.82  3063.49
eigval :     3069.39  3069.86  3072.22  3074.07  3075.11  3078.33
eigval :     3080.14  3080.71  3081.50  3086.07  3087.98  3093.45
eigval :     3095.87  3097.29  3427.18

   temp. (K)  partition function   enthalpy   heat capacity  entropy
                                   cal/mol     cal/K/mol   cal/K/mol   J/K/mol
 298.15  VIB  0.125E+12            13471.147     84.457     84.637
         ROT  0.113E+08              888.752      2.981     35.249
         INT  0.141E+19            14359.900     87.438    119.886
         TR   0.665E+28             1481.254      4.968     43.529
         TOT                       15841.1534    92.4057   163.4150   683.7283

       T/K    H(0)-H(T)+PV         H(T)/Eh          T*S/Eh         G(T)/Eh
   ------------------------------------------------------------------------
    298.15    0.252445E-01    0.435055E+00    0.776437E-01    0.357412E+00
   ------------------------------------------------------------------------

         :::::::::::::::::::::::::::::::::::::::::::::::::::::
         ::                  THERMODYNAMIC                  ::
         :::::::::::::::::::::::::::::::::::::::::::::::::::::
         :: total free energy         -72.129367969323 Eh   ::
         ::.................................................::
         :: total energy              -72.486779637311 Eh   ::
         :: zero point energy           0.409810911306 Eh   ::
         :: G(RRHO) w/o ZPVE           -0.052399243317 Eh   ::
         :: G(RRHO) contrib.            0.357411667989 Eh   ::
         :::::::::::::::::::::::::::::::::::::::::::::::::::::

           -------------------------------------------------
          | TOTAL ENERGY              -72.486779637311 Eh   |
          | TOTAL ENTHALPY            -72.051724241121 Eh   |
          | TOTAL FREE ENERGY         -72.129367969323 Eh   |
          | GRADIENT NORM               0.000116433998 Eh/α |
          | HOMO-LUMO GAP               3.349764293850 eV   |
           -------------------------------------------------

 * finished run on 2025/09/09 at 23:53:41.361
