   * xtb version 6.7.1 (edcfbbe) compiled by 'albert@albert-system' on 2024-07-22

   ID    Z sym.   atoms
    1    6 C      1-27
    2    7 N      28
    3    1 H      29-51

          program call               : xtb data2507/gas/MPAc/MPAc.xyz --gfn 2 --ohess vtight --parallel 40 --molden --ceasefiles --namespace data2507/gas/MPAc/MPAc_gas_S0_preOpt
          :  Hamiltonian                  GFN2-xTB          :
 * total energy  :   -72.4691210 Eh     change       -0.9505499E-09 Eh
 * total energy  :   -72.4807349 Eh     change       -0.1161395E-01 Eh
 * total energy  :   -72.4845102 Eh     change       -0.3775247E-02 Eh
 * total energy  :   -72.4850755 Eh     change       -0.5653290E-03 Eh
 * total energy  :   -72.4852986 Eh     change       -0.2231652E-03 Eh
 * total energy  :   -72.4853765 Eh     change       -0.7785051E-04 Eh
 * total energy  :   -72.4854161 Eh     change       -0.3959471E-04 Eh
 * total energy  :   -72.4854236 Eh     change       -0.7458112E-05 Eh
 * total energy  :   -72.4854259 Eh     change       -0.2397139E-05 Eh
 * total energy  :   -72.4854272 Eh     change       -0.1297285E-05 Eh
 * total energy  :   -72.4854785 Eh     change       -0.8209405E-06 Eh
 * total energy  :   -72.4854787 Eh     change       -0.2540549E-06 Eh
 * total energy  :   -72.4854795 Eh     change       -0.7361493E-06 Eh
 * total energy  :   -72.4854789 Eh     change        0.5865807E-06 Eh
 * total energy  :   -72.4854796 Eh     change       -0.7737361E-06 Eh
 * total energy  :   -72.4854796 Eh     change        0.5440570E-07 Eh
 * total energy  :   -72.4854797 Eh     change       -0.1511255E-06 Eh
 * total energy  :   -72.4854799 Eh     change       -0.1126130E-06 Eh
 * total energy  :   -72.4854799 Eh     change       -0.4088335E-08 Eh
   *** GEOMETRY OPTIMIZATION CONVERGED AFTER 67 ITERATIONS ***

 final structure:
================
51
 xtb: 6.7.1 (edcfbbe)
C            5.00795306653983       -0.18702294605644       -0.07131754156562
C            3.69081323085521       -0.90248732716866       -0.04446426119536
C            3.61762156522554       -2.28773593346963       -0.01322307156515
C            2.39277441192407       -2.92271216064898        0.00687829806007
C            1.20983457767242       -2.18646419992592        0.00418642788397
C            1.26346251210861       -0.78994815753658       -0.01322643644646
C            2.50575934904130       -0.17822924328968       -0.04370659557421
C           -0.00001531437146        0.06175702753983        0.00005360399849
C            0.07864309880129        0.89047794340295        1.27614512119034
C           -0.42127256553336        0.36301528712829        2.46133509331295
C           -0.30714023276162        1.05692656301222        3.65214653644290
C            0.31953569216834        2.29028273852471        3.68249646524679
C            0.83622438453069        2.81746532932679        2.51232511750438
C            0.72110292924225        2.12261494785826        1.32123088793183
C           -0.07862721285174        0.89108035499570       -1.27563650776574
C           -0.72069643014028        2.12344195807896       -1.32009133085775
C           -0.83578736677648        2.81883109220530       -2.51087719435772
C           -0.31945984455082        2.29197367302457       -3.68135342601691
C            0.30681311716967        1.05839546520561       -3.65163170886936
C            0.42091224803097        0.36394655501482       -2.46113292480539
C           -1.26349598046083       -0.78995105348200        0.01298201113368
C           -2.50580851672275       -0.17823558941188        0.04282250977894
C           -3.69085610686101       -0.90250769107172        0.04345493172767
C           -5.00800837754298       -0.18704267707658        0.06968279631264
C           -3.61764097828950       -2.28776543337034        0.01273201048531
C           -2.39278009856496       -2.92273579723886       -0.00677219922719
C           -1.20984873501932       -2.18647536089235       -0.00394203170776
N           -0.00000527906842       -2.83989318855172        0.00044117483242
H            5.14542961948364        0.38662960295865        0.84518557772449
H            5.83098661085026       -0.89117063347628       -0.16404103120501
H            5.04782843580734        0.50901606515037       -0.90811427384463
H            4.52335915501690       -2.87679160525619       -0.01021406576286
H            2.33896034172591       -4.00263004789086        0.02136295205088
H            2.55992646442983        0.89915545206716       -0.07381637512250
H           -0.90820175181056       -0.60140735190245        2.45304105729236
H           -0.70741102728905        0.63001003838850        4.56038755998803
H            0.40842198283227        2.83460956754096        4.61120575737895
H            1.33409319904392        3.77655283679747        2.52430695706929
H            1.12985718163139        2.55621762435578        0.42022883307849
H           -1.12919254582755        2.55677327003032       -0.41883862838578
H           -1.33336917428800        3.77807336276480       -2.52237999157489
H           -0.40831059879274        2.83672639653320       -4.60981637787787
H            0.70682108243962        0.63174777066703       -4.56011431266252
H            0.90753211794024       -0.60063758046463       -2.45330950919008
H           -2.55999885678560        0.89916028995239        0.07250769920415
H           -5.83108923853781       -0.89119261913366        0.16197060993011
H           -5.04829420636833        0.50894873935803        0.90650219436590
H           -5.14502911824515        0.38666540489280       -0.84685220944414
H           -4.52337078436686       -2.87683284705917        0.00964500078998
H           -2.33895070615453       -4.00265814683987       -0.02088016228517
H           -0.00000032652978       -3.84796776556108        0.00049698259492

          :  Hamiltonian                  GFN2-xTB          :
         :: gradient norm              0.000149849048 Eh/a0 ::
         :: HOMO-LUMO gap              3.110053793877 eV    ::
         :: SCC energy               -73.846092315268 Eh    ::
         :: -> dispersion             -0.068350363790 Eh    ::
         :: repulsion energy           1.360612457037 Eh    ::

    * Orbital Energies and Occupations

         #    Occupation            Energy/Eh            Energy/eV
      -------------------------------------------------------------
         1        2.0000           -0.6617993             -18.0085
       ...           ...                  ...                  ...
        56        2.0000           -0.4211519             -11.4601
        57        2.0000           -0.4189924             -11.4014
        58        2.0000           -0.4178378             -11.3699
        59        2.0000           -0.4102629             -11.1638
        60        2.0000           -0.4087310             -11.1221
        61        2.0000           -0.4018199             -10.9341
        62        2.0000           -0.3978070             -10.8249
        63        2.0000           -0.3972445             -10.8096
        64        2.0000           -0.3897341             -10.6052
        65        2.0000           -0.3867864             -10.5250
        66        2.0000           -0.3848100             -10.4712
        67        2.0000           -0.3834833             -10.4351
        68        2.0000           -0.3403187              -9.2605 (HOMO)
        69                         -0.2260263              -6.1505 (LUMO)
        70                         -0.2200640              -5.9882
        71                         -0.2174226              -5.9164
        72                         -0.2154431              -5.8625
        73                         -0.2154249              -5.8620
        74                         -0.2100906              -5.7169
        75                         -0.2063864              -5.6161
        76                         -0.1816475              -4.9429
        77                         -0.0914520              -2.4885
        78                         -0.0886790              -2.4131
        79                         -0.0821284              -2.2348
       ...                                ...                  ...
       135                          0.6813108              18.5394
      -------------------------------------------------------------
                  HL-Gap            0.1142924 Eh            3.1101 eV

     #   Z          covCN         q      C6AA      α(0)
     1   6 C        3.758    -0.107    22.592     6.777
     2   6 C        2.965     0.003    27.954     8.672
     3   6 C        2.924    -0.042    29.044     8.838
     4   6 C        2.923    -0.064    29.604     8.923
     5   6 C        2.918     0.061    26.640     8.464
     6   6 C        2.984    -0.010    28.250     8.719
     7   6 C        2.932    -0.047    29.172     8.858
     8   6 C        3.920     0.010    20.349     6.411
     9   6 C        2.981     0.014    27.688     8.631
    10   6 C        2.926    -0.035    28.873     8.812
    11   6 C        2.920    -0.031    28.768     8.796
    12   6 C        2.920    -0.033    28.830     8.805
    13   6 C        2.920    -0.032    28.794     8.800
    14   6 C        2.924    -0.034    28.858     8.809
    15   6 C        2.981     0.014    27.688     8.631
    16   6 C        2.924    -0.034    28.858     8.809
    17   6 C        2.920    -0.032    28.794     8.800
    18   6 C        2.920    -0.033    28.830     8.805
    19   6 C        2.920    -0.031    28.768     8.796
    20   6 C        2.926    -0.035    28.873     8.812
    21   6 C        2.984    -0.010    28.250     8.719
    22   6 C        2.932    -0.047    29.172     8.858
    23   6 C        2.965     0.003    27.954     8.672
    24   6 C        3.758    -0.107    22.592     6.777
    25   6 C        2.924    -0.042    29.044     8.838
    26   6 C        2.923    -0.064    29.604     8.923
    27   6 C        2.918     0.061    26.640     8.464
    28   7 N        2.704    -0.143    24.085     7.289
    29   1 H        0.925     0.043     2.414     2.430
    30   1 H        0.925     0.038     2.469     2.457
    31   1 H        0.925     0.042     2.422     2.434
    32   1 H        0.926     0.028     2.616     2.529
    33   1 H        0.925     0.021     2.717     2.578
    34   1 H        0.926     0.033     2.546     2.495
    35   1 H        0.926     0.028     2.617     2.530
    36   1 H        0.926     0.027     2.627     2.535
    37   1 H        0.926     0.027     2.629     2.536
    38   1 H        0.926     0.027     2.628     2.535
    39   1 H        0.926     0.032     2.564     2.504
    40   1 H        0.926     0.032     2.564     2.504
    41   1 H        0.926     0.027     2.628     2.535
    42   1 H        0.926     0.027     2.629     2.536
    43   1 H        0.926     0.027     2.627     2.535
    44   1 H        0.926     0.028     2.617     2.530
    45   1 H        0.926     0.033     2.546     2.495
    46   1 H        0.925     0.038     2.469     2.457
    47   1 H        0.925     0.042     2.422     2.434
    48   1 H        0.925     0.043     2.414     2.430
    49   1 H        0.926     0.028     2.616     2.529
    50   1 H        0.925     0.021     2.717     2.578
    51   1 H        0.860     0.156     1.359     1.826

molecular dipole:
                 x           y           z       tot (Debye)
 q only:        0.000      -0.212      -0.000
   full:        0.000      -0.362      -0.000       0.921

 projected vibrational frequencies (cm⁻¹)
eigval :       -0.00    -0.00    -0.00     0.00     0.00     0.00
eigval :      -16.05    20.11    20.36    43.29    49.20    59.14
eigval :       65.12    73.33    86.05   100.55   152.24   154.86
eigval :      190.22   202.92   226.23   245.60   263.81   264.17
eigval :      300.04   303.88   330.54   346.36   354.29   374.17
eigval :      375.08   393.13   434.43   435.73   439.71   456.56
eigval :      461.69   490.15   503.07   521.31   551.46   578.42
eigval :      588.24   590.23   604.05   615.51   625.96   668.26
eigval :      669.75   678.62   688.91   690.45   740.79   763.02
eigval :      786.57   796.47   809.10   811.37   868.17   872.57
eigval :      874.27   880.72   884.56   898.02   903.43   906.68
eigval :      909.54   913.26   916.00   931.07   931.33   934.91
eigval :      955.02   959.97   989.94   993.55  1000.55  1018.45
eigval :     1031.31  1034.13  1034.27  1089.64  1090.48  1124.67
eigval :     1126.75  1140.39  1143.60  1175.75  1182.32  1182.92
eigval :     1187.57  1195.45  1202.80  1212.51  1212.58  1235.27
eigval :     1238.03  1241.29  1265.10  1282.98  1293.07  1296.96
eigval :     1306.08  1317.61  1322.99  1336.52  1337.71  1392.37
eigval :     1405.35  1405.48  1425.01  1430.30  1436.80  1454.71
eigval :     1474.63  1477.33  1483.46  1483.46  1488.87  1490.97
eigval :     1509.90  1510.42  1578.59  1585.49  1586.22  1590.41
eigval :     1600.82  1602.86  1606.11  1613.79  3000.51  3000.52
eigval :     3016.64  3016.79  3042.87  3042.95  3061.60  3062.26
eigval :     3068.41  3069.00  3071.59  3072.04  3079.64  3079.82
eigval :     3080.08  3080.95  3084.10  3084.98  3090.47  3091.07
eigval :     3101.64  3101.94  3447.60

   temp. (K)  partition function   enthalpy   heat capacity  entropy
                                   cal/mol     cal/K/mol   cal/K/mol   J/K/mol
 298.15  VIB  0.240E+11            13459.123     85.431     83.560
         ROT  0.564E+07              888.752      2.981     33.873
         INT  0.135E+18            14347.876     88.412    117.433
         TR   0.665E+28             1481.254      4.968     43.529
         TOT                       15829.1295    93.3798   160.9614   673.4625

       T/K    H(0)-H(T)+PV         H(T)/Eh          T*S/Eh         G(T)/Eh
   ------------------------------------------------------------------------
    298.15    0.252253E-01    0.435009E+00    0.764780E-01    0.358531E+00
   ------------------------------------------------------------------------

         :::::::::::::::::::::::::::::::::::::::::::::::::::::
         ::                  THERMODYNAMIC                  ::
         :::::::::::::::::::::::::::::::::::::::::::::::::::::
         :: total free energy         -72.126949000832 Eh   ::
         ::.................................................::
         :: total energy              -72.485479858229 Eh   ::
         :: zero point energy           0.409783486408 Eh   ::
         :: G(RRHO) w/o ZPVE           -0.051252629011 Eh   ::
         :: G(RRHO) contrib.            0.358530857398 Eh   ::
         :::::::::::::::::::::::::::::::::::::::::::::::::::::

           -------------------------------------------------
          | TOTAL ENERGY              -72.485479858229 Eh   |
          | TOTAL ENTHALPY            -72.050471048317 Eh   |
          | TOTAL FREE ENERGY         -72.126949000832 Eh   |
          | GRADIENT NORM               0.000149759774 Eh/α |
          | HOMO-LUMO GAP               3.110053448993 eV   |
           -------------------------------------------------

 * finished run on 2025/09/09 at 23:51:51.956
