   * xtb version 6.7.1 (edcfbbe) compiled by 'albert@albert-system' on 2024-07-22

   ID    Z sym.   atoms
    1    6 C      1-27
    2    7 N      28
    3    1 H      29-51

          program call               : xtb data2507/gas/MPAc/MPAc_gas_S0_finalOpt.xtbopt.xyz --gfn 2 --spinpol --tblite --uhf 2 --ohess vtight --parallel 40 --molden --ceasefiles --namespace data2507/gas/MPAc/MPAc_gas_T1_preOpt
 * total energy  :   -72.3608389 Eh     change        0.7625530E-08 Eh
 * total energy  :   -72.3675889 Eh     change       -0.6750047E-02 Eh
 * total energy  :   -72.3706578 Eh     change       -0.3068919E-02 Eh
 * total energy  :   -72.3714228 Eh     change       -0.7650175E-03 Eh
 * total energy  :   -72.3718164 Eh     change       -0.3935193E-03 Eh
 * total energy  :   -72.3719992 Eh     change       -0.1828854E-03 Eh
 * total energy  :   -72.3720848 Eh     change       -0.8554571E-04 Eh
 * total energy  :   -72.3721363 Eh     change       -0.5150648E-04 Eh
 * total energy  :   -72.3721769 Eh     change       -0.4060370E-04 Eh
 * total energy  :   -72.3722148 Eh     change       -0.3790885E-04 Eh
 * total energy  :   -72.3762754 Eh     change       -0.3108533E-06 Eh
 * total energy  :   -72.3762757 Eh     change       -0.2851175E-06 Eh
 * total energy  :   -72.3762760 Eh     change       -0.2444324E-06 Eh
 * total energy  :   -72.3762762 Eh     change       -0.2568281E-06 Eh
 * total energy  :   -72.3762765 Eh     change       -0.3122839E-06 Eh
 * total energy  :   -72.3762770 Eh     change       -0.4193143E-06 Eh
 * total energy  :   -72.3762774 Eh     change       -0.4326460E-06 Eh
 * total energy  :   -72.3762776 Eh     change       -0.2525177E-06 Eh
 * total energy  :   -72.3762777 Eh     change       -0.4408768E-07 Eh
   *** GEOMETRY OPTIMIZATION CONVERGED AFTER 84 ITERATIONS ***

 final structure:
================
51
 xtb: 6.7.1 (edcfbbe)
C            5.04715670612001        0.38093877774013        0.52322338008253
C            3.74390375811418       -0.31390086122893        0.74439098310058
C            3.72452103270981       -1.57951849073314        1.39249000380458
C            2.54592562414302       -2.22565463009388        1.60876757272213
C            1.32331023225269       -1.64828655748972        1.19886091355337
C            1.32479052526517       -0.37142095462348        0.53824010343635
C            2.53990221160934        0.24439297547832        0.32777672198681
C            0.03233487370408        0.21171285914390        0.03007065085507
C            0.03857730698099        1.68370649657640        0.39644953587272
C            0.55166492292341        2.65698108820724       -0.45579820339631
C            0.58820608617367        3.98431868036819       -0.06533583446962
C            0.12430048352293        4.35980105928537        1.18280755176159
C           -0.36985295922969        3.39340176284639        2.04534833774777
C           -0.40929697204277        2.06840179919165        1.65546508744750
C           -0.11368597077524       -0.06368526474984       -1.46659145541877
C            0.48067709769175       -1.18609869902879       -2.04499259518372
C            0.30312487747049       -1.47001468238687       -3.38332560891666
C           -0.47289879333791       -0.64261515028705       -4.18271608647524
C           -1.07334237382373        0.47125574472246       -3.61641985087509
C           -0.90496893937413        0.75504709645558       -2.27653984811938
C           -1.19243561908648       -0.49349556135189        0.54212764925708
C           -2.47117021538806        0.02493375931789        0.39124488566735
C           -3.60542439711166       -0.68513533169766        0.72547768261764
C           -4.97271707427872       -0.10566368698895        0.57923455719257
C           -3.46950889261273       -2.02414727532239        1.23234378151639
C           -2.23233418718345       -2.56086836317995        1.42072084921657
C           -1.07494674182936       -1.82309137448986        1.11573605488673
N            0.15540913143628       -2.30542627156234        1.40802348381344
H            5.55487159563055        0.55417339677589        1.47326963732537
H            5.70801227468802       -0.23139154294338       -0.09244285417488
H            4.89947300541229        1.33766004446754        0.02891370091879
H            4.65771546108688       -2.02008025863576        1.70908826094570
H            2.52285383612326       -3.19066263736755        2.09783773884086
H            2.56247127141545        1.19955856282553       -0.17507676206685
H            0.91880776495369        2.37946236192980       -1.43344125875286
H            0.98400352409606        4.72849504964954       -0.74183029187079
H            0.15075309197908        5.39651788562545        1.48452762654375
H           -0.72533101974581        3.67444966010386        3.02612298661440
H           -0.79449713185849        1.31931326228756        2.33274107337881
H            1.09904390490097       -1.83784976264851       -1.44514958055884
H            0.77768997368610       -2.34226875390494       -3.80990391799590
H           -0.60859781162437       -0.86455597917612       -5.23047073285696
H           -1.68329387949559        1.12361788066148       -4.22517314749102
H           -1.38894647332552        1.62413184521956       -1.85777261654769
H           -2.58111587290468        1.02772913700975        0.00463646645073
H           -5.57184169797830       -0.71351397015076       -0.10055948932582
H           -5.48745556479780       -0.09127259860569        1.54146414937626
H           -4.92838762641212        0.90914869124755        0.19217630140465
H           -4.35954569360164       -2.58530179662477        1.46856369829733
H           -2.11761769614642       -3.55979408061143        1.82178758882662
H            0.20702940197377       -3.21929330634714        1.84427093737524

 projected vibrational frequencies (cm⁻¹)
eigval :       -0.00    -0.00     0.00     0.00     0.00     0.00
eigval :       20.97    39.08    48.03    56.51    58.20    60.52
eigval :       68.60    74.37    85.48    97.93   149.31   158.10
eigval :      182.87   198.58   223.91   234.64   251.33   257.34
eigval :      273.00   296.60   299.71   333.68   345.66   362.95
eigval :      373.29   375.86   386.21   389.92   412.14   440.58
eigval :      458.75   478.96   487.62   504.58   566.96   575.60
eigval :      582.67   586.80   591.65   603.49   612.59   631.40
eigval :      650.50   658.79   669.83   671.34   711.58   743.73
eigval :      755.77   764.51   774.91   782.92   803.10   840.60
eigval :      861.53   870.54   872.41   876.11   881.35   885.46
eigval :      889.12   893.19   903.81   917.82   925.15   926.78
eigval :      928.33   944.35   952.09   972.24   984.76   995.97
eigval :      997.91  1014.68  1018.44  1082.46  1085.02  1089.80
eigval :     1111.31  1124.54  1131.52  1153.81  1164.76  1171.18
eigval :     1176.61  1180.49  1181.52  1192.47  1200.48  1202.99
eigval :     1210.85  1223.52  1244.51  1246.91  1283.04  1289.02
eigval :     1296.49  1302.31  1323.28  1323.97  1332.42  1365.84
eigval :     1377.08  1398.11  1401.65  1411.15  1414.93  1426.83
eigval :     1434.31  1444.05  1457.49  1458.44  1471.27  1472.23
eigval :     1474.31  1484.02  1491.07  1495.03  1524.38  1535.21
eigval :     1535.65  1565.98  1575.84  1586.85  2972.31  2974.32
eigval :     2992.02  2993.42  3042.98  3044.12  3046.74  3051.59
eigval :     3067.13  3067.77  3068.47  3069.15  3077.51  3079.00
eigval :     3082.02  3082.44  3088.66  3088.86  3089.95  3092.34
eigval :     3093.46  3097.95  3361.81

   temp. (K)  partition function   enthalpy   heat capacity  entropy
                                   cal/mol     cal/K/mol   cal/K/mol   J/K/mol
 298.15  VIB  0.467E+10            13747.945     89.005     84.814
         ROT  0.113E+08              888.752      2.981     35.254
         INT  0.528E+17            14636.698     91.986    120.068
         TR   0.665E+28             1481.254      4.968     43.529
         TOT                       16117.9515    96.9538   163.5964   684.4874

       T/K    H(0)-H(T)+PV         H(T)/Eh          T*S/Eh         G(T)/Eh
   ------------------------------------------------------------------------
    298.15    0.256856E-01    0.429666E+00    0.777299E-01    0.351936E+00
   ------------------------------------------------------------------------

         :::::::::::::::::::::::::::::::::::::::::::::::::::::
         ::                  THERMODYNAMIC                  ::
         :::::::::::::::::::::::::::::::::::::::::::::::::::::
         :: total free energy         -72.024341368193 Eh   ::
         ::.................................................::
         :: total energy              -72.376277680365 Eh   ::
         :: zero point energy           0.403980659935 Eh   ::
         :: G(RRHO) w/o ZPVE           -0.052044347764 Eh   ::
         :: G(RRHO) contrib.            0.351936312172 Eh   ::
         :::::::::::::::::::::::::::::::::::::::::::::::::::::

           -------------------------------------------------
          | TOTAL ENERGY              -72.376277680365 Eh   |
          | TOTAL ENTHALPY            -71.946611429688 Eh   |
          | TOTAL FREE ENERGY         -72.024341368193 Eh   |
          | GRADIENT NORM               0.000173186125 Eh/α |
           -------------------------------------------------

 * finished run on 2025/09/09 at 23:53:48.324
