   * xtb version 6.7.1 (edcfbbe) compiled by 'albert@albert-system' on 2024-07-22

   ID    Z sym.   atoms
    1    6 C      1-12, 14, 16-18, 20-25, 27-36, 38-43, 45-54
    2    7 N      13, 19, 37
    3    8 O      15, 26, 44, 55
    4    1 H      56-92

          program call               : xtb data2507/toluene/2PN/2PN_toluene_T1_crest.xyz --gfn 2 --uhf 2 --gbsa toluene --ohess vtight --parallel 40 --molden --ceasefiles --namespace data2507/toluene/2PN/2PN_toluene_T1_finalOpt
      * Solvation model:               GBSA
        Solvent                        toluene
        Solvent mass                       9.2140E+01 g/mol
          :  Hamiltonian                  GFN2-xTB          :
 * total energy  :  -146.8435500 Eh     change       -0.3088178E-07 Eh
 * total energy  :  -146.8438352 Eh     change       -0.2852006E-03 Eh
 * total energy  :  -146.8439249 Eh     change       -0.8971013E-04 Eh
 * total energy  :  -146.8439402 Eh     change       -0.1529914E-04 Eh
 * total energy  :  -146.8439551 Eh     change       -0.1495211E-04 Eh
 * total energy  :  -146.8439656 Eh     change       -0.1050906E-04 Eh
 * total energy  :  -146.8439774 Eh     change       -0.1180944E-04 Eh
 * total energy  :  -146.8439900 Eh     change       -0.1253829E-04 Eh
 * total energy  :  -146.8440027 Eh     change       -0.1273381E-04 Eh
 * total energy  :  -146.8440160 Eh     change       -0.1326146E-04 Eh
 * total energy  :  -146.8441360 Eh     change       -0.9037312E-06 Eh
 * total energy  :  -146.8441363 Eh     change       -0.3229930E-06 Eh
 * total energy  :  -146.8441368 Eh     change       -0.5004606E-06 Eh
 * total energy  :  -146.8441376 Eh     change       -0.7511238E-06 Eh
 * total energy  :  -146.8441382 Eh     change       -0.6258862E-06 Eh
 * total energy  :  -146.8441387 Eh     change       -0.5470590E-06 Eh
 * total energy  :  -146.8441394 Eh     change       -0.6319101E-06 Eh
 * total energy  :  -146.8441398 Eh     change       -0.4637273E-06 Eh
 * total energy  :  -146.8441399 Eh     change       -0.4736657E-07 Eh
   *** GEOMETRY OPTIMIZATION CONVERGED AFTER 53 ITERATIONS ***

 final structure:
================
92
 xtb: 6.7.1 (edcfbbe)
C            1.14467740749223       -4.21391082289535       -3.97713455581975
C           -0.08913152440374       -4.00613957612691       -3.09567519977213
C           -1.38428605039855       -4.25146119927570       -3.87318151901869
C           -0.02561229535421       -4.89629146940420       -1.87647670886957
C           -0.00321788837102       -6.27769485029112       -2.01791953413980
C            0.06772790736750       -7.10205574326543       -0.91202537133915
C            0.11189866106765       -6.55702576587008        0.35665089666788
C            0.08065542203038       -5.18138865333176        0.54227703646549
C            0.14801247560732       -4.59384758737675        1.93307350250939
C           -0.92309187590885       -5.18732592397053        2.85005910234731
C            1.55254115141099       -4.79576784566503        2.50922380567108
C            0.01798422699247       -4.36702618838228       -0.58804266150466
N            0.00676329363269       -2.94194623763461       -0.41704665749641
C           -1.23818252106771       -2.33167272732696       -0.34369401781417
O           -2.26614358042899       -3.01051369462823       -0.43894668873338
C           -1.22950525838173       -0.90101929005255       -0.14564871023382
C           -2.44586774231387       -0.20575131848630       -0.05477550308741
C           -2.44196806282835        1.16184108103689        0.14263249274707
N           -3.67608819540294        1.86314605788022        0.24400326560187
C           -4.49303318929203        1.68816262701604        1.34702714119276
C           -4.14292602706055        0.85405280762079        2.40891715840991
C           -4.98414966807993        0.71135374942997        3.49573700700997
C           -6.18725466842825        1.39992382558197        3.55204088090393
C           -6.54566682522857        2.24587439070774        2.51710236032768
C           -5.70792137917224        2.39632046663969        1.42293357833118
O           -6.10492941552588        3.25847165706638        0.44224587670783
C           -5.29077960302599        3.41611262277658       -0.64163915365241
C           -5.70945557683395        4.28993680729713       -1.63303698826636
C           -4.93333792786767        4.47733457218775       -2.76359239986297
C           -3.74306927931479        3.77946977915032       -2.90747018913220
C           -3.31657015255195        2.90717346092053       -1.92417857192926
C           -4.07332077153890        2.71993598708973       -0.76714901527325
C           -1.25080365380831        1.87369727909346        0.25392597206353
C           -0.01660991349719        1.20638941736561        0.16226805620720
C            1.21010482687049        1.88606314244547        0.26279313409721
C            2.40937642474299        1.18652851846410        0.15923886874469
N            3.63527679889847        1.90001265382686        0.27162362484692
C            4.44964117982999        1.72456005190140        1.37673963287327
C            4.10805157268715        0.87239261802364        2.42706390365264
C            4.94640026868866        0.73012443683756        3.51613935825975
C            6.13788581456715        1.43733739806202        3.58673886205050
C            6.48737350727744        2.30130950949140        2.56376044486290
C            5.65255511056938        2.45124888217259        1.46723565825817
O            6.04057617127993        3.33134804748353        0.49905985821279
C            5.23145890428848        3.48608029226221       -0.58895563175915
C            5.64306966444943        4.37542785576987       -1.56946307100108
C            4.87214864159373        4.56049319626582       -2.70393718063512
C            3.69461410113246        3.84449945528113       -2.86287267237625
C            3.27517000643092        2.95678292212594       -1.89041201681106
C            4.02619105454124        2.77177163830815       -0.72924727801464
C            2.42819114794418       -0.18067699110876       -0.03980387785180
C            1.21956096735001       -0.88811660377193       -0.13861667439490
C           -0.00889011279746       -0.20336064849483       -0.04234496540790
C            1.24402102596988       -2.31802913989070       -0.33710781943158
O            2.28049659491745       -2.98503381667430       -0.42873738220254
H            2.04755465572532       -4.03209729957738       -3.39648716092222
H            1.12472317824921       -3.52314856489641       -4.81767446237280
H            1.18071371892472       -5.22935585589211       -4.36290140579340
H           -0.09158669020960       -2.96066418660294       -2.76754353355799
H           -2.24021330093057       -4.09263043287889       -3.21936864499533
H           -1.45333683013600       -3.56291415281635       -4.71296367236460
H           -1.42317099381635       -5.26883258634682       -4.25360426174700
H           -0.03733984643552       -6.71332785148969       -3.00499123256957
H            0.09044701143121       -8.17469278805638       -1.03939970235261
H            0.17347301951298       -7.21020268320913        1.21363883175179
H           -0.03628168624493       -3.51556956589313        1.86570902595427
H           -0.74867200587123       -6.24528998146439        3.02555726528180
H           -1.90657748866095       -5.06659868192068        2.39962015830244
H           -0.91409057597257       -4.67418276092404        3.80958743892081
H            1.63213180655715       -4.32323188438330        3.48621084241334
H            1.77499845176024       -5.85505200018367        2.61277700471241
H            2.29053784963948       -4.35251000456870        1.84245229554243
H           -3.36589422851021       -0.76261831035606       -0.14438424533019
H           -3.20820241205422        0.31808641807797        2.37031164598003
H           -4.69530971498709        0.05758347539108        4.30363356745372
H           -6.84222289479820        1.28413583515550        4.40060152785453
H           -7.46906743863801        2.80215313514763        2.53531224198813
H           -6.64589769444389        4.80676298374610       -1.49757501206549
H           -5.26248901032290        5.15855983029507       -3.53181631950246
H           -3.14210918579068        3.91068479836212       -3.79352512511864
H           -2.39658380545613        2.35827853877621       -2.04412336145267
H           -1.27181019914796        2.93960198497569        0.42050284620332
H            1.21899543792543        2.95192675869054        0.43074800524443
H            3.18230675260867        0.32191313714850        2.37791853315636
H            4.66440397398959        0.06196494248543        4.31461656955934
H            6.79056621137400        1.32193541835781        4.43711711263262
H            7.40144062043494        2.87233902296901        2.59319245826088
H            6.56998584034220        4.90613253606381       -1.42253623341677
H            5.19565702690183        5.25402697145171       -3.46351523108315
H            3.09800224243980        3.97381204906316       -3.75215113771305
H            2.36528920500951        2.39391691758390       -2.02222125311941
H            3.35433549745435       -0.72804747373478       -0.12483094120417

          :  Hamiltonian                  GFN2-xTB          :
         :: gradient norm              0.000133296952 Eh/a0 ::
         :: HOMO-LUMO gap              1.014323548002 eV    ::
         :: SCC energy              -149.242025003625 Eh    ::
         :: -> dispersion             -0.130398550427 Eh    ::
         :: -> Gsolv                  -0.075127897761 Eh    ::
         :: repulsion energy           2.397885111638 Eh    ::

    * Orbital Energies and Occupations

         #    Occupation            Energy/Eh            Energy/eV
      -------------------------------------------------------------
         1        2.0000           -0.7569905             -20.5988
       ...           ...                  ...                  ...
       123        2.0000           -0.4153098             -11.3012
       124        2.0000           -0.4142651             -11.2727
       125        2.0000           -0.4102828             -11.1644
       126        2.0000           -0.4086071             -11.1188
       127        2.0000           -0.3974911             -10.8163
       128        2.0000           -0.3929618             -10.6930
       129        2.0000           -0.3882163             -10.5639
       130        2.0000           -0.3877674             -10.5517
       131        2.0000           -0.3842949             -10.4572
       132        2.0000           -0.3832024             -10.4275
       133        1.6589           -0.3624728              -9.8634
       134        1.3411           -0.3612222              -9.8294
       135        1.0000           -0.2978617              -8.1052 (HOMO)
       136                         -0.2605862              -7.0909 (LUMO)
       137                         -0.2605390              -7.0896
       138                         -0.2479445              -6.7469
       139                         -0.2478110              -6.7433
       140                         -0.2413000              -6.5661
       141                         -0.2343510              -6.3770
       142                         -0.2341264              -6.3709
       143                         -0.2311255              -6.2892
       144                         -0.2181480              -5.9361
       145                         -0.2171903              -5.9100
       146                         -0.2169410              -5.9033
       ...                                ...                  ...
       257                          0.7161965              19.4887
      -------------------------------------------------------------
                  HL-Gap            0.0372755 Eh            1.0143 eV

     #   Z          covCN         q      C6AA      α(0)
     1   6 C        3.755    -0.100    22.467     6.758
     2   6 C        3.854    -0.005    20.629     6.460
     3   6 C        3.755    -0.100    22.463     6.758
     4   6 C        2.973     0.003    27.954     8.673
     5   6 C        2.927    -0.042    29.054     8.840
     6   6 C        2.916    -0.038    28.950     8.823
     7   6 C        2.927    -0.043    29.061     8.841
     8   6 C        2.973     0.003    27.966     8.674
     9   6 C        3.854    -0.005    20.631     6.460
    10   6 C        3.754    -0.101    22.493     6.763
    11   6 C        3.756    -0.099    22.446     6.755
    12   6 C        2.945     0.085    26.117     8.382
    13   7 N        2.749    -0.137    23.974     7.272
    14   6 C        2.778     0.261    22.611     7.788
    15   8 O        0.858    -0.523    24.305     6.610
    16   6 C        2.978    -0.051    29.254     8.872
    17   6 C        2.920    -0.048    29.190     8.860
    18   6 C        2.916     0.048    26.914     8.507
    19   7 N        2.754    -0.022    21.664     6.913
    20   6 C        2.925     0.048    26.914     8.508
    21   6 C        2.920    -0.048    29.182     8.859
    22   6 C        2.918    -0.028    28.707     8.786
    23   6 C        2.919    -0.028    28.701     8.785
    24   6 C        2.916    -0.051    29.264     8.871
    25   6 C        2.885     0.131    25.130     8.218
    26   8 O        1.709    -0.223    17.694     5.679
    27   6 C        2.885     0.131    25.126     8.218
    28   6 C        2.916    -0.051    29.261     8.870
    29   6 C        2.919    -0.028    28.702     8.785
    30   6 C        2.918    -0.029    28.715     8.787
    31   6 C        2.920    -0.049    29.212     8.863
    32   6 C        2.926     0.048    26.921     8.509
    33   6 C        2.920    -0.070    29.751     8.945
    34   6 C        2.980     0.012    27.735     8.639
    35   6 C        2.920    -0.070    29.751     8.945
    36   6 C        2.916     0.048    26.914     8.507
    37   7 N        2.754    -0.021    21.661     6.912
    38   6 C        2.925     0.048    26.915     8.508
    39   6 C        2.920    -0.048    29.182     8.859
    40   6 C        2.918    -0.028    28.706     8.786
    41   6 C        2.919    -0.028    28.700     8.785
    42   6 C        2.916    -0.051    29.264     8.871
    43   6 C        2.885     0.131    25.129     8.218
    44   8 O        1.709    -0.223    17.693     5.679
    45   6 C        2.885     0.131    25.126     8.218
    46   6 C        2.916    -0.051    29.261     8.870
    47   6 C        2.919    -0.028    28.702     8.785
    48   6 C        2.918    -0.029    28.716     8.787
    49   6 C        2.920    -0.049    29.211     8.863
    50   6 C        2.926     0.048    26.922     8.509
    51   6 C        2.920    -0.048    29.189     8.860
    52   6 C        2.978    -0.051    29.250     8.871
    53   6 C        2.991    -0.000    28.027     8.684
    54   6 C        2.779     0.261    22.601     7.787
    55   8 O        0.858    -0.524    24.331     6.613
    56   1 H        0.925     0.031     2.568     2.506
    57   1 H        0.925     0.039     2.467     2.456
    58   1 H        0.925     0.042     2.420     2.433
    59   1 H        0.924     0.014     2.821     2.626
    60   1 H        0.925     0.033     2.544     2.494
    61   1 H        0.925     0.038     2.474     2.459
    62   1 H        0.925     0.042     2.427     2.436
    63   1 H        0.926     0.040     2.442     2.444
    64   1 H        0.926     0.039     2.462     2.454
    65   1 H        0.926     0.041     2.433     2.439
    66   1 H        0.924     0.014     2.825     2.629
    67   1 H        0.925     0.043     2.411     2.428
    68   1 H        0.925     0.032     2.559     2.501
    69   1 H        0.925     0.039     2.464     2.455
    70   1 H        0.925     0.038     2.477     2.461
    71   1 H        0.925     0.040     2.447     2.446
    72   1 H        0.925     0.035     2.523     2.484
    73   1 H        0.926     0.038     2.472     2.459
    74   1 H        0.926     0.052     2.291     2.367
    75   1 H        0.926     0.057     2.230     2.335
    76   1 H        0.926     0.062     2.175     2.307
    77   1 H        0.926     0.068     2.104     2.268
    78   1 H        0.926     0.068     2.112     2.273
    79   1 H        0.926     0.062     2.173     2.305
    80   1 H        0.926     0.060     2.204     2.322
    81   1 H        0.926     0.056     2.249     2.345
    82   1 H        0.926     0.040     2.445     2.445
    83   1 H        0.926     0.040     2.446     2.446
    84   1 H        0.926     0.053     2.287     2.365
    85   1 H        0.926     0.057     2.229     2.335
    86   1 H        0.926     0.062     2.175     2.306
    87   1 H        0.926     0.068     2.104     2.268
    88   1 H        0.926     0.068     2.112     2.273
    89   1 H        0.926     0.062     2.173     2.305
    90   1 H        0.926     0.060     2.204     2.321
    91   1 H        0.926     0.056     2.248     2.345
    92   1 H        0.926     0.038     2.471     2.458

molecular dipole:
                 x           y           z       tot (Debye)
 q only:       -0.001       5.864       0.795
   full:       -0.005       5.838       0.814      14.982

 projected vibrational frequencies (cm⁻¹)
eigval :       -0.00    -0.00    -0.00    -0.00     0.00     0.00
eigval :        9.01     9.19    12.03    14.63    15.69    21.70
eigval :       26.36    34.17    35.98    42.08    43.32    48.76
eigval :       54.55    70.19    80.45    99.21   106.04   107.27
eigval :      109.37   121.72   125.49   141.00   146.45   155.31
eigval :      159.27   180.57   193.95   195.77   203.14   218.68
eigval :      226.73   234.73   242.27   242.90   243.10   253.16
eigval :      255.56   265.16   271.38   274.10   277.59   283.80
eigval :      297.18   300.12   304.96   320.75   338.96   382.70
eigval :      385.38   390.17   396.24   416.42   417.28   421.25
eigval :      425.18   430.30   430.60   440.57   444.72   445.23
eigval :      451.31   467.96   481.16   486.71   495.40   495.68
eigval :      498.66   508.01   514.06   518.10   524.88   532.11
eigval :      535.79   562.78   571.59   573.89   577.65   587.48
eigval :      609.89   612.96   615.60   622.63   627.34   636.42
eigval :      655.50   667.63   668.48   668.52   670.48   672.53
eigval :      673.32   675.57   688.89   716.81   724.75   730.72
eigval :      769.51   772.97   774.00   775.07   777.18   778.72
eigval :      793.13   799.75   806.89   830.00   834.56   837.08
eigval :      844.09   850.60   852.79   856.11   856.26   865.70
eigval :      866.92   868.09   868.30   895.80   900.66   901.12
eigval :      901.58   901.93   914.17   914.36   917.74   918.19
eigval :      919.13   919.32   921.09   936.35   945.75   947.92
eigval :      974.11   981.57   986.99   988.57   996.78  1045.71
eigval :     1074.12  1076.05  1080.63  1081.26  1082.51  1083.09
eigval :     1084.78  1100.69  1113.73  1114.12  1116.82  1121.99
eigval :     1139.62  1141.01  1148.32  1148.39  1164.11  1165.41
eigval :     1170.02  1171.15  1172.32  1175.24  1179.29  1180.73
eigval :     1184.19  1193.02  1194.74  1203.44  1207.77  1208.33
eigval :     1223.99  1234.86  1235.36  1248.21  1249.23  1250.87
eigval :     1252.25  1262.73  1290.01  1295.23  1298.23  1306.80
eigval :     1308.72  1312.17  1314.45  1316.79  1316.94  1326.45
eigval :     1333.01  1341.42  1345.53  1357.63  1365.46  1374.14
eigval :     1388.76  1392.89  1397.36  1398.57  1408.48  1412.13
eigval :     1413.35  1415.00  1415.59  1432.41  1432.65  1438.02
eigval :     1438.40  1457.15  1459.15  1462.22  1476.71  1478.86
eigval :     1486.64  1490.88  1493.38  1493.91  1495.15  1499.05
eigval :     1500.09  1504.23  1504.47  1505.60  1542.68  1551.20
eigval :     1551.44  1560.94  1561.02  1563.16  1569.25  1580.03
eigval :     1583.74  1586.90  1590.78  1591.44  1615.95  2925.99
eigval :     2930.14  3020.02  3020.64  3023.82  3024.77  3025.96
eigval :     3026.88  3027.48  3028.54  3036.63  3040.12  3043.08
eigval :     3044.05  3071.63  3085.44  3090.43  3092.87  3093.75
eigval :     3097.27  3097.51  3097.67  3097.77  3097.93  3098.66
eigval :     3104.95  3105.24  3105.26  3105.36  3112.62  3112.80
eigval :     3114.17  3114.28  3116.16  3116.44  3117.02  3117.34

   temp. (K)  partition function   enthalpy   heat capacity  entropy
                                   cal/mol     cal/K/mol   cal/K/mol   J/K/mol
 298.15  VIB  0.460E+23            27635.126    169.383    173.048
         ROT  0.120E+09              888.752      2.981     39.942
         INT  0.550E+31            28523.878    172.364    212.990
         TR   0.187E+29             1481.254      4.968     45.581
         TOT                       30005.1321   177.3323   258.5706  1081.8592

       T/K    H(0)-H(T)+PV         H(T)/Eh          T*S/Eh         G(T)/Eh
   ------------------------------------------------------------------------
    298.15    0.478162E-01    0.757067E+00    0.122855E+00    0.634212E+00
   ------------------------------------------------------------------------

         :::::::::::::::::::::::::::::::::::::::::::::::::::::
         ::                  THERMODYNAMIC                  ::
         :::::::::::::::::::::::::::::::::::::::::::::::::::::
         :: total free energy        -146.209927637140 Eh   ::
         ::.................................................::
         :: total energy             -146.844139885490 Eh   ::
         :: zero point energy           0.709251241336 Eh   ::
         :: G(RRHO) w/o ZPVE           -0.075038992986 Eh   ::
         :: G(RRHO) contrib.            0.634212248350 Eh   ::
         :::::::::::::::::::::::::::::::::::::::::::::::::::::

           -------------------------------------------------
          | TOTAL ENERGY             -146.844139885490 Eh   |
          | TOTAL ENTHALPY           -146.087072422472 Eh   |
          | TOTAL FREE ENERGY        -146.209927637140 Eh   |
          | GRADIENT NORM               0.000134192513 Eh/α |
          | HOMO-LUMO GAP               1.014318779201 eV   |
           -------------------------------------------------

 * finished run on 2025/08/24 at 16:30:24.112
