   * xtb version 6.7.1 (edcfbbe) compiled by 'albert@albert-system' on 2024-07-22

   ID    Z sym.   atoms
    1    6 C      1-12, 14, 16-18, 20-25, 27-36, 38-43, 45-54
    2    7 N      13, 19, 37
    3    8 O      15, 26, 44, 55
    4    1 H      56-92

          program call               : xtb data2507/toluene/2PN/2PN_toluene_S0_finalOpt.xtbopt.xyz --gfn 2 --uhf 2 --gbsa toluene --ohess vtight --parallel 40 --molden --ceasefiles --namespace data2507/toluene/2PN/2PN_toluene_T1_preOpt
      * Solvation model:               GBSA
        Solvent                        toluene
        Solvent mass                       9.2140E+01 g/mol
          :  Hamiltonian                  GFN2-xTB          :
 * total energy  :  -146.8340468 Eh     change       -0.1117024E-07 Eh
 * total energy  :  -146.8379204 Eh     change       -0.3873648E-02 Eh
 * total energy  :  -146.8389851 Eh     change       -0.1064658E-02 Eh
 * total energy  :  -146.8390954 Eh     change       -0.1102947E-03 Eh
 * total energy  :  -146.8391925 Eh     change       -0.9706455E-04 Eh
 * total energy  :  -146.8392295 Eh     change       -0.3704121E-04 Eh
 * total energy  :  -146.8392739 Eh     change       -0.4438624E-04 Eh
 * total energy  :  -146.8393155 Eh     change       -0.4158048E-04 Eh
 * total energy  :  -146.8393583 Eh     change       -0.4279600E-04 Eh
 * total energy  :  -146.8394098 Eh     change       -0.5148985E-04 Eh
 * total energy  :  -146.8401312 Eh     change       -0.1198949E-05 Eh
 * total energy  :  -146.8401340 Eh     change       -0.2794733E-05 Eh
 * total energy  :  -146.8401351 Eh     change       -0.1139360E-05 Eh
 * total energy  :  -146.8401361 Eh     change       -0.9959197E-06 Eh
 * total energy  :  -146.8401371 Eh     change       -0.9932165E-06 Eh
 * total energy  :  -146.8401376 Eh     change       -0.4664112E-06 Eh
 * total energy  :  -146.8401378 Eh     change       -0.2468293E-06 Eh
 * total energy  :  -146.8401380 Eh     change       -0.1472296E-06 Eh
 * total energy  :  -146.8401380 Eh     change       -0.9128462E-07 Eh
   *** GEOMETRY OPTIMIZATION CONVERGED AFTER 52 ITERATIONS ***

 final structure:
================
92
 xtb: 6.7.1 (edcfbbe)
C           -1.89105102074168       -4.77375950968396       -2.26079295678024
C           -0.39258463740873       -4.90931711563682       -1.96114383845804
C            0.36764754381143       -3.67094957879078       -2.43829082077803
C           -0.21647508930035       -5.28698670092380       -0.50327321014147
C           -0.21321036011999       -6.64943015701959       -0.21642006493809
C           -0.11721022830563       -7.11821466360773        1.07773766644405
C           -0.02603515016614       -6.22239512836056        2.12431221002086
C           -0.02962192282917       -4.85505202118970        1.88849429598344
C            0.08222924409146       -3.89584274263669        3.05203404727502
C           -1.02825974556463       -4.13519077305127        4.07738711114221
C            1.46969954603074       -4.01098243697388        3.68918827695322
C           -0.12142496631168       -4.40047810362637        0.57000651211566
N           -0.09215283990576       -2.98220179826029        0.35120090072985
C           -1.31023337333729       -2.32071305585031        0.31760414498139
O           -2.36489417208324       -2.95302710195766        0.44879730828060
C           -1.25313790512894       -0.89275697753189        0.10977589646161
C           -2.44508550715197       -0.15641063444255        0.01767040272229
C           -2.39399999793335        1.20920294828516       -0.18668920031666
N           -3.60195833466323        1.95331590892701       -0.29415356715986
C           -3.96125967558809        2.84080311427542        0.70481624012054
C           -3.20263527584972        3.00268118784084        1.86449458325852
C           -3.59025009165546        3.90611294446157        2.83565906049745
C           -4.74269165892606        4.66176165941972        2.67662427481424
C           -5.52099717618549        4.50081976906267        1.54351258126326
C           -5.14152158381626        3.59555788494812        0.56459026183208
O           -5.95680745792802        3.46623425971204       -0.52215222784367
C           -5.60475239675579        2.56477508491902       -1.48454375198271
C           -6.44973853145419        2.43559771283338       -2.57589153221289
C           -6.13625296442397        1.55148766937482       -3.59331111855059
C           -4.97021282873135        0.80317511991639       -3.52246330540283
C           -4.12161755797443        0.92513999260354       -2.43884862043677
C           -4.42756364798151        1.79718676876643       -1.39388808649533
C           -1.17870055028286        1.87929021006902       -0.29915241364596
C            0.03181395282589        1.17086969348884       -0.20116882333223
C            1.28191991255754        1.80734026602091       -0.29615898969239
C            2.45509427398685        1.06665155778689       -0.18125685932804
N            3.70678353761209        1.73488399587515       -0.28851471783656
C            4.12837466782966        2.58880415495637        0.71513707330269
C            3.37580369097567        2.81068560413503        1.86880476984420
C            3.82767612342352        3.67845134092901        2.84473004923872
C            5.03967097187615        4.33707179187924        2.69704528053557
C            5.81158650977665        4.11467871849054        1.56999391439135
C            5.36742007542749        3.24513772301391        0.58590592095958
O            6.17844883011056        3.05168253447951       -0.49448062417845
C            5.75689622503336        2.19264770891400       -1.46757238433850
C            6.59259377347160        2.00432011067143       -2.55744441945846
C            6.21027743720386        1.15976830481390       -3.58488593946798
C            4.98514479910977        0.51132483491148       -3.52592042721361
C            4.14581866024089        0.69175124765304       -2.44330420957834
C            4.51993174917090        1.52423701849046       -1.38825063648325
C            2.42536688087803       -0.29965928495473        0.02286347211757
C            1.19254664376680       -0.96508486209555        0.11231794988745
C           -0.00967886430942       -0.23771552171549        0.00576749609521
C            1.16562267859783       -2.39453363681583        0.31238793733553
O            2.17987578843487       -3.09133607495287        0.42911997807222
H           -2.34328715156121       -4.03155352623050       -1.60657781452748
H           -2.39792135983708       -5.72119324347801       -2.09062527393015
H           -2.04303566684776       -4.47403232605363       -3.29556283875722
H           -0.01112878852078       -5.75776159373524       -2.54317808393315
H            1.37783191864659       -3.65975443382141       -2.03354490628698
H            0.43275236597830       -3.68488894566075       -3.52510915537410
H           -0.13854836843724       -2.75393637474126       -2.14530632189151
H           -0.28609890892244       -7.35402751247634       -1.03301731649166
H           -0.11143437154718       -8.18116259155831        1.27023354962721
H            0.05245660280152       -6.59030108273340        3.13582773853732
H           -0.03044658026418       -2.87107796470603        2.68173333574947
H           -0.93534068573447       -5.11539706303697        4.53690365274702
H           -2.00062724352214       -4.06936837424479        3.59248134127325
H           -0.97793281563691       -3.38145900820037        4.86065357018379
H            1.58040741942982       -3.27944982409381        4.48716788160522
H            1.62340147365584       -5.00486842527642        4.10190554488695
H            2.23402462906599       -3.82775712047248        2.93563992938762
H           -3.38395666016662       -0.68031452519434        0.11137286442468
H           -2.31216283001077        2.40956099495002        1.99624912672920
H           -2.98847629818294        4.01662483934748        3.72399730484539
H           -5.04141986125759        5.36744284828036        3.43512591934416
H           -6.42926822371015        5.06278182709404        1.39642347430427
H           -7.34317311081981        3.03839573737603       -2.60577051804626
H           -6.79728728908543        1.45200080167268       -4.43924268985082
H           -4.71575983474067        0.11913051180993       -4.31674564061760
H           -3.21505767052307        0.34355399696973       -2.39030891740345
H           -1.16301510129063        2.94466343589264       -0.46974793146355
H            1.32901947381944        2.87162955925789       -0.46759562771968
H            2.43883096903381        2.29211634291165        1.99206887731290
H            3.22953036411248        3.83701272761612        3.72823653822767
H            5.38871826643650        5.01471471406072        3.45963028132496
H            6.76417027479551        4.60032096149798        1.43164960364636
H            7.53340456683876        2.53051682590448       -2.57809184364739
H            6.86398239623375        1.01401850164296       -4.42979481053737
H            4.67747338691247       -0.14053163829081       -4.32835899044840
H            3.19420207116603        0.18648235373141       -2.40298082833143
H            3.33161647895354       -0.87813707004546        0.11570474901842

          :  Hamiltonian                  GFN2-xTB          :
         :: gradient norm              0.000045200730 Eh/a0 ::
         :: HOMO-LUMO gap              1.016206852477 eV    ::
         :: SCC energy              -149.235814736585 Eh    ::
         :: -> dispersion             -0.132405264655 Eh    ::
         :: -> Gsolv                  -0.073895407064 Eh    ::
         :: repulsion energy           2.395676691033 Eh    ::

    * Orbital Energies and Occupations

         #    Occupation            Energy/Eh            Energy/eV
      -------------------------------------------------------------
         1        2.0000           -0.7569204             -20.5969
       ...           ...                  ...                  ...
       123        2.0000           -0.4148961             -11.2899
       124        2.0000           -0.4141301             -11.2691
       125        2.0000           -0.4102148             -11.1625
       126        2.0000           -0.4085462             -11.1171
       127        2.0000           -0.3973565             -10.8126
       128        2.0000           -0.3932188             -10.7000
       129        2.0000           -0.3883117             -10.5665
       130        2.0000           -0.3872912             -10.5387
       131        2.0000           -0.3842188             -10.4551
       132        2.0000           -0.3832436             -10.4286
       133        1.6606           -0.3624187              -9.8619
       134        1.3394           -0.3611530              -9.8275
       135        1.0000           -0.2978639              -8.1053 (HOMO)
       136                         -0.2605189              -7.0891 (LUMO)
       137                         -0.2604761              -7.0879
       138                         -0.2478895              -6.7454
       139                         -0.2477490              -6.7416
       140                         -0.2412927              -6.5659
       141                         -0.2343517              -6.3770
       142                         -0.2342620              -6.3746
       143                         -0.2310485              -6.2871
       144                         -0.2182390              -5.9386
       145                         -0.2177134              -5.9243
       146                         -0.2174819              -5.9180
       ...                                ...                  ...
       257                          0.7158539              19.4794
      -------------------------------------------------------------
                  HL-Gap            0.0373450 Eh            1.0162 eV

     #   Z          covCN         q      C6AA      α(0)
     1   6 C        3.757    -0.099    22.442     6.754
     2   6 C        3.855    -0.011    20.729     6.475
     3   6 C        3.753    -0.092    22.308     6.735
     4   6 C        2.967     0.001    28.004     8.680
     5   6 C        2.932    -0.046    29.146     8.854
     6   6 C        2.914    -0.038    28.936     8.821
     7   6 C        2.927    -0.042    29.048     8.839
     8   6 C        2.974     0.003    27.946     8.671
     9   6 C        3.855    -0.004    20.621     6.459
    10   6 C        3.755    -0.101    22.481     6.761
    11   6 C        3.756    -0.099    22.451     6.756
    12   6 C        2.941     0.088    26.051     8.371
    13   7 N        2.749    -0.130    23.821     7.249
    14   6 C        2.777     0.262    22.593     7.785
    15   8 O        0.858    -0.525    24.352     6.616
    16   6 C        2.978    -0.051    29.264     8.874
    17   6 C        2.920    -0.048    29.196     8.861
    18   6 C        2.916     0.048    26.915     8.507
    19   7 N        2.754    -0.022    21.668     6.913
    20   6 C        2.926     0.048    26.921     8.509
    21   6 C        2.920    -0.049    29.211     8.863
    22   6 C        2.918    -0.029    28.717     8.788
    23   6 C        2.919    -0.028    28.703     8.786
    24   6 C        2.916    -0.051    29.263     8.871
    25   6 C        2.885     0.131    25.127     8.218
    26   8 O        1.709    -0.223    17.697     5.680
    27   6 C        2.885     0.131    25.131     8.219
    28   6 C        2.916    -0.051    29.264     8.871
    29   6 C        2.919    -0.028    28.702     8.785
    30   6 C        2.918    -0.028    28.707     8.786
    31   6 C        2.920    -0.048    29.183     8.859
    32   6 C        2.925     0.048    26.915     8.508
    33   6 C        2.920    -0.070    29.750     8.944
    34   6 C        2.980     0.012    27.738     8.639
    35   6 C        2.920    -0.070    29.749     8.944
    36   6 C        2.916     0.048    26.914     8.507
    37   7 N        2.754    -0.021    21.659     6.912
    38   6 C        2.926     0.048    26.921     8.509
    39   6 C        2.920    -0.049    29.212     8.863
    40   6 C        2.918    -0.029    28.716     8.787
    41   6 C        2.919    -0.028    28.702     8.785
    42   6 C        2.916    -0.051    29.261     8.870
    43   6 C        2.885     0.131    25.126     8.218
    44   8 O        1.709    -0.223    17.693     5.679
    45   6 C        2.885     0.131    25.129     8.218
    46   6 C        2.916    -0.051    29.265     8.871
    47   6 C        2.919    -0.028    28.700     8.785
    48   6 C        2.918    -0.028    28.706     8.786
    49   6 C        2.920    -0.048    29.183     8.859
    50   6 C        2.925     0.048    26.915     8.508
    51   6 C        2.921    -0.048    29.185     8.859
    52   6 C        2.978    -0.050    29.237     8.870
    53   6 C        2.991    -0.000    28.030     8.685
    54   6 C        2.780     0.263    22.559     7.779
    55   8 O        0.858    -0.525    24.338     6.614
    56   1 H        0.925     0.040     2.453     2.449
    57   1 H        0.925     0.034     2.533     2.489
    58   1 H        0.925     0.039     2.462     2.454
    59   1 H        0.924     0.036     2.503     2.474
    60   1 H        0.925     0.030     2.582     2.513
    61   1 H        0.925     0.037     2.494     2.470
    62   1 H        0.925     0.021     2.718     2.578
    63   1 H        0.926     0.036     2.504     2.475
    64   1 H        0.926     0.039     2.461     2.453
    65   1 H        0.926     0.041     2.439     2.442
    66   1 H        0.924     0.013     2.841     2.636
    67   1 H        0.925     0.042     2.417     2.431
    68   1 H        0.925     0.032     2.565     2.504
    69   1 H        0.925     0.038     2.472     2.459
    70   1 H        0.925     0.037     2.492     2.469
    71   1 H        0.925     0.040     2.449     2.447
    72   1 H        0.925     0.036     2.508     2.476
    73   1 H        0.926     0.038     2.474     2.460
    74   1 H        0.926     0.056     2.251     2.346
    75   1 H        0.926     0.059     2.205     2.322
    76   1 H        0.926     0.062     2.174     2.306
    77   1 H        0.926     0.068     2.113     2.273
    78   1 H        0.926     0.068     2.106     2.269
    79   1 H        0.926     0.062     2.176     2.307
    80   1 H        0.926     0.058     2.228     2.334
    81   1 H        0.926     0.053     2.288     2.366
    82   1 H        0.926     0.040     2.451     2.448
    83   1 H        0.926     0.040     2.445     2.445
    84   1 H        0.926     0.056     2.246     2.344
    85   1 H        0.926     0.060     2.204     2.321
    86   1 H        0.926     0.062     2.173     2.305
    87   1 H        0.926     0.068     2.112     2.273
    88   1 H        0.926     0.068     2.105     2.269
    89   1 H        0.926     0.062     2.176     2.307
    90   1 H        0.926     0.058     2.228     2.334
    91   1 H        0.926     0.053     2.284     2.363
    92   1 H        0.926     0.038     2.474     2.460

molecular dipole:
                 x           y           z       tot (Debye)
 q only:        0.193       5.921      -0.810
   full:        0.187       5.866      -0.832      15.068

 projected vibrational frequencies (cm⁻¹)
eigval :       -0.00    -0.00    -0.00     0.00     0.00     0.00
eigval :        9.86    12.92    15.58    16.35    17.49    26.33
eigval :       35.99    38.41    41.85    47.41    50.82    55.30
eigval :       68.72    79.47    98.56   104.69   108.04   110.89
eigval :      125.01   126.38   135.56   142.00   148.58   158.23
eigval :      164.73   181.46   196.00   197.28   211.33   215.52
eigval :      223.09   236.52   242.26   243.61   253.08   255.56
eigval :      266.28   274.33   277.53   279.28   284.17   293.31
eigval :      300.86   309.21   321.11   328.37   338.55   383.50
eigval :      385.85   390.30   396.29   411.65   416.55   422.79
eigval :      427.76   430.56   431.01   440.80   445.66   449.56
eigval :      461.84   469.20   473.38   487.71   495.27   495.28
eigval :      501.22   507.37   515.66   518.36   522.63   524.68
eigval :      537.18   563.03   564.70   571.81   577.56   587.12
eigval :      609.78   613.34   616.78   622.67   627.33   633.31
eigval :      655.54   667.00   668.33   668.48   669.37   673.34
eigval :      673.60   674.56   689.50   715.23   724.69   731.82
eigval :      770.03   773.17   774.36   775.30   777.83   779.04
eigval :      793.10   799.39   805.38   830.06   834.06   836.92
eigval :      843.98   850.76   856.08   856.20   857.44   865.91
eigval :      867.07   868.95   869.57   894.64   899.74   901.59
eigval :      902.77   903.20   914.22   914.42   916.64   917.63
eigval :      918.58   919.77   921.63   937.32   946.86   954.06
eigval :      971.28   981.36   987.56   992.30   996.78  1045.85
eigval :     1074.40  1077.81  1080.95  1081.26  1082.69  1083.83
eigval :     1091.75  1113.50  1113.65  1114.82  1121.44  1128.87
eigval :     1139.18  1140.86  1149.06  1150.76  1156.74  1165.41
eigval :     1168.74  1169.78  1170.13  1175.40  1179.09  1181.39
eigval :     1183.79  1192.67  1199.19  1207.66  1208.33  1208.89
eigval :     1228.17  1232.63  1235.10  1235.54  1249.30  1251.93
eigval :     1253.04  1259.86  1282.37  1290.36  1299.52  1306.35
eigval :     1306.85  1308.76  1314.73  1316.81  1316.96  1326.64
eigval :     1341.23  1342.70  1345.56  1365.95  1370.92  1374.37
eigval :     1388.84  1393.38  1397.97  1405.57  1408.88  1412.91
eigval :     1414.80  1415.17  1416.55  1432.60  1433.04  1437.86
eigval :     1438.23  1450.04  1459.22  1464.22  1478.07  1478.94
eigval :     1487.94  1489.55  1493.04  1497.18  1499.83  1500.47
eigval :     1504.05  1504.13  1510.11  1517.74  1543.00  1551.19
eigval :     1551.45  1560.88  1560.97  1563.22  1569.26  1580.03
eigval :     1583.71  1584.64  1587.82  1589.75  1614.26  2908.78
eigval :     2933.33  3014.16  3020.10  3023.45  3023.88  3026.51
eigval :     3028.03  3030.31  3032.72  3037.10  3037.37  3042.69
eigval :     3048.64  3065.56  3077.29  3090.38  3090.72  3093.65
eigval :     3096.95  3097.10  3097.62  3097.83  3097.95  3098.51
eigval :     3104.61  3104.90  3105.23  3105.50  3112.84  3112.92
eigval :     3114.12  3114.79  3116.19  3116.40  3116.83  3117.57

   temp. (K)  partition function   enthalpy   heat capacity  entropy
                                   cal/mol     cal/K/mol   cal/K/mol   J/K/mol
 298.15  VIB  0.248E+22            27357.559    170.231    169.730
         ROT  0.117E+09              888.752      2.981     39.897
         INT  0.290E+30            28246.311    173.212    209.627
         TR   0.187E+29             1481.254      4.968     45.581
         TOT                       29727.5651   178.1801   255.2079  1067.7899

       T/K    H(0)-H(T)+PV         H(T)/Eh          T*S/Eh         G(T)/Eh
   ------------------------------------------------------------------------
    298.15    0.473739E-01    0.757302E+00    0.121258E+00    0.636044E+00
   ------------------------------------------------------------------------

         :::::::::::::::::::::::::::::::::::::::::::::::::::::
         ::                  THERMODYNAMIC                  ::
         :::::::::::::::::::::::::::::::::::::::::::::::::::::
         :: total free energy        -146.204093628954 Eh   ::
         ::.................................................::
         :: total energy             -146.840138050384 Eh   ::
         :: zero point energy           0.709928047744 Eh   ::
         :: G(RRHO) w/o ZPVE           -0.073883626313 Eh   ::
         :: G(RRHO) contrib.            0.636044421430 Eh   ::
         :::::::::::::::::::::::::::::::::::::::::::::::::::::

           -------------------------------------------------
          | TOTAL ENERGY             -146.840138050384 Eh   |
          | TOTAL ENTHALPY           -146.082836112104 Eh   |
          | TOTAL FREE ENERGY        -146.204093628954 Eh   |
          | GRADIENT NORM               0.000046717796 Eh/α |
          | HOMO-LUMO GAP               1.016209242066 eV   |
           -------------------------------------------------

 * finished run on 2025/08/24 at 16:19:53.522
