   * xtb version 6.7.1 (edcfbbe) compiled by 'albert@albert-system' on 2024-07-22

   ID    Z sym.   atoms
    1    6 C      1-12, 14, 16-18, 20-25, 27-36, 38-43, 45-54
    2    7 N      13, 19, 37
    3    8 O      15, 26, 44, 55
    4    1 H      56-92

          program call               : xtb data2507/toluene/2PN/2PN.xyz --gfn 2 --gbsa toluene --ohess vtight --parallel 40 --molden --ceasefiles --namespace data2507/toluene/2PN/2PN_toluene_S0_preOpt
      * Solvation model:               GBSA
        Solvent                        toluene
        Solvent mass                       9.2140E+01 g/mol
          :  Hamiltonian                  GFN2-xTB          :
 * total energy  :  -146.8563338 Eh     change       -0.4003056E-08 Eh
 * total energy  :  -146.8713780 Eh     change       -0.1504418E-01 Eh
 * total energy  :  -146.8764738 Eh     change       -0.5095810E-02 Eh
 * total energy  :  -146.8778812 Eh     change       -0.1407356E-02 Eh
 * total energy  :  -146.8789109 Eh     change       -0.1029710E-02 Eh
 * total energy  :  -146.8793487 Eh     change       -0.4378248E-03 Eh
 * total energy  :  -146.8795476 Eh     change       -0.1988742E-03 Eh
 * total energy  :  -146.8796646 Eh     change       -0.1170276E-03 Eh
 * total energy  :  -146.8797565 Eh     change       -0.9191848E-04 Eh
 * total energy  :  -146.8798320 Eh     change       -0.7551526E-04 Eh
 * total energy  :  -146.8830881 Eh     change       -0.4852290E-06 Eh
 * total energy  :  -146.8830886 Eh     change       -0.5074828E-06 Eh
 * total energy  :  -146.8830891 Eh     change       -0.4739626E-06 Eh
 * total energy  :  -146.8830894 Eh     change       -0.3528340E-06 Eh
 * total energy  :  -146.8830897 Eh     change       -0.2490074E-06 Eh
 * total energy  :  -146.8830899 Eh     change       -0.2188135E-06 Eh
 * total energy  :  -146.8830901 Eh     change       -0.1729501E-06 Eh
 * total energy  :  -146.8830902 Eh     change       -0.1211498E-06 Eh
 * total energy  :  -146.8830902 Eh     change       -0.4421736E-08 Eh
   *** GEOMETRY OPTIMIZATION CONVERGED AFTER 90 ITERATIONS ***

 final structure:
================
92
 xtb: 6.7.1 (edcfbbe)
C           -1.98473825308230       -3.71398143117364       -3.27197233817580
C           -0.49532319640796       -3.95609221485151       -2.99343186481350
C            0.30486894747146       -2.66520061968340       -3.17838979155504
C           -0.35315155463477       -4.65820673392989       -1.65747112410084
C           -0.39942460357510       -6.04987214039997       -1.68248672204696
C           -0.34266396290978       -6.79798021792563       -0.52433361969780
C           -0.24414889006090       -6.16425793692155        0.69843859861222
C           -0.19529889082802       -4.77948330653124        0.77638098333578
C           -0.08270422212582       -4.11214845253209        2.12862367720457
C           -1.26081034120009       -4.49955548921067        3.02613709006334
C            1.25787184221362       -4.46290379979370        2.78017961028312
C           -0.24708975008211       -4.04386186874583       -0.41016730093159
N           -0.16146937346689       -2.60841320340889       -0.30588024389667
C           -1.35148470699832       -1.91499395789101       -0.17602238578982
O           -2.41788488888817       -2.50244689205154       -0.18035167777598
C           -1.23927197163306       -0.45450421793164       -0.03892824441236
C           -2.38063364564023        0.31409093584808        0.04149674540670
C           -2.29102169066468        1.71227699557989        0.16372116716436
N           -3.46903056461150        2.47603588043151        0.23599936458378
C           -3.76008164089780        3.44424397128188       -0.73417440903188
C           -2.93566207141403        3.67761150493822       -1.82833037775212
C           -3.25976242658111        4.63983041141576       -2.77263702396105
C           -4.41766839429506        5.38094099874635       -2.64570130607415
C           -5.26795890099166        5.13859542750110       -1.57757751467941
C           -4.95068497693776        4.17613383648687       -0.63565370781908
O           -5.86433463844773        3.97109558839833        0.36998527238190
C           -5.56894694962160        3.01299572515099        1.30923598091173
C           -6.49161373337080        2.82669047470339        2.32278489776973
C           -6.25041674667879        1.90177855347489        3.32762864186734
C           -5.07197846050767        1.18254237340199        3.32044497794859
C           -4.14422165445415        1.36653063171694        2.30649661592469
C           -4.38678735394214        2.26208730272955        1.27173285385787
C           -1.05312719042604        2.32216663769329        0.19860532042486
C            0.13011471225854        1.56392026619041        0.10908386478845
C            1.40752204959161        2.15518765144676        0.15423008193522
C            2.54955629565404        1.38347988744850        0.07767937961600
N            3.82253191023736        1.97895139679171        0.10082244256169
C            4.74817922741702        1.62363870575363        1.08974246915155
C            4.42040974030030        0.77998179403388        2.14457494043135
C            5.35932338611510        0.45080821120920        3.11033063479289
C            6.63614660685707        0.97255259714553        3.04935393270576
C            6.96829126155221        1.84664591772577        2.02522321134084
C            6.03500098925212        2.17649002797790        1.05898667943764
O            6.42903211928572        3.07367081753460        0.09627472930382
C            5.50782051730325        3.42029001623649       -0.86255020151973
C            5.92500177782160        4.31852035994652       -1.82877009492024
C            5.06925327797246        4.69320919822452       -2.85336518305429
C            3.80198409895539        4.14850264537646       -2.91173914951919
C            3.37861617628822        3.25088319838039       -1.94340408802978
C            4.21196509888706        2.88809494261538       -0.89214170521791
C            2.44420491108111       -0.01431022070838       -0.03722612323825
C            1.20762144714988       -0.62118989261589       -0.07517007997775
C            0.03206546995608        0.15303914080073       -0.00269644314316
C            1.11712300283054       -2.08323634998504       -0.20186363951852
O            2.09192759877315       -2.81140835873314       -0.21963259008781
H           -2.52245064928242       -4.65877454639757       -3.30477662546797
H           -2.10995024495770       -3.20681855760290       -4.22610404995495
H           -2.42921650160358       -3.10368487153949       -2.48920991402410
H           -0.12858127303973       -4.66363553070063       -3.74660533195042
H            1.31233772137305       -2.77349431708776       -2.78183535147138
H            0.38160372399658       -2.44267567729319       -4.24110235471836
H           -0.17860816249816       -1.81674517400873       -2.69897469250309
H           -0.48008778307645       -6.55093609929988       -2.63623267805682
H           -0.37562427768867       -7.87612830293277       -0.57474414652128
H           -0.20080192770946       -6.75166716141877        1.60202579805693
H           -0.11437402236705       -3.02426951310631        2.00205568906215
H           -1.25156316024947       -5.56283235506177        3.24823471182713
H           -2.20054444418645       -4.25721100930494        2.53311751681666
H           -1.20836775723221       -3.95136821472151        3.96447217144791
H            1.36588193545816       -3.93246697883368        3.72397843583040
H            1.32764548479131       -5.53018167309115        2.97203203340561
H            2.07623845105711       -4.17664448150525        2.12170853679368
H           -3.34448212241328       -0.17056945086032       -0.00866505384753
H           -2.03655946955844        3.09547797653918       -1.95362613730743
H           -2.59715300993771        4.80079531019244       -3.60887232217749
H           -4.67227486437043        6.13564683518049       -3.37274708872869
H           -6.19149971986840        5.68276086891816       -1.45790203401389
H           -7.39161134811785        3.42097791361680        2.30860347517930
H           -6.97712047663707        1.76058686695432        4.11188661165780
H           -4.85906128051702        0.47413256972002        4.10610123647287
H           -3.22123741462139        0.80857635255635        2.32672961675177
H           -0.98397982943535        3.39493791244645        0.29943451254468
H            1.48695381584761        3.22729930202488        0.25403312950007
H            3.42235964057369        0.37732492448165        2.21812616026534
H            5.07852231784656       -0.21447863808704        3.91211575103528
H            7.37154160958497        0.71726173003643        3.79574215366824
H            7.94957723129399        2.28939801112041        1.95858029671764
H            6.92912880241320        4.70680532873086       -1.76282841094893
H            5.40239613152775        5.39584734703609       -3.60060661031702
H            3.13032136966717        4.41331853767188       -3.71359100539965
H            2.39290202841624        2.82007663568072       -2.01764657272211
H            3.33070265569613       -0.62610658935520       -0.11503267000564

          :  Hamiltonian                  GFN2-xTB          :
         :: gradient norm              0.000091398369 Eh/a0 ::
         :: HOMO-LUMO gap              0.732131911818 eV    ::
         :: SCC energy              -149.290310465744 Eh    ::
         :: -> dispersion             -0.131968847820 Eh    ::
         :: -> Gsolv                  -0.059332665999 Eh    ::
         :: repulsion energy           2.407220254603 Eh    ::

    * Orbital Energies and Occupations

         #    Occupation            Energy/Eh            Energy/eV
      -------------------------------------------------------------
         1        2.0000           -0.7350201             -20.0009
       ...           ...                  ...                  ...
       122        2.0000           -0.4210833             -11.4583
       123        2.0000           -0.4210394             -11.4571
       124        2.0000           -0.4191025             -11.4044
       125        2.0000           -0.4188478             -11.3974
       126        2.0000           -0.4176255             -11.3642
       127        2.0000           -0.4160071             -11.3201
       128        2.0000           -0.4155475             -11.3076
       129        2.0000           -0.4056888             -11.0394
       130        2.0000           -0.3974404             -10.8149
       131        2.0000           -0.3961612             -10.7801
       132        2.0000           -0.3960442             -10.7769
       133        2.0000           -0.3514349              -9.5630
       134        2.0000           -0.3510060              -9.5514 (HOMO)
       135        0.0000           -0.3241006              -8.8192 (LUMO)
       136                         -0.2660826              -7.2405
       137                         -0.2626700              -7.1476
       138                         -0.2447738              -6.6606
       139                         -0.2439975              -6.6395
       140                         -0.2438518              -6.6355
       141                         -0.2353124              -6.4032
       142                         -0.2352646              -6.4019
       143                         -0.2299221              -6.2565
       144                         -0.2282597              -6.2113
       145                         -0.2205435              -6.0013
       ...                                ...                  ...
       257                          0.7122013              19.3800
      -------------------------------------------------------------
                  HL-Gap            0.0269054 Eh            0.7321 eV

     #   Z          covCN         q      C6AA      α(0)
     1   6 C        3.757    -0.101    22.490     6.762
     2   6 C        3.855    -0.013    20.768     6.481
     3   6 C        3.753    -0.096    22.397     6.749
     4   6 C        2.966     0.004    27.921     8.667
     5   6 C        2.933    -0.042    29.048     8.839
     6   6 C        2.914    -0.033    28.820     8.803
     7   6 C        2.927    -0.038    28.943     8.823
     8   6 C        2.973     0.006    27.888     8.662
     9   6 C        3.854    -0.004    20.620     6.458
    10   6 C        3.755    -0.103    22.530     6.768
    11   6 C        3.755    -0.103    22.518     6.766
    12   6 C        2.942     0.070    26.432     8.432
    13   7 N        2.746    -0.103    23.257     7.162
    14   6 C        2.775     0.281    22.238     7.724
    15   8 O        0.859    -0.436    22.409     6.347
    16   6 C        2.974    -0.029    28.709     8.789
    17   6 C        2.924    -0.023    28.578     8.767
    18   6 C        2.914     0.072    26.396     8.425
    19   7 N        2.751    -0.065    22.505     7.046
    20   6 C        2.920     0.040    27.110     8.538
    21   6 C        2.924    -0.060    29.498     8.907
    22   6 C        2.919    -0.038    28.938     8.821
    23   6 C        2.919    -0.039    28.962     8.825
    24   6 C        2.920    -0.056    29.395     8.891
    25   6 C        2.883     0.124    25.269     8.241
    26   8 O        1.709    -0.266    18.401     5.792
    27   6 C        2.883     0.124    25.271     8.241
    28   6 C        2.920    -0.057    29.405     8.892
    29   6 C        2.919    -0.039    28.958     8.824
    30   6 C        2.919    -0.038    28.937     8.821
    31   6 C        2.924    -0.058    29.450     8.899
    32   6 C        2.921     0.040    27.094     8.536
    33   6 C        2.922    -0.043    29.060     8.840
    34   6 C        2.982     0.023    27.495     8.601
    35   6 C        2.922    -0.043    29.064     8.841
    36   6 C        2.914     0.072    26.393     8.424
    37   7 N        2.751    -0.065    22.496     7.044
    38   6 C        2.921     0.040    27.097     8.536
    39   6 C        2.924    -0.058    29.446     8.899
    40   6 C        2.919    -0.038    28.936     8.821
    41   6 C        2.919    -0.038    28.955     8.824
    42   6 C        2.919    -0.057    29.405     8.892
    43   6 C        2.883     0.124    25.270     8.241
    44   8 O        1.709    -0.265    18.398     5.791
    45   6 C        2.883     0.124    25.268     8.241
    46   6 C        2.920    -0.056    29.394     8.891
    47   6 C        2.919    -0.039    28.961     8.825
    48   6 C        2.919    -0.038    28.937     8.821
    49   6 C        2.924    -0.060    29.501     8.907
    50   6 C        2.920     0.040    27.111     8.538
    51   6 C        2.924    -0.023    28.568     8.765
    52   6 C        2.974    -0.028    28.685     8.785
    53   6 C        2.996     0.001    27.992     8.679
    54   6 C        2.778     0.283    22.208     7.718
    55   8 O        0.859    -0.435    22.386     6.344
    56   1 H        0.925     0.039     2.462     2.454
    57   1 H        0.925     0.043     2.413     2.429
    58   1 H        0.925     0.037     2.487     2.466
    59   1 H        0.924     0.044     2.402     2.424
    60   1 H        0.925     0.031     2.570     2.507
    61   1 H        0.925     0.042     2.425     2.435
    62   1 H        0.925     0.020     2.734     2.586
    63   1 H        0.926     0.043     2.404     2.425
    64   1 H        0.926     0.046     2.373     2.409
    65   1 H        0.926     0.049     2.338     2.391
    66   1 H        0.924     0.009     2.900     2.663
    67   1 H        0.925     0.046     2.376     2.411
    68   1 H        0.925     0.034     2.524     2.485
    69   1 H        0.925     0.041     2.439     2.442
    70   1 H        0.925     0.040     2.447     2.446
    71   1 H        0.925     0.045     2.390     2.417
    72   1 H        0.925     0.037     2.495     2.470
    73   1 H        0.926     0.070     2.085     2.258
    74   1 H        0.926     0.041     2.432     2.439
    75   1 H        0.926     0.046     2.375     2.410
    76   1 H        0.926     0.046     2.371     2.408
    77   1 H        0.926     0.051     2.302     2.372
    78   1 H        0.926     0.052     2.295     2.369
    79   1 H        0.926     0.046     2.373     2.409
    80   1 H        0.926     0.043     2.403     2.424
    81   1 H        0.926     0.038     2.480     2.463
    82   1 H        0.926     0.070     2.085     2.258
    83   1 H        0.926     0.071     2.080     2.255
    84   1 H        0.926     0.038     2.475     2.460
    85   1 H        0.926     0.044     2.400     2.422
    86   1 H        0.926     0.046     2.372     2.408
    87   1 H        0.926     0.052     2.295     2.369
    88   1 H        0.926     0.052     2.301     2.372
    89   1 H        0.926     0.046     2.371     2.408
    90   1 H        0.926     0.046     2.374     2.410
    91   1 H        0.926     0.042     2.423     2.434
    92   1 H        0.926     0.070     2.083     2.257

molecular dipole:
                 x           y           z       tot (Debye)
 q only:        0.113       1.479       0.058
   full:        0.113       1.523       0.061       3.884

 projected vibrational frequencies (cm⁻¹)
eigval :       -0.00    -0.00    -0.00    -0.00    -0.00    -0.00
eigval :       11.11    14.03    15.16    16.49    20.12    26.39
eigval :       37.54    38.75    40.51    43.67    47.31    51.09
eigval :       65.19    77.95    94.05   106.47   112.91   114.41
eigval :      118.09   122.99   134.59   144.22   150.41   163.90
eigval :      173.89   182.53   195.56   201.80   207.94   217.92
eigval :      225.65   233.50   245.31   247.42   248.74   251.57
eigval :      265.77   279.03   280.64   284.37   292.14   294.44
eigval :      304.81   306.11   311.00   323.12   329.61   378.25
eigval :      384.86   388.87   392.58   409.65   417.23   421.03
eigval :      426.31   429.54   430.42   439.75   441.30   453.93
eigval :      456.21   461.41   477.35   479.35   504.50   508.20
eigval :      509.18   510.20   519.19   520.59   522.12   524.73
eigval :      532.19   557.76   563.87   574.75   582.72   588.06
eigval :      611.88   613.82   617.36   626.38   636.15   642.47
eigval :      656.95   659.49   661.05   661.66   662.06   671.40
eigval :      690.58   695.23   703.94   715.43   729.65   748.74
eigval :      769.52   776.02   776.90   778.26   779.14   794.39
eigval :      809.05   827.91   834.41   840.25   854.04   854.22
eigval :      854.48   857.08   858.84   864.75   865.47   870.36
eigval :      877.25   895.08   896.34   900.02   900.76   901.27
eigval :      907.52   910.39   913.69   915.70   915.90   917.20
eigval :      917.83   920.23   926.03   937.31   947.77   952.21
eigval :      970.91   976.75   988.77   990.91  1000.60  1047.66
eigval :     1068.57  1077.96  1088.98  1089.86  1090.55  1091.12
eigval :     1092.10  1107.26  1107.58  1113.31  1122.94  1125.13
eigval :     1137.13  1140.32  1149.65  1155.65  1158.52  1168.55
eigval :     1173.36  1173.80  1178.31  1179.49  1182.56  1183.83
eigval :     1189.58  1194.65  1199.73  1200.31  1204.76  1224.13
eigval :     1230.70  1235.49  1242.14  1242.50  1248.69  1259.75
eigval :     1259.79  1260.01  1278.36  1290.67  1295.38  1303.31
eigval :     1303.89  1303.93  1307.47  1315.81  1326.95  1328.89
eigval :     1342.28  1344.33  1346.10  1361.88  1369.63  1378.88
eigval :     1382.11  1401.25  1406.30  1415.79  1416.52  1416.98
eigval :     1420.57  1428.13  1428.76  1441.45  1442.17  1447.48
eigval :     1461.70  1477.30  1477.83  1489.37  1489.70  1490.90
eigval :     1493.24  1497.24  1497.48  1497.80  1498.65  1502.11
eigval :     1511.49  1518.59  1528.66  1566.82  1566.87  1570.69
eigval :     1571.46  1578.22  1578.47  1585.73  1587.73  1587.78
eigval :     1590.05  1599.59  1599.82  1655.76  1678.69  2920.61
eigval :     2929.92  3019.69  3023.79  3027.40  3027.55  3029.30
eigval :     3030.64  3031.78  3036.30  3036.55  3044.94  3049.45
eigval :     3050.38  3073.69  3085.45  3088.62  3089.97  3090.43
eigval :     3090.74  3094.31  3096.65  3097.09  3097.24  3097.62
eigval :     3098.56  3098.74  3099.10  3099.81  3103.04  3103.28
eigval :     3105.85  3106.11  3110.19  3110.30  3111.32  3111.38

   temp. (K)  partition function   enthalpy   heat capacity  entropy
                                   cal/mol     cal/K/mol   cal/K/mol   J/K/mol
 298.15  VIB  0.213E+22            27287.928    169.221    169.097
         ROT  0.117E+09              888.752      2.981     39.900
         INT  0.249E+30            28176.680    172.202    208.997
         TR   0.187E+29             1481.254      4.968     45.581
         TOT                       29657.9341   177.1705   254.5778  1065.1535

       T/K    H(0)-H(T)+PV         H(T)/Eh          T*S/Eh         G(T)/Eh
   ------------------------------------------------------------------------
    298.15    0.472629E-01    0.759499E+00    0.120958E+00    0.638540E+00
   ------------------------------------------------------------------------

         :::::::::::::::::::::::::::::::::::::::::::::::::::::
         ::                  THERMODYNAMIC                  ::
         :::::::::::::::::::::::::::::::::::::::::::::::::::::
         :: total free energy        -146.244549779682 Eh   ::
         ::.................................................::
         :: total energy             -146.883090209050 Eh   ::
         :: zero point energy           0.712235626732 Eh   ::
         :: G(RRHO) w/o ZPVE           -0.073695197364 Eh   ::
         :: G(RRHO) contrib.            0.638540429368 Eh   ::
         :::::::::::::::::::::::::::::::::::::::::::::::::::::

           -------------------------------------------------
          | TOTAL ENERGY             -146.883090209050 Eh   |
          | TOTAL ENTHALPY           -146.123591655903 Eh   |
          | TOTAL FREE ENERGY        -146.244549779682 Eh   |
          | GRADIENT NORM               0.000091409117 Eh/α |
          | HOMO-LUMO GAP               0.732131888736 eV   |
           -------------------------------------------------

 * finished run on 2025/08/24 at 16:12:46.085
