   * xtb version 6.7.1 (edcfbbe) compiled by 'albert@albert-system' on 2024-07-22

   ID    Z sym.   atoms
    1    6 C      1-12, 14, 16-18, 20-25, 27-36, 38-43, 45-54
    2    7 N      13, 19, 37
    3    8 O      15, 26, 44, 55
    4    1 H      56-92

          program call               : xtb data2507/toluene/2PN/2PN_toluene_S0_crest.xyz --gfn 2 --gbsa toluene --ohess vtight --parallel 40 --molden --ceasefiles --namespace data2507/toluene/2PN/2PN_toluene_S0_finalOpt
      * Solvation model:               GBSA
        Solvent                        toluene
        Solvent mass                       9.2140E+01 g/mol
          :  Hamiltonian                  GFN2-xTB          :
 * total energy  :  -146.8828633 Eh     change       -0.4617135E-08 Eh
 * total energy  :  -146.8830393 Eh     change       -0.1759771E-03 Eh
 * total energy  :  -146.8830963 Eh     change       -0.5705142E-04 Eh
 * total energy  :  -146.8831047 Eh     change       -0.8404106E-05 Eh
 * total energy  :  -146.8831106 Eh     change       -0.5900781E-05 Eh
 * total energy  :  -146.8831154 Eh     change       -0.4814810E-05 Eh
 * total energy  :  -146.8831219 Eh     change       -0.6448068E-05 Eh
 * total energy  :  -146.8831301 Eh     change       -0.8157223E-05 Eh
 * total energy  :  -146.8831379 Eh     change       -0.7843952E-05 Eh
 * total energy  :  -146.8831452 Eh     change       -0.7309445E-05 Eh
 * total energy  :  -146.8831990 Eh     change       -0.1377691E-06 Eh
 * total energy  :  -146.8831992 Eh     change       -0.1090330E-06 Eh
 * total energy  :  -146.8831993 Eh     change       -0.1248656E-06 Eh
 * total energy  :  -146.8831994 Eh     change       -0.1534036E-06 Eh
 * total energy  :  -146.8831996 Eh     change       -0.1636672E-06 Eh
 * total energy  :  -146.8831997 Eh     change       -0.1338701E-06 Eh
 * total energy  :  -146.8831999 Eh     change       -0.1153620E-06 Eh
 * total energy  :  -146.8832000 Eh     change       -0.1037248E-06 Eh
 * total energy  :  -146.8832000 Eh     change       -0.8829394E-07 Eh
   *** GEOMETRY OPTIMIZATION CONVERGED AFTER 56 ITERATIONS ***

 final structure:
================
92
 xtb: 6.7.1 (edcfbbe)
C           -1.85375722605479       -4.65542379635816       -2.39123465213893
C           -0.36159678290528       -4.80965521403788       -2.06904339338103
C            0.41647222975762       -3.56746818560445       -2.50785892784765
C           -0.20805477558904       -5.23023125726244       -0.62050727668692
C           -0.21809987564075       -6.60015823961704       -0.37048497282791
C           -0.14260200099159       -7.10344393080528        0.91220857924358
C           -0.05717538695385       -6.23888397291997        1.98531014052950
C           -0.04530067958941       -4.86499236476230        1.78862020051520
C            0.05328853913405       -3.94137031864069        2.98165906050072
C           -1.11349574009385       -4.17038642531853        3.94582038108809
C            1.40265292247120       -4.12717814238719        3.68120109554205
C           -0.11992268733875       -4.37944035513282        0.48106393000969
N           -0.08513543757254       -2.95008794019042        0.29626219301881
C           -1.30075308996849       -2.28969429317448        0.28993634747529
O           -2.34373253405443       -2.90377316143474        0.42226176865714
C           -1.24503752033291       -0.83239332755191        0.09791968341455
C           -2.41509519114332       -0.10863363895736        0.02050037011602
C           -2.38083652928809        1.28380618237958       -0.17510418704271
N           -3.58983449774526        1.99704387565465       -0.24439086989019
C           -3.89456859903355        2.99898652661292        0.68732618180836
C           -3.02262556913093        3.36741221174768        1.70485063886959
C           -3.36237227238514        4.36052419308527        2.61085256518379
C           -4.58324240768819        4.99900200043851        2.52248636092660
C           -5.47884413595002        4.62144844549274        1.53374234915775
C           -5.14572983048499        3.62751846585769        0.63063556967223
O           -6.10548732447011        3.28644508345684       -0.29172168787596
C           -5.79001233363527        2.30774206342267       -1.20230229583681
C           -6.75507430034149        1.99288744972938       -2.14200334417161
C           -6.49770792118328        1.04104794347169       -3.11714741934218
C           -5.26179963921038        0.42680959718769       -3.15830161453740
C           -4.29205558250887        0.73929477319418       -2.21788345483897
C           -4.54817012398942        1.65978349593649       -1.20831870971831
C           -1.16754313344811        1.93295602643413       -0.28636519202740
C            0.04486136093438        1.22241202756772       -0.19104145473428
C            1.29832671777206        1.85517930953078       -0.30165651402916
C            2.46939275866847        1.13073367434346       -0.20398647943319
N            3.72032350382639        1.76462828334560       -0.29607030697433
C            4.10258917028005        2.75416792806131        0.61996076316498
C            3.27348378447091        3.18439249938574        1.64898134236081
C            3.69006365023867        4.16246487960635        2.53920971808516
C            4.94628551915877        4.72334511538478        2.42354448717033
C            5.79886564076801        4.28289502999262        1.42284917585728
C            5.38880495662433        3.30389698024843        0.53525714937854
O            6.30875559714252        2.89671940807352       -0.40074491619399
C            5.91481468961119        1.93685513070793       -1.30077727071314
C            6.83837201708753        1.56189016744497       -2.25995610089666
C            6.50285615560761        0.62453913731932       -3.22531447906769
C            5.23182551545040        0.08528831505553       -3.23664144122112
C            4.30324314247887        0.45832889254098       -2.27692164112908
C            4.63606341982530        1.36558115822583       -1.27775773901423
C            2.41822486368755       -0.26040040803400       -0.00215310521038
C            1.20621219474960       -0.90941153634378        0.08923272425384
C            0.00185582790279       -0.18302561087873       -0.00345202963839
C            1.17218982922128       -2.36648798328584        0.28448867840016
O            2.17370013445310       -3.04523876490370        0.41481653673153
H           -2.31280478133429       -3.90636444925571       -1.75032757690580
H           -2.37454564234939       -5.59653946069890       -2.23051584278358
H           -1.98339075590258       -4.35647025029855       -3.42903479287626
H            0.01996221781988       -5.64589470367415       -2.66689206004471
H            1.42490343962695       -3.57739915438275       -2.09910825027144
H            0.49085633124708       -3.55883266358228       -3.59378308805502
H           -0.08271490141029       -2.64967671355479       -2.20496043865836
H           -0.28593405962267       -7.28172972778886       -1.20598754151469
H           -0.14887470702098       -8.17082717195907        1.07544547670717
H            0.00342878250431       -6.63531231701841        2.98659198094755
H           -0.00312961520885       -2.90078863519090        2.64314085772299
H           -1.07881206636587       -5.16857257368886        4.37298850662324
H           -2.05994281650501       -4.05095780702076        3.42157006076046
H           -1.07148335699983       -3.44700473713914        4.75740022312798
H            1.50140956102638       -3.41695044446514        4.49944157067510
H            1.49619795184046       -5.13300152553258        4.08157810183131
H            2.21289100570111       -3.96049291885803        2.97344710059194
H           -3.35856186025017       -0.62402230322296        0.12383582131292
H           -2.07301963092038        2.86620750581172        1.80301647267231
H           -2.66209784576658        4.62635724316856        3.38755394848320
H           -4.85073637608367        5.77708525952764        3.21965690807005
H           -6.45051401603226        5.08177159791777        1.44804167066470
H           -7.70098724075924        2.50894317967392       -2.09430964755504
H           -7.25788326603573        0.79808932007894       -3.84253466436690
H           -5.03745460548312       -0.29885052976726       -3.92474586838938
H           -3.32581157081490        0.26298848083855       -2.27554394113746
H           -1.13974705351082        2.99947871127990       -0.45175764755952
H            1.33555660565190        2.92096661143305       -0.46992572875514
H            2.29677128609181        2.74352819864531        1.76842569851923
H            3.02178002300177        4.47770470149664        3.32557220176869
H            5.27381502764639        5.48934303593277        3.10838362021171
H            6.79537703118683        4.68148171836822        1.31564909239715
H            7.81447916635646        2.02009222214770       -2.23498983393582
H            7.23064679375939        0.33427868139502       -3.96634380509172
H            4.94754507978882       -0.62775220953154       -3.99498096824723
H            3.30943008867534        0.04007891699748       -2.31149847883326
H            3.32835475665780       -0.83382115901738        0.09303163098513

          :  Hamiltonian                  GFN2-xTB          :
         :: gradient norm              0.000067073916 Eh/a0 ::
         :: HOMO-LUMO gap              0.748492636305 eV    ::
         :: SCC energy              -149.290349253868 Eh    ::
         :: -> dispersion             -0.132168907784 Eh    ::
         :: -> Gsolv                  -0.059398026863 Eh    ::
         :: repulsion energy           2.407149211737 Eh    ::

    * Orbital Energies and Occupations

         #    Occupation            Energy/Eh            Energy/eV
      -------------------------------------------------------------
         1        2.0000           -0.7352092             -20.0061
       ...           ...                  ...                  ...
       122        2.0000           -0.4211903             -11.4612
       123        2.0000           -0.4210860             -11.4583
       124        2.0000           -0.4190277             -11.4023
       125        2.0000           -0.4188062             -11.3963
       126        2.0000           -0.4174844             -11.3603
       127        2.0000           -0.4160038             -11.3200
       128        2.0000           -0.4154266             -11.3043
       129        2.0000           -0.4056476             -11.0382
       130        2.0000           -0.3974333             -10.8147
       131        2.0000           -0.3962225             -10.7818
       132        2.0000           -0.3960920             -10.7782
       133        2.0000           -0.3515392              -9.5659
       134        2.0000           -0.3511805              -9.5561 (HOMO)
       135        0.0000           -0.3236739              -8.8076 (LUMO)
       136                         -0.2657929              -7.2326
       137                         -0.2623899              -7.1400
       138                         -0.2447510              -6.6600
       139                         -0.2440866              -6.6419
       140                         -0.2437109              -6.6317
       141                         -0.2354333              -6.4065
       142                         -0.2353200              -6.4034
       143                         -0.2298666              -6.2550
       144                         -0.2282335              -6.2105
       145                         -0.2206254              -6.0035
       ...                                ...                  ...
       257                          0.7127864              19.3959
      -------------------------------------------------------------
                  HL-Gap            0.0275066 Eh            0.7485 eV

     #   Z          covCN         q      C6AA      α(0)
     1   6 C        3.756    -0.101    22.485     6.761
     2   6 C        3.855    -0.013    20.772     6.482
     3   6 C        3.753    -0.096    22.393     6.748
     4   6 C        2.966     0.004    27.926     8.668
     5   6 C        2.933    -0.042    29.050     8.839
     6   6 C        2.914    -0.033    28.821     8.803
     7   6 C        2.928    -0.038    28.943     8.823
     8   6 C        2.973     0.006    27.883     8.662
     9   6 C        3.854    -0.004    20.620     6.458
    10   6 C        3.755    -0.103    22.528     6.768
    11   6 C        3.756    -0.103    22.518     6.766
    12   6 C        2.942     0.070    26.430     8.432
    13   7 N        2.746    -0.103    23.262     7.163
    14   6 C        2.775     0.281    22.237     7.723
    15   8 O        0.859    -0.436    22.418     6.348
    16   6 C        2.975    -0.029    28.713     8.790
    17   6 C        2.924    -0.023    28.580     8.767
    18   6 C        2.914     0.071    26.401     8.426
    19   7 N        2.751    -0.065    22.496     7.044
    20   6 C        2.919     0.040    27.109     8.538
    21   6 C        2.924    -0.060    29.504     8.908
    22   6 C        2.919    -0.038    28.938     8.821
    23   6 C        2.919    -0.039    28.960     8.825
    24   6 C        2.920    -0.056    29.393     8.891
    25   6 C        2.883     0.124    25.267     8.241
    26   8 O        1.709    -0.265    18.397     5.791
    27   6 C        2.883     0.124    25.268     8.241
    28   6 C        2.919    -0.057    29.404     8.892
    29   6 C        2.919    -0.038    28.953     8.824
    30   6 C        2.919    -0.038    28.937     8.821
    31   6 C        2.924    -0.058    29.439     8.898
    32   6 C        2.922     0.040    27.098     8.537
    33   6 C        2.921    -0.043    29.080     8.843
    34   6 C        2.982     0.022    27.499     8.602
    35   6 C        2.921    -0.043    29.079     8.843
    36   6 C        2.914     0.072    26.398     8.425
    37   7 N        2.751    -0.065    22.490     7.043
    38   6 C        2.919     0.040    27.109     8.538
    39   6 C        2.924    -0.060    29.504     8.908
    40   6 C        2.919    -0.038    28.937     8.821
    41   6 C        2.919    -0.039    28.961     8.825
    42   6 C        2.920    -0.056    29.393     8.891
    43   6 C        2.883     0.124    25.267     8.241
    44   8 O        1.709    -0.265    18.396     5.791
    45   6 C        2.883     0.124    25.267     8.241
    46   6 C        2.919    -0.057    29.405     8.892
    47   6 C        2.919    -0.038    28.953     8.824
    48   6 C        2.919    -0.038    28.937     8.821
    49   6 C        2.924    -0.058    29.443     8.898
    50   6 C        2.922     0.040    27.098     8.537
    51   6 C        2.924    -0.023    28.571     8.766
    52   6 C        2.974    -0.028    28.689     8.786
    53   6 C        2.996     0.001    27.997     8.680
    54   6 C        2.777     0.283    22.207     7.718
    55   8 O        0.859    -0.435    22.389     6.344
    56   1 H        0.925     0.036     2.498     2.472
    57   1 H        0.925     0.039     2.462     2.454
    58   1 H        0.925     0.043     2.409     2.427
    59   1 H        0.924     0.044     2.398     2.422
    60   1 H        0.925     0.032     2.565     2.505
    61   1 H        0.925     0.042     2.421     2.433
    62   1 H        0.925     0.019     2.743     2.590
    63   1 H        0.926     0.044     2.402     2.423
    64   1 H        0.926     0.046     2.374     2.409
    65   1 H        0.926     0.048     2.341     2.393
    66   1 H        0.924     0.010     2.895     2.661
    67   1 H        0.925     0.046     2.376     2.411
    68   1 H        0.925     0.034     2.527     2.486
    69   1 H        0.925     0.041     2.442     2.444
    70   1 H        0.925     0.040     2.451     2.448
    71   1 H        0.925     0.045     2.389     2.417
    72   1 H        0.925     0.037     2.494     2.470
    73   1 H        0.926     0.069     2.094     2.263
    74   1 H        0.926     0.042     2.419     2.432
    75   1 H        0.926     0.046     2.375     2.410
    76   1 H        0.926     0.046     2.371     2.408
    77   1 H        0.926     0.052     2.300     2.372
    78   1 H        0.926     0.052     2.295     2.369
    79   1 H        0.926     0.046     2.370     2.407
    80   1 H        0.926     0.044     2.396     2.420
    81   1 H        0.926     0.038     2.480     2.462
    82   1 H        0.926     0.070     2.080     2.255
    83   1 H        0.926     0.071     2.079     2.255
    84   1 H        0.926     0.042     2.417     2.431
    85   1 H        0.926     0.046     2.375     2.410
    86   1 H        0.926     0.046     2.371     2.408
    87   1 H        0.926     0.052     2.301     2.372
    88   1 H        0.926     0.052     2.294     2.368
    89   1 H        0.926     0.046     2.371     2.408
    90   1 H        0.926     0.044     2.399     2.422
    91   1 H        0.926     0.038     2.474     2.460
    92   1 H        0.926     0.070     2.089     2.260

molecular dipole:
                 x           y           z       tot (Debye)
 q only:        0.044       1.515      -0.251
   full:        0.039       1.552      -0.256       3.998

 projected vibrational frequencies (cm⁻¹)
eigval :       -0.00    -0.00    -0.00    -0.00     0.00     0.00
eigval :        8.41    14.13    15.24    17.52    18.11    24.40
eigval :       30.02    36.12    38.11    45.25    46.43    49.29
eigval :       61.23    76.52    92.40   106.36   111.01   113.55
eigval :      119.15   123.16   132.30   142.48   150.00   165.38
eigval :      174.39   181.88   195.93   205.48   209.07   216.05
eigval :      222.52   232.76   246.57   246.87   249.45   251.60
eigval :      264.65   278.38   280.43   280.70   291.39   292.72
eigval :      306.06   308.51   309.89   321.59   326.47   377.28
eigval :      385.38   389.29   392.44   408.48   416.93   420.82
eigval :      425.91   430.55   430.63   440.85   443.20   447.76
eigval :      459.66   464.79   473.53   485.13   507.00   507.82
eigval :      508.85   509.49   517.98   520.43   522.34   525.89
eigval :      530.95   557.72   564.39   574.49   582.50   587.33
eigval :      613.34   613.85   616.81   624.90   635.25   642.33
eigval :      656.90   659.12   660.33   661.58   662.97   671.72
eigval :      690.30   693.43   701.79   715.34   729.51   746.37
eigval :      769.33   775.56   777.13   777.58   779.47   794.28
eigval :      806.80   827.88   834.25   839.15   853.77   854.19
eigval :      854.30   856.95   857.59   863.97   866.40   870.20
eigval :      876.62   894.60   895.81   898.10   899.23   900.74
eigval :      906.09   909.14   914.23   915.28   916.16   916.39
eigval :      918.03   919.45   924.82   936.61   947.29   951.34
eigval :      970.03   976.63   987.73   990.16  1000.29  1047.43
eigval :     1068.36  1077.80  1088.81  1089.59  1090.45  1090.56
eigval :     1091.59  1107.07  1107.50  1112.85  1122.71  1125.43
eigval :     1137.72  1138.97  1149.31  1155.13  1158.15  1168.35
eigval :     1172.12  1173.09  1177.35  1180.59  1181.98  1183.41
eigval :     1189.30  1195.47  1199.27  1200.35  1205.09  1223.89
eigval :     1230.68  1235.21  1241.32  1242.42  1248.15  1258.66
eigval :     1259.76  1260.30  1278.43  1290.41  1296.69  1303.20
eigval :     1303.66  1303.89  1306.85  1312.10  1326.30  1328.38
eigval :     1341.57  1343.96  1345.73  1361.41  1369.57  1378.37
eigval :     1383.05  1401.13  1405.60  1415.48  1416.36  1416.79
eigval :     1420.44  1428.51  1428.88  1441.47  1442.11  1447.90
eigval :     1460.99  1476.86  1477.39  1489.71  1489.83  1491.72
eigval :     1493.02  1496.88  1497.34  1498.70  1498.80  1501.74
eigval :     1511.32  1517.31  1528.88  1566.73  1566.83  1571.29
eigval :     1571.84  1578.08  1578.24  1585.41  1587.63  1587.70
eigval :     1589.75  1599.39  1599.64  1655.81  1678.75  2920.88
eigval :     2927.43  3019.95  3024.10  3027.78  3028.67  3028.81
eigval :     3030.73  3032.39  3036.22  3037.63  3044.44  3048.17
eigval :     3050.87  3074.11  3085.07  3088.98  3089.59  3089.74
eigval :     3090.37  3094.78  3096.65  3097.09  3097.46  3097.80
eigval :     3098.32  3098.62  3098.69  3098.93  3103.04  3103.33
eigval :     3106.65  3106.81  3110.29  3110.62  3111.47  3111.50

   temp. (K)  partition function   enthalpy   heat capacity  entropy
                                   cal/mol     cal/K/mol   cal/K/mol   J/K/mol
 298.15  VIB  0.495E+22            27339.234    168.961    169.752
         ROT  0.117E+09              888.752      2.981     39.899
         INT  0.578E+30            28227.987    171.942    209.651
         TR   0.187E+29             1481.254      4.968     45.581
         TOT                       29709.2406   176.9098   255.2317  1067.8893

       T/K    H(0)-H(T)+PV         H(T)/Eh          T*S/Eh         G(T)/Eh
   ------------------------------------------------------------------------
    298.15    0.473447E-01    0.759384E+00    0.121269E+00    0.638115E+00
   ------------------------------------------------------------------------

         :::::::::::::::::::::::::::::::::::::::::::::::::::::
         ::                  THERMODYNAMIC                  ::
         :::::::::::::::::::::::::::::::::::::::::::::::::::::
         :: total free energy        -146.245084754838 Eh   ::
         ::.................................................::
         :: total energy             -146.883200044375 Eh   ::
         :: zero point energy           0.712039404102 Eh   ::
         :: G(RRHO) w/o ZPVE           -0.073924114565 Eh   ::
         :: G(RRHO) contrib.            0.638115289537 Eh   ::
         :::::::::::::::::::::::::::::::::::::::::::::::::::::

           -------------------------------------------------
          | TOTAL ENERGY             -146.883200044375 Eh   |
          | TOTAL ENTHALPY           -146.123815951723 Eh   |
          | TOTAL FREE ENERGY        -146.245084754838 Eh   |
          | GRADIENT NORM               0.000067110053 Eh/α |
          | HOMO-LUMO GAP               0.748492117778 eV   |
           -------------------------------------------------

 * finished run on 2025/08/24 at 16:19:42.150
