   * xtb version 6.7.1 (edcfbbe) compiled by 'albert@albert-system' on 2024-07-22

   ID    Z sym.   atoms
    1    6 C      1-5, 7-13, 15-28, 30-39, 41-47, 49-55, 57-59, 61, 62
    2    7 N      6, 14, 40, 48, 56, 60
    3    8 O      29
    4    1 H      63-96

          program call               : xtb data2507/toluene/DTRZSFX/DTRZSFX.xyz --gfn 2 --gbsa toluene --ohess vtight --parallel 40 --molden --ceasefiles --namespace data2507/toluene/DTRZSFX/DTRZSFX_toluene_S0_preOpt
      * Solvation model:               GBSA
        Solvent                        toluene
        Solvent mass                       9.2140E+01 g/mol
          :  Hamiltonian                  GFN2-xTB          :
 * total energy  :  -156.8364371 Eh     change       -0.7444214E-08 Eh
 * total energy  :  -156.8486871 Eh     change       -0.1224997E-01 Eh
 * total energy  :  -156.8527998 Eh     change       -0.4112743E-02 Eh
 * total energy  :  -156.8543151 Eh     change       -0.1515266E-02 Eh
 * total energy  :  -156.8549394 Eh     change       -0.6242944E-03 Eh
 * total energy  :  -156.8550745 Eh     change       -0.1351607E-03 Eh
 * total energy  :  -156.8551201 Eh     change       -0.4557497E-04 Eh
 * total energy  :  -156.8551464 Eh     change       -0.2631170E-04 Eh
 * total energy  :  -156.8551617 Eh     change       -0.1529962E-04 Eh
 * total energy  :  -156.8551785 Eh     change       -0.1673690E-04 Eh
 * total energy  :  -156.8552335 Eh     change       -0.6160822E-06 Eh
 * total energy  :  -156.8552341 Eh     change       -0.6269237E-06 Eh
 * total energy  :  -156.8552347 Eh     change       -0.6111933E-06 Eh
 * total energy  :  -156.8552353 Eh     change       -0.5889481E-06 Eh
 * total energy  :  -156.8552359 Eh     change       -0.6025193E-06 Eh
 * total energy  :  -156.8552366 Eh     change       -0.7088129E-06 Eh
 * total energy  :  -156.8552376 Eh     change       -0.1002089E-05 Eh
 * total energy  :  -156.8552395 Eh     change       -0.1879386E-05 Eh
 * total energy  :  -156.8552395 Eh     change       -0.7209849E-08 Eh
   *** GEOMETRY OPTIMIZATION CONVERGED AFTER 44 ITERATIONS ***

 final structure:
================
96
 xtb: 6.7.1 (edcfbbe)
C           -9.81061949425176       -4.80184196394239        0.00898480396905
C          -10.25347816162073       -3.48774746908953        0.00491157834570
C           -9.34201828419993       -2.44940261868481        0.00225427918088
C           -7.97407318091746       -2.71941111349313        0.00379503484007
C           -7.00606123947254       -1.62238430329396        0.00077707677603
N           -7.47208678583621       -0.37585389759453       -0.00021467128544
C           -6.55657239319814        0.59010920680899       -0.00461008038457
C           -7.02017959267350        1.97793608085398       -0.00734761681389
C           -8.38495546405860        2.26327109250383        0.01082021256766
C           -8.81921885237094        3.57490654534572        0.00792923623457
C           -7.89895657589699        4.61205072704876       -0.01350713144441
C           -6.54034962163143        4.33498556073146       -0.03160347413597
C           -6.09993271313429        3.02547699858652       -0.02854888660619
N           -5.24394926711224        0.37067572054663       -0.00671947516127
C           -4.86609877966661       -0.90512612274453       -0.00395717976935
C           -3.43293079194537       -1.19470429283606       -0.00435770072964
C           -2.98749201666232       -2.51864158393083       -0.00825423837372
C           -1.63849984828703       -2.81738564026599       -0.00870204093223
C           -0.72521601461286       -1.77204655829839       -0.00511105196482
C           -1.17214418596162       -0.43993041365479       -0.00101950208895
C           -2.51269018449576       -0.14197049296178       -0.00055755111455
C            0.00082474934456        0.52093163087692        0.00226267277710
C           -0.00020205215373        1.36862370937171        1.25410068567494
C            0.00678053457393        0.75970751073730        2.50311315418309
C            0.00428599313489        1.51147917185616        3.66235934238132
C           -0.00556622337793        2.89594855684023        3.58542954451640
C           -0.01236962591004        3.51818404983449        2.35389907277664
C           -0.00972364752337        2.75768997805094        1.18658355748025
O           -0.01680119147917        3.45551133928323        0.01185162115292
C           -0.00974899632297        2.76538022124870       -1.16742277110623
C           -0.01253584817505        3.53347762089507       -2.32975695983885
C           -0.00572009541246        2.91930350202301       -3.56533044726233
C            0.00431512794124        1.53537393088028       -3.65128455535436
C            0.00691548817031        0.77605000274061       -2.49697509991008
C           -0.00011132819167        1.37678279607322       -1.24400799564534
C            1.17358771948510       -0.43990765009024       -0.00075101109354
C            2.51417446821156       -0.14207208000715        0.00014776382538
C            3.43433140985648       -1.19489326321174       -0.00317749525879
C            4.86754932794757       -0.90555193998038       -0.00226989617406
N            5.71299046236796       -1.93313525192737       -0.00294046685123
C            7.00735902182979       -1.62329632432967       -0.00155679140252
C            7.97512827912433       -2.72054101006912       -0.00226571907763
C            7.53593208456539       -4.04408103572193       -0.00142415914395
C            8.45200601462700       -5.07826328673457       -0.00222086119212
C            9.81122179349237       -4.80337530380839       -0.00384936971517
C           10.25436449686534       -3.48937038077218       -0.00468909593515
C            9.34313001647366       -2.45082586767782       -0.00390225141261
N            7.47365433831850       -0.37686876789836        0.00033801830950
C            6.55835099348791        0.58930549334798        0.00033574535757
C            7.02230041951738        1.97701489303948        0.00146921725317
C            6.10220233267863        3.02488030579006       -0.00378622257367
C            6.54293238417642        4.33427725879333       -0.00312045912912
C            7.90172322578845        4.61094250459023        0.00279651106921
C            8.82184925104809        3.57347297167482        0.00818379670018
C            8.38726453782861        2.26195065003525        0.00747823752973
N            5.24567238343710        0.37016971770861       -0.00085418644693
C            2.98879988040238       -2.51880318803477       -0.00720415516640
C            1.63978885949747       -2.81745438553224       -0.00813745543317
C            0.72658647038279       -1.77203950571075       -0.00489609677940
N           -5.71175845284815       -1.93251989730837       -0.00088421788829
C           -7.53516375985002       -4.04304022041880        0.00793484040959
C           -8.45146222581709       -5.07702078466042        0.01049162331548
H          -10.52486798619983       -5.61186618468431        0.01095245874194
H          -11.31200992293162       -3.27380936557214        0.00370368856605
H           -9.66803009346397       -1.42103012204656       -0.00121389513788
H           -9.08662416271506        1.44401368576621        0.02736426608562
H           -9.87721276444923        3.79094763082011        0.02205906539800
H           -8.24052850738910        5.63655726119786       -0.01586429701404
H           -5.82351919336841        5.14255475356452       -0.04807259527655
H           -5.04658138763069        2.79224724440443       -0.04266349587155
H           -3.72572121599801       -3.30506562094753       -0.01107226441393
H           -1.30410512393828       -3.84332868177720       -0.01177388713444
H           -2.87081434165829        0.87555402790718        0.00287074642320
H            0.01410586390255       -0.31933602184707        2.55586737464319
H            0.00971349699092        1.01956918041453        4.62294263722546
H           -0.00777539535691        3.49107995597944        4.48583904206915
H           -0.01983708137737        4.59340303381684        2.26486733364163
H           -0.02011224403718        4.60809119394458       -2.23372626311448
H           -0.00805625305260        3.52028729001596       -4.46184215785990
H            0.00978049425846        1.04970723759247       -4.61502894980498
H            0.01433574342850       -0.30260674040079       -2.55685762932125
H            2.87231870021600        0.87544258035214        0.00338373967629
H            6.47491070398125       -4.23892822412697       -0.00004734639571
H            8.10751948962025       -6.10180388756942       -0.00153085118435
H           10.52529781586045       -5.61355331221933       -0.00446350407738
H           11.31294150233545       -3.27565821095583       -0.00599646878324
H            9.66936382184026       -1.42251864033098       -0.00467781782274
H            5.04870842184259        2.79196174762008       -0.00847524713580
H            5.82620853270666        5.14208960217943       -0.00723979682686
H            8.24354320590604        5.63536113737498        0.00327749036444
H            9.87998315482880        3.78920425426679        0.01283807058549
H            9.08883052070337        1.44245890307044        0.01163440637259
H            3.72697196490792       -3.30528078493392       -0.00964849745187
H            1.30530539932737       -3.84336773015181       -0.01125330637398
H           -6.47418304555107       -4.23811050997559        0.00920805793593
H           -8.10719528304742       -6.10063081615990        0.01361060723876

          :  Hamiltonian                  GFN2-xTB          :
         :: gradient norm              0.000045493332 Eh/a0 ::
         :: HOMO-LUMO gap              1.970598363346 eV    ::
         :: SCC energy              -159.664465487748 Eh    ::
         :: -> dispersion             -0.134883899790 Eh    ::
         :: -> Gsolv                  -0.075947438828 Eh    ::
         :: repulsion energy           2.809225988371 Eh    ::

    * Orbital Energies and Occupations

         #    Occupation            Energy/Eh            Energy/eV
      -------------------------------------------------------------
         1        2.0000           -0.7359216             -20.0254
       ...           ...                  ...                  ...
       133        2.0000           -0.4140614             -11.2672
       134        2.0000           -0.4139432             -11.2640
       135        2.0000           -0.4133371             -11.2475
       136        2.0000           -0.4131097             -11.2413
       137        2.0000           -0.4122344             -11.2175
       138        2.0000           -0.4120180             -11.2116
       139        2.0000           -0.4058528             -11.0438
       140        2.0000           -0.3965170             -10.7898
       141        2.0000           -0.3816118             -10.3842
       142        2.0000           -0.3815506             -10.3825
       143        2.0000           -0.3814089             -10.3787
       144        2.0000           -0.3812904             -10.3754
       145        2.0000           -0.3776588             -10.2766 (HOMO)
       146                         -0.3052406              -8.3060 (LUMO)
       147                         -0.2938546              -7.9962
       148                         -0.2938532              -7.9962
       149                         -0.2885880              -7.8529
       150                         -0.2608958              -7.0993
       151                         -0.2457926              -6.6884
       152                         -0.2427586              -6.6058
       153                         -0.2414039              -6.5689
       154                         -0.2359883              -6.4216
       155                         -0.2345795              -6.3832
       156                         -0.2339738              -6.3668
       ...                                ...                  ...
       282                          0.7151897              19.4613
      -------------------------------------------------------------
                  HL-Gap            0.0724181 Eh            1.9706 eV

     #   Z          covCN         q      C6AA      α(0)
     1   6 C        2.920    -0.022    28.555     8.763
     2   6 C        2.918    -0.027    28.678     8.782
     3   6 C        2.923    -0.026    28.645     8.777
     4   6 C        2.983    -0.010    28.253     8.719
     5   6 C        2.979     0.217    23.433     7.940
     6   7 N        1.844    -0.322    29.198     8.008
     7   6 C        2.979     0.217    23.421     7.938
     8   6 C        2.983    -0.010    28.255     8.719
     9   6 C        2.923    -0.026    28.647     8.777
    10   6 C        2.918    -0.027    28.679     8.782
    11   6 C        2.920    -0.022    28.553     8.763
    12   6 C        2.918    -0.027    28.677     8.781
    13   6 C        2.923    -0.025    28.634     8.775
    14   7 N        1.844    -0.323    29.239     8.014
    15   6 C        2.980     0.217    23.424     7.939
    16   6 C        2.986    -0.010    28.254     8.719
    17   6 C        2.925    -0.028    28.710     8.787
    18   6 C        2.912    -0.031    28.772     8.796
    19   6 C        3.034     0.010    27.755     8.641
    20   6 C        3.055     0.006    27.838     8.653
    21   6 C        2.918    -0.029    28.714     8.787
    22   6 C        3.948     0.018    20.197     6.386
    23   6 C        2.977    -0.016    28.406     8.743
    24   6 C        2.926    -0.037    28.925     8.820
    25   6 C        2.918    -0.040    28.986     8.829
    26   6 C        2.920    -0.031    28.773     8.796
    27   6 C        2.919    -0.055    29.356     8.885
    28   6 C        2.880     0.134    25.064     8.207
    29   8 O        1.710    -0.253    18.189     5.758
    30   6 C        2.880     0.134    25.064     8.207
    31   6 C        2.919    -0.055    29.356     8.885
    32   6 C        2.920    -0.031    28.773     8.796
    33   6 C        2.918    -0.040    28.986     8.829
    34   6 C        2.926    -0.037    28.925     8.820
    35   6 C        2.977    -0.016    28.406     8.742
    36   6 C        3.055     0.006    27.838     8.653
    37   6 C        2.918    -0.029    28.713     8.787
    38   6 C        2.986    -0.010    28.254     8.719
    39   6 C        2.980     0.217    23.425     7.939
    40   7 N        1.844    -0.322    29.206     8.009
    41   6 C        2.979     0.217    23.433     7.940
    42   6 C        2.983    -0.010    28.253     8.719
    43   6 C        2.923    -0.026    28.650     8.778
    44   6 C        2.918    -0.027    28.679     8.782
    45   6 C        2.920    -0.022    28.555     8.763
    46   6 C        2.918    -0.027    28.678     8.782
    47   6 C        2.923    -0.026    28.645     8.777
    48   7 N        1.844    -0.322    29.198     8.008
    49   6 C        2.979     0.217    23.421     7.938
    50   6 C        2.983    -0.010    28.255     8.719
    51   6 C        2.923    -0.025    28.635     8.775
    52   6 C        2.918    -0.027    28.677     8.781
    53   6 C        2.920    -0.022    28.553     8.763
    54   6 C        2.918    -0.027    28.679     8.782
    55   6 C        2.923    -0.026    28.647     8.777
    56   7 N        1.844    -0.323    29.238     8.014
    57   6 C        2.925    -0.028    28.710     8.787
    58   6 C        2.912    -0.031    28.772     8.796
    59   6 C        3.034     0.010    27.755     8.641
    60   7 N        1.844    -0.322    29.206     8.009
    61   6 C        2.923    -0.026    28.650     8.778
    62   6 C        2.918    -0.027    28.679     8.782
    63   1 H        0.926     0.050     2.319     2.381
    64   1 H        0.926     0.048     2.349     2.397
    65   1 H        0.926     0.050     2.314     2.379
    66   1 H        0.926     0.051     2.308     2.376
    67   1 H        0.926     0.048     2.342     2.393
    68   1 H        0.926     0.050     2.314     2.379
    69   1 H        0.926     0.047     2.354     2.399
    70   1 H        0.926     0.048     2.347     2.396
    71   1 H        0.926     0.057     2.229     2.335
    72   1 H        0.926     0.055     2.254     2.348
    73   1 H        0.926     0.047     2.353     2.399
    74   1 H        0.926     0.036     2.509     2.477
    75   1 H        0.926     0.043     2.406     2.426
    76   1 H        0.926     0.049     2.333     2.389
    77   1 H        0.926     0.054     2.264     2.353
    78   1 H        0.926     0.054     2.264     2.353
    79   1 H        0.926     0.049     2.333     2.389
    80   1 H        0.926     0.043     2.406     2.426
    81   1 H        0.926     0.036     2.509     2.477
    82   1 H        0.926     0.047     2.353     2.399
    83   1 H        0.926     0.051     2.312     2.378
    84   1 H        0.926     0.048     2.347     2.396
    85   1 H        0.926     0.050     2.319     2.381
    86   1 H        0.926     0.048     2.349     2.397
    87   1 H        0.926     0.050     2.314     2.379
    88   1 H        0.926     0.048     2.347     2.395
    89   1 H        0.926     0.047     2.354     2.399
    90   1 H        0.926     0.050     2.314     2.379
    91   1 H        0.926     0.048     2.342     2.393
    92   1 H        0.926     0.051     2.308     2.375
    93   1 H        0.926     0.057     2.229     2.335
    94   1 H        0.926     0.055     2.255     2.348
    95   1 H        0.926     0.051     2.312     2.378
    96   1 H        0.926     0.048     2.347     2.396

molecular dipole:
                 x           y           z       tot (Debye)
 q only:        0.003      -0.142      -0.001
   full:        0.003      -0.213      -0.001       0.540

 projected vibrational frequencies (cm⁻¹)
eigval :       -0.00     0.00     0.00     0.00     0.00     0.00
eigval :      -21.39   -19.41   -18.42    -7.62    -5.61     4.07
eigval :       15.87    18.01    18.92    20.71    33.74    37.44
eigval :       44.36    48.30    51.16    52.52    63.64    69.91
eigval :       80.18    85.09    85.28    97.36   108.98   125.64
eigval :      128.40   142.43   172.32   175.05   176.62   177.33
eigval :      182.05   186.43   211.07   214.05   225.27   243.90
eigval :      244.08   259.88   261.19   261.72   275.63   288.40
eigval :      296.82   324.79   337.80   360.57   360.94   363.95
eigval :      364.20   382.25   383.52   387.37   393.13   400.07
eigval :      400.22   402.11   409.52   421.84   425.06   432.85
eigval :      435.86   440.54   464.69   485.35   502.12   510.42
eigval :      514.65   520.45   545.87   556.88   558.88   567.42
eigval :      587.13   587.47   587.70   588.29   596.20   601.45
eigval :      604.01   612.73   613.47   616.16   625.81   625.86
eigval :      638.72   649.48   650.80   655.25   656.08   669.51
eigval :      672.54   672.94   673.66   685.83   689.71   693.93
eigval :      706.03   733.79   748.65   750.87   752.87   774.88
eigval :      775.08   779.19   784.30   793.65   794.04   803.81
eigval :      830.11   830.38   842.13   846.65   846.66   864.65
eigval :      874.12   874.69   875.72   875.96   876.59   876.94
eigval :      877.97   881.59   883.39   909.87   910.11   911.37
eigval :      911.68   912.24   912.54   916.54   917.64   923.06
eigval :      923.27   928.21   929.70   930.04   930.76   931.15
eigval :      933.40   933.47   933.86   934.43   946.20   955.20
eigval :      983.02   987.76   989.38   989.39  1009.09  1047.42
eigval :     1047.63  1073.51  1073.88  1074.52  1074.61  1079.30
eigval :     1084.23  1086.39  1086.45  1091.88  1108.07  1108.21
eigval :     1111.64  1111.82  1115.25  1133.51  1134.43  1148.74
eigval :     1151.04  1166.12  1166.26  1170.51  1173.20  1176.49
eigval :     1177.80  1177.93  1180.21  1180.40  1185.51  1188.66
eigval :     1199.92  1202.13  1202.57  1204.42  1205.49  1207.21
eigval :     1212.22  1225.08  1230.03  1241.59  1244.37  1258.13
eigval :     1268.10  1268.19  1269.02  1270.03  1271.24  1281.14
eigval :     1324.04  1325.54  1326.18  1327.37  1327.50  1328.69
eigval :     1335.42  1350.35  1356.63  1366.73  1368.06  1369.75
eigval :     1370.55  1389.90  1413.63  1421.11  1428.60  1429.29
eigval :     1430.47  1431.02  1433.45  1436.50  1442.57  1462.96
eigval :     1463.30  1465.73  1470.51  1474.57  1476.90  1481.16
eigval :     1505.23  1508.59  1510.59  1511.57  1568.78  1576.91
eigval :     1579.76  1581.31  1582.30  1583.11  1583.14  1590.15
eigval :     1590.60  1592.36  1592.59  1593.09  1593.17  1593.99
eigval :     1599.01  1602.00  3078.33  3078.35  3078.49  3078.62
eigval :     3079.09  3079.30  3083.06  3083.07  3083.19  3083.23
eigval :     3086.61  3086.87  3090.63  3092.53  3092.57  3092.76
eigval :     3092.89  3093.42  3096.27  3096.55  3103.29  3103.45
eigval :     3104.38  3104.41  3104.50  3104.77  3104.80  3105.16
eigval :     3105.81  3105.91  3106.77  3106.80  3108.84  3109.28

   temp. (K)  partition function   enthalpy   heat capacity  entropy
                                   cal/mol     cal/K/mol   cal/K/mol   J/K/mol
 298.15  VIB  0.442E+26            28636.868    173.888    183.669
         ROT  0.102E+09              888.752      2.981     39.618
         INT  0.449E+34            29525.621    176.868    223.288
         TR   0.217E+29             1481.254      4.968     45.876
         TOT                       31006.8746   181.8365   269.1643  1126.1833

       T/K    H(0)-H(T)+PV         H(T)/Eh          T*S/Eh         G(T)/Eh
   ------------------------------------------------------------------------
    298.15    0.494126E-01    0.768193E+00    0.127889E+00    0.640304E+00
   ------------------------------------------------------------------------

         :::::::::::::::::::::::::::::::::::::::::::::::::::::
         ::                  THERMODYNAMIC                  ::
         :::::::::::::::::::::::::::::::::::::::::::::::::::::
         :: total free energy        -156.214935053403 Eh   ::
         ::.................................................::
         :: total energy             -156.855239499307 Eh   ::
         :: zero point energy           0.718780478064 Eh   ::
         :: G(RRHO) w/o ZPVE           -0.078476032161 Eh   ::
         :: G(RRHO) contrib.            0.640304445904 Eh   ::
         :::::::::::::::::::::::::::::::::::::::::::::::::::::

           -------------------------------------------------
          | TOTAL ENERGY             -156.855239499307 Eh   |
          | TOTAL ENTHALPY           -156.087046421304 Eh   |
          | TOTAL FREE ENERGY        -156.214935053403 Eh   |
          | GRADIENT NORM               0.000045490760 Eh/α |
          | HOMO-LUMO GAP               1.970598085513 eV   |
           -------------------------------------------------

 * finished run on 2025/07/18 at 17:40:19.247
