   * xtb version 6.7.1 (edcfbbe) compiled by 'albert@albert-system' on 2024-07-22

   ID    Z sym.   atoms
    1    6 C      1-5, 7-13, 15-28, 30-39, 41-47, 49-55, 57-59, 61, 62
    2    7 N      6, 14, 40, 48, 56, 60
    3    8 O      29
    4    1 H      63-96

          program call               : xtb data2507/toluene/DTRZSFX/DTRZSFX_toluene_S0_crest.xyz --gfn 2 --gbsa toluene --ohess vtight --parallel 40 --molden --ceasefiles --namespace data2507/toluene/DTRZSFX/DTRZSFX_toluene_S0_finalOpt
      * Solvation model:               GBSA
        Solvent                        toluene
        Solvent mass                       9.2140E+01 g/mol
          :  Hamiltonian                  GFN2-xTB          :
 * total energy  :  -156.8551772 Eh     change       -0.7788287E-08 Eh
 * total energy  :  -156.8552260 Eh     change       -0.4875581E-04 Eh
 * total energy  :  -156.8552378 Eh     change       -0.1181924E-04 Eh
 * total energy  :  -156.8552400 Eh     change       -0.2237428E-05 Eh
 * total energy  :  -156.8552415 Eh     change       -0.1510017E-05 Eh
 * total energy  :  -156.8552431 Eh     change       -0.1603935E-05 Eh
 * total energy  :  -156.8552450 Eh     change       -0.1895742E-05 Eh
 * total energy  :  -156.8552469 Eh     change       -0.1902164E-05 Eh
 * total energy  :  -156.8552481 Eh     change       -0.1174648E-05 Eh
 * total energy  :  -156.8552491 Eh     change       -0.1053991E-05 Eh
 * total energy  :  -156.8552896 Eh     change       -0.2286721E-06 Eh
 * total energy  :  -156.8552899 Eh     change       -0.2848325E-06 Eh
 * total energy  :  -156.8552902 Eh     change       -0.2952714E-06 Eh
 * total energy  :  -156.8552905 Eh     change       -0.2865519E-06 Eh
 * total energy  :  -156.8552907 Eh     change       -0.2680203E-06 Eh
 * total energy  :  -156.8552910 Eh     change       -0.2569406E-06 Eh
 * total energy  :  -156.8552913 Eh     change       -0.2798668E-06 Eh
 * total energy  :  -156.8552916 Eh     change       -0.3155214E-06 Eh
 * total energy  :  -156.8552916 Eh     change       -0.2969728E-08 Eh
   *** GEOMETRY OPTIMIZATION CONVERGED AFTER 44 ITERATIONS ***

 final structure:
================
96
 xtb: 6.7.1 (edcfbbe)
C           -9.81671522007006       -4.78746184546057        0.08082083429891
C          -10.25192891157844       -3.47199224904842        0.02498571378560
C           -9.33447393390482       -2.43930677514372       -0.00048810440768
C           -7.96818986734573       -2.71618026493059        0.03076293437930
C           -6.99500960785388       -1.62404574563136        0.00381476461198
N           -7.45701947685722       -0.37636407028143       -0.02796596458455
C           -6.53847754475249        0.58622610893226       -0.05439098515839
C           -6.99633812157803        1.97543677353082       -0.09023119652205
C           -8.35790976820469        2.26906084868825       -0.02609612542158
C           -8.78609658375073        3.58230981854068       -0.05838996762897
C           -7.86294718391203        4.61253537275961       -0.15595417248725
C           -6.50748063172108        4.32708063005973       -0.22073731587414
C           -6.07304610901089        3.01600373227767       -0.18787472547062
N           -5.22685490272937        0.36227395520333       -0.04917401215900
C           -4.85291684902863       -0.91422999464951       -0.01352193550602
C           -3.41990377098366       -1.20433759291330       -0.00371300505905
C           -2.97096691530848       -2.52695330432180       -0.01391978768647
C           -1.62092134208505       -2.82191506351710       -0.00910672017255
C           -0.71008997874050       -1.77444487152392        0.00666932903669
C           -1.16116291748710       -0.44388487406646        0.01904747822962
C           -2.50227642901067       -0.14951685713589        0.01422213545652
C            0.00867726087591        0.52131613229944        0.03368749282945
C           -0.00516220374524        1.35815412177017        1.29285950598597
C            0.05417763224593        0.74112759682189        2.53645857669213
C            0.02943647798193        1.48282814547456        3.70194563656628
C           -0.05729200480252        2.86522947965616        3.63696845217224
C           -0.11630438536760        3.49555106894846        2.41094202043439
C           -0.09043869238063        2.74522953107529        1.23738053063780
O           -0.15231516461399        3.45064883453631        0.06879520634522
C           -0.08715773158835        2.77361828309100       -1.11629605209108
C           -0.11084178059329        3.55181880612112       -2.27161337763438
C           -0.04808016895600        2.95109536048535       -3.51222543819640
C            0.04066202268418        1.57075857614811       -3.61002438114764
C            0.06309239682757        0.80134818494404       -2.46261822309766
C           -0.00066869607607        1.38835926698504       -1.20479449824428
C            1.18401865756104       -0.43517736697060        0.02429092226753
C            2.52340643500435       -0.13222907225581        0.02576146543760
C            3.44789842624603       -1.18124900554012        0.01284660547274
C            4.87965610102395       -0.88452056487474        0.00846300943710
N            5.73139432748958       -1.90650339185189       -0.02215059829311
C            7.02372606440259       -1.58800199044866       -0.03277160614329
C            7.99940618364039       -2.67764063872365       -0.06927609880019
C            7.57097297756208       -4.00460673418829       -0.08266228304700
C            8.49525776733173       -5.03086872471171       -0.11877887722037
C            9.85194552220760       -4.74466937630920       -0.14178233282454
C           10.28441878121301       -3.42718585386216       -0.12857530091793
C            9.36498089541769       -2.39657509691087       -0.09214681734298
N            7.48206782786336       -0.33873601890479       -0.01457998493014
C            6.56091958159273        0.62117106839036        0.01918739889420
C            7.01583533017677        2.01170043883176        0.03986578864422
C            6.09042899990160        3.05184874770220        0.11982508178786
C            6.52245061945226        4.36404129271633        0.13691409165488
C            7.87767567153731        4.65105788496451        0.07415854801577
C            8.80300043440620        3.62125518423508       -0.00552287931531
C            8.37718493170440        2.30696475270247       -0.02221045834180
N            5.24988588882206        0.39333283551027        0.03255233456151
C            3.00752892901398       -2.50680149362235        0.00037416205186
C            1.65954543674777       -2.81072773589280       -0.00100285360664
C            0.74195461035879       -1.76914422032938        0.01016808145324
N           -5.70162379913863       -1.93876789787973        0.01264926435637
C           -7.53699063973774       -4.04111054366232        0.08709425904026
C           -8.45932101226325       -5.06947923119402        0.11192577667780
H          -10.53551638265413       -5.59323169343049        0.10013256794761
H          -11.30907420723388       -3.25257674440966        0.00077979725433
H           -9.65436720763330       -1.40998069527857       -0.04532429190954
H           -9.06174291013823        1.45506483461164        0.05055416078189
H           -9.84155870971094        3.80508613253515       -0.00773271612083
H           -8.19986559427892        5.63826016154437       -0.18128584963677
H           -5.78849770358075        5.12927463370876       -0.29699521689442
H           -5.02231875897820        2.77595809723269       -0.23859335202808
H           -3.70688684971456       -3.31548782878250       -0.02774521492339
H           -1.28395027382127       -3.84699871004016       -0.01834920887044
H           -2.86346089427449        0.86690246453724        0.02411040282994
H            0.11905850813139       -0.33633219911174        2.58016742462648
H            0.07615364401793        0.98462624619594        4.65816344789746
H           -0.07842831962138        3.45242598056098        4.54231712270512
H           -0.18333489672718        4.56943760161578        2.33111258449916
H           -0.17904405178965        4.62342765571218       -2.16631956189099
H           -0.06774515435887        3.55972491605465       -4.40333129597776
H            0.09081670411598        1.09556471131073       -4.57768267462736
H            0.12955078093700       -0.27469679059476       -2.53204611402802
H            2.87733050595560        0.88672735542825        0.03427820861968
H            6.51178714790378       -4.20842894866455       -0.06468273162778
H            8.15919834959493       -6.05716464408714       -0.12871692424773
H           10.57231787953422       -5.54877606935232       -0.16985796616291
H           11.34101977161886       -3.20455244457376       -0.14621988838907
H            9.68285488348423       -1.36571236319070       -0.08107350737586
H            5.03989775298568        2.81063224304072        0.16830784960960
H            5.80179913457942        5.16596908823070        0.19906212935553
H            8.21266862605832        5.67765420558293        0.08695004884805
H            9.85831118502126        3.84516636523051       -0.05442802131800
H            9.08280250444128        1.49329621950738       -0.08422824553667
H            3.74868026470132       -3.29044370322043       -0.00904787672593
H            1.32920192989009       -3.83794562332407       -0.01134449904479
H           -6.47729957552421       -4.24168524253184        0.11139467616079
H           -8.12113966434745       -6.09419780268733        0.15532108752229

          :  Hamiltonian                  GFN2-xTB          :
         :: gradient norm              0.000041602567 Eh/a0 ::
         :: HOMO-LUMO gap              1.970959905815 eV    ::
         :: SCC energy              -159.664368490325 Eh    ::
         :: -> dispersion             -0.134898715216 Eh    ::
         :: -> Gsolv                  -0.076016612748 Eh    ::
         :: repulsion energy           2.809076912914 Eh    ::

    * Orbital Energies and Occupations

         #    Occupation            Energy/Eh            Energy/eV
      -------------------------------------------------------------
         1        2.0000           -0.7359000             -20.0249
       ...           ...                  ...                  ...
       133        2.0000           -0.4140568             -11.2671
       134        2.0000           -0.4139383             -11.2638
       135        2.0000           -0.4133420             -11.2476
       136        2.0000           -0.4131144             -11.2414
       137        2.0000           -0.4122743             -11.2186
       138        2.0000           -0.4119459             -11.2096
       139        2.0000           -0.4058599             -11.0440
       140        2.0000           -0.3965369             -10.7903
       141        2.0000           -0.3816081             -10.3841
       142        2.0000           -0.3815735             -10.3831
       143        2.0000           -0.3814310             -10.3793
       144        2.0000           -0.3812865             -10.3753
       145        2.0000           -0.3776662             -10.2768 (HOMO)
       146                         -0.3052348              -8.3059 (LUMO)
       147                         -0.2938469              -7.9960
       148                         -0.2938331              -7.9956
       149                         -0.2885883              -7.8529
       150                         -0.2608900              -7.0992
       151                         -0.2457986              -6.6885
       152                         -0.2427824              -6.6064
       153                         -0.2413631              -6.5678
       154                         -0.2359721              -6.4211
       155                         -0.2345848              -6.3834
       156                         -0.2339825              -6.3670
       ...                                ...                  ...
       282                          0.7152439              19.4628
      -------------------------------------------------------------
                  HL-Gap            0.0724314 Eh            1.9710 eV

     #   Z          covCN         q      C6AA      α(0)
     1   6 C        2.920    -0.022    28.555     8.763
     2   6 C        2.918    -0.027    28.678     8.782
     3   6 C        2.924    -0.026    28.646     8.777
     4   6 C        2.983    -0.010    28.252     8.719
     5   6 C        2.979     0.217    23.432     7.940
     6   7 N        1.844    -0.322    29.199     8.008
     7   6 C        2.979     0.217    23.419     7.938
     8   6 C        2.983    -0.010    28.255     8.719
     9   6 C        2.923    -0.026    28.647     8.777
    10   6 C        2.918    -0.027    28.679     8.782
    11   6 C        2.920    -0.022    28.554     8.763
    12   6 C        2.918    -0.027    28.676     8.781
    13   6 C        2.923    -0.025    28.633     8.775
    14   7 N        1.844    -0.324    29.241     8.014
    15   6 C        2.980     0.217    23.422     7.939
    16   6 C        2.986    -0.010    28.254     8.719
    17   6 C        2.925    -0.028    28.710     8.787
    18   6 C        2.912    -0.031    28.770     8.795
    19   6 C        3.033     0.010    27.755     8.641
    20   6 C        3.056     0.006    27.837     8.653
    21   6 C        2.918    -0.029    28.719     8.788
    22   6 C        3.948     0.018    20.197     6.386
    23   6 C        2.977    -0.016    28.406     8.742
    24   6 C        2.926    -0.037    28.926     8.820
    25   6 C        2.918    -0.040    28.986     8.829
    26   6 C        2.920    -0.031    28.774     8.796
    27   6 C        2.919    -0.055    29.356     8.885
    28   6 C        2.880     0.134    25.064     8.207
    29   8 O        1.710    -0.253    18.190     5.758
    30   6 C        2.880     0.134    25.064     8.207
    31   6 C        2.919    -0.055    29.357     8.885
    32   6 C        2.920    -0.031    28.773     8.796
    33   6 C        2.918    -0.040    28.986     8.829
    34   6 C        2.926    -0.037    28.925     8.820
    35   6 C        2.977    -0.016    28.406     8.742
    36   6 C        3.054     0.006    27.837     8.653
    37   6 C        2.918    -0.028    28.711     8.787
    38   6 C        2.986    -0.010    28.253     8.719
    39   6 C        2.980     0.217    23.426     7.939
    40   7 N        1.844    -0.322    29.205     8.009
    41   6 C        2.979     0.217    23.433     7.941
    42   6 C        2.983    -0.010    28.252     8.719
    43   6 C        2.923    -0.026    28.649     8.778
    44   6 C        2.918    -0.027    28.679     8.782
    45   6 C        2.920    -0.022    28.555     8.763
    46   6 C        2.918    -0.027    28.678     8.782
    47   6 C        2.924    -0.026    28.646     8.777
    48   7 N        1.844    -0.322    29.197     8.008
    49   6 C        2.979     0.217    23.422     7.939
    50   6 C        2.983    -0.010    28.254     8.719
    51   6 C        2.923    -0.025    28.635     8.775
    52   6 C        2.918    -0.027    28.677     8.782
    53   6 C        2.920    -0.022    28.554     8.763
    54   6 C        2.918    -0.027    28.679     8.782
    55   6 C        2.923    -0.026    28.647     8.777
    56   7 N        1.844    -0.323    29.235     8.013
    57   6 C        2.925    -0.028    28.709     8.787
    58   6 C        2.912    -0.031    28.773     8.796
    59   6 C        3.034     0.010    27.755     8.641
    60   7 N        1.844    -0.322    29.208     8.010
    61   6 C        2.923    -0.026    28.649     8.778
    62   6 C        2.918    -0.027    28.679     8.782
    63   1 H        0.926     0.050     2.318     2.381
    64   1 H        0.926     0.048     2.348     2.396
    65   1 H        0.926     0.051     2.313     2.378
    66   1 H        0.926     0.051     2.309     2.376
    67   1 H        0.926     0.048     2.341     2.393
    68   1 H        0.926     0.051     2.313     2.378
    69   1 H        0.926     0.047     2.353     2.399
    70   1 H        0.926     0.048     2.348     2.396
    71   1 H        0.926     0.057     2.230     2.335
    72   1 H        0.926     0.055     2.253     2.347
    73   1 H        0.926     0.047     2.354     2.399
    74   1 H        0.926     0.036     2.507     2.476
    75   1 H        0.926     0.043     2.406     2.426
    76   1 H        0.926     0.049     2.334     2.389
    77   1 H        0.926     0.054     2.265     2.353
    78   1 H        0.926     0.055     2.264     2.353
    79   1 H        0.926     0.049     2.333     2.388
    80   1 H        0.926     0.043     2.407     2.426
    81   1 H        0.926     0.035     2.510     2.478
    82   1 H        0.926     0.048     2.349     2.397
    83   1 H        0.926     0.051     2.312     2.378
    84   1 H        0.926     0.048     2.347     2.396
    85   1 H        0.926     0.050     2.319     2.381
    86   1 H        0.926     0.048     2.349     2.397
    87   1 H        0.926     0.051     2.313     2.378
    88   1 H        0.926     0.048     2.346     2.395
    89   1 H        0.926     0.047     2.354     2.399
    90   1 H        0.926     0.050     2.314     2.379
    91   1 H        0.926     0.048     2.342     2.393
    92   1 H        0.926     0.051     2.308     2.376
    93   1 H        0.926     0.057     2.230     2.335
    94   1 H        0.926     0.055     2.256     2.349
    95   1 H        0.926     0.051     2.312     2.378
    96   1 H        0.926     0.048     2.347     2.396

molecular dipole:
                 x           y           z       tot (Debye)
 q only:        0.024      -0.131      -0.013
   full:        0.025      -0.204      -0.014       0.523

 projected vibrational frequencies (cm⁻¹)
eigval :       -0.00    -0.00    -0.00    -0.00     0.00     0.00
eigval :       -5.68     0.69     7.42    16.18    17.93    21.06
eigval :       23.25    24.45    29.31    31.40    35.01    38.56
eigval :       45.87    49.77    51.08    52.50    63.48    72.21
eigval :       80.44    87.53    89.27   100.15   116.65   127.83
eigval :      128.75   143.64   172.74   176.94   178.61   179.42
eigval :      183.74   188.56   211.84   215.04   226.27   244.31
eigval :      244.76   260.42   261.24   262.09   275.67   288.60
eigval :      297.12   324.94   338.61   361.55   364.58   364.66
eigval :      365.62   381.82   384.00   387.53   393.26   401.72
eigval :      402.41   402.65   410.17   422.43   425.02   433.59
eigval :      437.46   442.17   465.57   485.71   505.32   514.28
eigval :      514.54   520.97   546.46   557.04   559.10   567.54
eigval :      587.09   587.40   587.58   588.18   596.43   601.15
eigval :      605.13   612.65   613.69   616.05   627.02   627.33
eigval :      638.67   651.00   652.35   655.10   656.56   670.89
eigval :      673.00   673.59   673.92   687.39   690.25   695.84
eigval :      706.22   733.99   748.59   750.63   752.89   774.62
eigval :      775.22   777.97   783.03   794.15   794.67   804.14
eigval :      829.86   830.45   841.79   846.67   846.69   864.88
eigval :      872.79   873.53   875.02   875.19   875.33   877.35
eigval :      877.93   882.15   884.87   908.97   909.95   910.45
eigval :      910.90   911.54   911.73   915.72   917.07   922.81
eigval :      923.11   927.96   928.44   929.05   929.12   931.58
eigval :      931.86   933.02   933.10   934.39   946.20   955.30
eigval :      983.03   987.78   989.37   989.39  1009.33  1047.46
eigval :     1047.66  1073.59  1073.94  1074.35  1074.37  1079.20
eigval :     1084.28  1086.45  1087.53  1092.31  1108.04  1108.09
eigval :     1111.50  1111.57  1115.47  1133.26  1134.63  1148.81
eigval :     1151.05  1166.15  1166.28  1170.24  1173.36  1176.99
eigval :     1177.36  1177.66  1179.81  1180.04  1184.99  1188.20
eigval :     1199.92  1201.73  1202.16  1204.63  1205.66  1207.26
eigval :     1213.14  1225.26  1230.28  1241.66  1244.35  1259.16
eigval :     1267.58  1267.77  1268.64  1269.40  1271.71  1280.70
eigval :     1324.25  1325.68  1326.34  1327.55  1327.68  1328.98
eigval :     1335.33  1350.23  1356.81  1366.97  1367.89  1369.60
eigval :     1370.68  1390.04  1413.45  1421.03  1428.39  1429.04
eigval :     1430.35  1430.91  1433.39  1436.43  1442.46  1462.78
eigval :     1463.17  1465.55  1470.74  1474.46  1476.68  1481.44
eigval :     1505.37  1508.81  1510.62  1511.55  1568.72  1577.15
eigval :     1579.79  1581.46  1582.34  1583.20  1583.30  1590.31
eigval :     1590.78  1592.39  1592.65  1593.01  1593.13  1594.16
eigval :     1599.09  1602.20  3078.14  3078.21  3078.34  3078.37
eigval :     3080.24  3082.11  3082.87  3082.91  3083.04  3083.10
eigval :     3087.04  3087.20  3090.47  3092.35  3092.40  3092.55
eigval :     3092.60  3093.25  3096.39  3097.14  3102.77  3103.27
eigval :     3104.25  3104.34  3104.39  3104.76  3104.82  3105.06
eigval :     3105.53  3105.91  3106.44  3106.70  3108.49  3108.92

   temp. (K)  partition function   enthalpy   heat capacity  entropy
                                   cal/mol     cal/K/mol   cal/K/mol   J/K/mol
 298.15  VIB  0.178E+25            28503.247    174.229    180.567
         ROT  0.203E+09              888.752      2.981     40.993
         INT  0.360E+33            29392.000    177.210    221.560
         TR   0.217E+29             1481.254      4.968     45.876
         TOT                       30873.2535   182.1780   267.4364  1118.9537

       T/K    H(0)-H(T)+PV         H(T)/Eh          T*S/Eh         G(T)/Eh
   ------------------------------------------------------------------------
    298.15    0.491997E-01    0.768249E+00    0.127068E+00    0.641181E+00
   ------------------------------------------------------------------------

         :::::::::::::::::::::::::::::::::::::::::::::::::::::
         ::                  THERMODYNAMIC                  ::
         :::::::::::::::::::::::::::::::::::::::::::::::::::::
         :: total free energy        -156.214110681097 Eh   ::
         ::.................................................::
         :: total energy             -156.855291577493 Eh   ::
         :: zero point energy           0.719048879143 Eh   ::
         :: G(RRHO) w/o ZPVE           -0.077867982747 Eh   ::
         :: G(RRHO) contrib.            0.641180896397 Eh   ::
         :::::::::::::::::::::::::::::::::::::::::::::::::::::

           -------------------------------------------------
          | TOTAL ENERGY             -156.855291577493 Eh   |
          | TOTAL ENTHALPY           -156.087043037173 Eh   |
          | TOTAL FREE ENERGY        -156.214110681097 Eh   |
          | GRADIENT NORM               0.000041597262 Eh/α |
          | HOMO-LUMO GAP               1.970959797839 eV   |
           -------------------------------------------------

 * finished run on 2025/07/18 at 17:45:02.703
