   * xtb version 6.7.1 (edcfbbe) compiled by 'albert@albert-system' on 2024-07-22

   ID    Z sym.   atoms
    1    6 C      1-5, 7-13, 15-28, 30-39, 41-47, 49-55, 57-59, 61, 62
    2    7 N      6, 14, 40, 48, 56, 60
    3    8 O      29
    4    1 H      63-96

          program call               : xtb data2507/toluene/DTRZSFX/DTRZSFX_toluene_S0_finalOpt.xtbopt.xyz --gfn 2 --uhf 2 --gbsa toluene --ohess vtight --parallel 40 --molden --ceasefiles --namespace data2507/toluene/DTRZSFX/DTRZSFX_toluene_T1_preOpt
      * Solvation model:               GBSA
        Solvent                        toluene
        Solvent mass                       9.2140E+01 g/mol
          :  Hamiltonian                  GFN2-xTB          :
 * total energy  :  -156.7766126 Eh     change       -0.1095901E-06 Eh
 * total energy  :  -156.7795609 Eh     change       -0.2948341E-02 Eh
 * total energy  :  -156.7810183 Eh     change       -0.1457371E-02 Eh
 * total energy  :  -156.7810976 Eh     change       -0.7935407E-04 Eh
 * total energy  :  -156.7811345 Eh     change       -0.3690099E-04 Eh
 * total energy  :  -156.7811417 Eh     change       -0.7126223E-05 Eh
 * total energy  :  -156.7811431 Eh     change       -0.1434155E-05 Eh
 * total energy  :  -156.7811435 Eh     change       -0.4019359E-06 Eh
 * total energy  :  -156.7811440 Eh     change       -0.5493420E-06 Eh
 * total energy  :  -156.7811445 Eh     change       -0.4259369E-06 Eh
 * total energy  :  -156.7811456 Eh     change       -0.1848465E-06 Eh
 * total energy  :  -156.7811457 Eh     change       -0.1670744E-06 Eh
 * total energy  :  -156.7811459 Eh     change       -0.1615908E-06 Eh
 * total energy  :  -156.7811461 Eh     change       -0.1882499E-06 Eh
 * total energy  :  -156.7811463 Eh     change       -0.2533458E-06 Eh
 * total energy  :  -156.7811467 Eh     change       -0.3165972E-06 Eh
 * total energy  :  -156.7811470 Eh     change       -0.3457286E-06 Eh
 * total energy  :  -156.7811474 Eh     change       -0.3817343E-06 Eh
 * total energy  :  -156.7811474 Eh     change       -0.1265619E-09 Eh
   *** GEOMETRY OPTIMIZATION CONVERGED AFTER 22 ITERATIONS ***

 final structure:
================
96
 xtb: 6.7.1 (edcfbbe)
C           -9.82726401378946       -4.78542070548182        0.09564658999027
C          -10.25767221299366       -3.46826233410562        0.04667842089133
C           -9.33693550049715       -2.43868314978071        0.01556192769754
C           -7.97116582365922       -2.71989887895557        0.03411954249461
C           -6.99477888057892       -1.63117115424664        0.00334122505767
N           -7.45825490239755       -0.37524229615075       -0.02797765491520
C           -6.53396001164356        0.59299021693320       -0.05451320493099
C           -6.99209469760470        1.98130329735197       -0.09299641995121
C           -8.35433856427165        2.27474063683672       -0.04148429346130
C           -8.78286890548273        3.58781879466977       -0.07675970152930
C           -7.85999198052235        4.61895636264476       -0.16474384635925
C           -6.50365904859196        4.33370877172708       -0.21711921690082
C           -6.06881576767903        3.02332573649387       -0.18137833933519
N           -5.23919207218815        0.35931598795541       -0.04664316604866
C           -4.82769133813189       -0.92260712278887       -0.01335245875468
C           -3.42911036202407       -1.20822796789544       -0.00218575547508
C           -2.96408549494917       -2.53935959734866       -0.00101625850639
C           -1.62430426323324       -2.83160971262303        0.00402852781451
C           -0.69664846183871       -1.78299979512153        0.01147222004898
C           -1.16401182625196       -0.44654317465816        0.01589701556625
C           -2.49321722575002       -0.15002114299431        0.00733612483750
C            0.00952790299052        0.52416084533407        0.02919277310442
C           -0.00776097963161        1.35497098671018        1.28501114941467
C            0.04458215519572        0.74196526141386        2.53105133813403
C            0.01573535469696        1.48898605312189        3.69285517879047
C           -0.06847431344028        2.87441736122790        3.62586142830619
C           -0.12087081235431        3.50311208569956        2.40051241694455
C           -0.09023135333135        2.74684566054757        1.22804492641014
O           -0.14383756338143        3.44297482279126        0.05977852023034
C           -0.08398243834521        2.77166684520280       -1.12266043376429
C           -0.10965023260854        3.55241338365707       -2.27908807229956
C           -0.05073582480620        2.94965541340777       -3.51711613403080
C            0.03556999592849        1.56604721755421       -3.61277562765612
C            0.05947056244979        0.79474253425799       -2.46683735625429
C           -0.00010077552509        1.38137450767182       -1.20850897790352
C            1.18826903547622       -0.43729932336267        0.02374274358395
C            2.51579344852534       -0.13189486307241        0.02582932050623
C            3.45879676896688       -1.18381984335181        0.01489793851308
C            4.85618744802358       -0.89180858857883        0.01060485928477
N            5.74553926177724       -1.90332458443995       -0.02146298357136
C            7.02498510697136       -1.59483848448944       -0.03467809848732
C            8.00356252319031       -2.68114433653670       -0.07789424907226
C            7.57981454710509       -4.00998515800023       -0.09673959850445
C            8.50728202199990       -5.03255571909334       -0.13998601005684
C            9.86337875620559       -4.74238855810054       -0.16488423735779
C           10.29100186997739       -3.42354251009716       -0.14639629929853
C            9.36841313254424       -2.39606331950992       -0.10277424508760
N            7.48508497875495       -0.33756173263421       -0.01334307380629
C            6.55858335726278        0.62825844747832        0.02417153186341
C            7.01505279568493        2.01742400442211        0.05102325636145
C            6.09124675844634        3.05965206228674        0.13027369131989
C            6.52544681235098        4.37055292247168        0.15426952563932
C            7.88160787678697        4.65612232577942        0.09935189630621
C            8.80504456839425        3.62476166976698        0.02039714365487
C            8.37715549985203        2.31125770037202       -0.00333412055794
N            5.26429067409105        0.39140859816536        0.03577036722111
C            3.00285583597099       -2.51815755033280        0.00480236482848
C            1.66522733423564       -2.81989079263250        0.00544929261438
C            0.73065648089740       -1.77755255151177        0.01420446469363
N           -5.71441635883405       -1.93660076683534        0.00910351571209
C           -7.54461575380093       -4.04705567105175        0.08350194067109
C           -8.47025433726365       -5.07174415903578        0.11400127599568
H          -10.54847985918010       -5.58883546904864        0.11950483371395
H          -11.31415251293799       -3.24457956853970        0.03235250074271
H           -9.65447809796109       -1.40822646772539       -0.02346627308113
H           -9.05898502112219        1.46055019892263        0.02729144974354
H           -9.83905198458858        3.80943465671457       -0.03607518693795
H           -8.19718967241448        5.64446607867292       -0.19246331912578
H           -5.78442906193616        5.13640423720576       -0.28598480548961
H           -5.01712449421270        2.78429882513164       -0.22242835202347
H           -3.70012526821968       -3.32879643939322       -0.00709675965492
H           -1.28460120311244       -3.85641797138109        0.00225390726913
H           -2.85750852472547        0.86611796023259        0.00932067249030
H            0.10746917341656       -0.33507287042806        2.57695453780757
H            0.05743861625791        0.99421710491428        4.65095601406776
H           -0.09245764802816        3.46102615942910        4.53123315641853
H           -0.18545067133710        4.57669976640382        2.31722873082922
H           -0.17561007701935        4.62396148228065       -2.17361262044696
H           -0.07119870542544        3.55511090105813       -4.41007490187989
H            0.08268142974485        1.09151261879113       -4.58078005605323
H            0.12395413780053       -0.28104728541227       -2.53509761082450
H            2.87225455532594        0.88696610964248        0.03224329418994
H            6.52123276456667       -4.21847607502624       -0.07741107007145
H            8.17400084031847       -6.05976318699076       -0.15414426556668
H           10.58605177729521       -5.54413523635640       -0.19860430050467
H           11.34676992544011       -3.19688563553866       -0.16555542700722
H            9.68382321456744       -1.36432447760295       -0.08769564213419
H            5.03966705536292        2.82049870845246        0.17277934214185
H            5.80582675477588        5.17349894600807        0.21584636225948
H            8.21822464801239        5.68203311908406        0.11789682872768
H            9.86112154309764        3.84651819169516       -0.02227652202645
H            9.08225462842660        1.49688318049602       -0.06464388678426
H            3.74437922847958       -3.30238922112441       -0.00322391920442
H            1.33259818537896       -3.84698291523684       -0.00179891508870
H           -6.48536391815305       -4.25254669497356        0.09793576296811
H           -8.13480432609281       -6.09763450522541        0.15198579381295

          :  Hamiltonian                  GFN2-xTB          :
         :: gradient norm              0.000051974650 Eh/a0 ::
         :: HOMO-LUMO gap              0.375334665408 eV    ::
         :: SCC energy              -159.586084115445 Eh    ::
         :: -> dispersion             -0.134884725999 Eh    ::
         :: -> Gsolv                  -0.075685497173 Eh    ::
         :: repulsion energy           2.804936716023 Eh    ::

    * Orbital Energies and Occupations

         #    Occupation            Energy/Eh            Energy/eV
      -------------------------------------------------------------
         1        2.0000           -0.7476053             -20.3434
       ...           ...                  ...                  ...
       134        2.0000           -0.4129745             -11.2376
       135        2.0000           -0.4127586             -11.2317
       136        2.0000           -0.4126242             -11.2281
       137        2.0000           -0.4095465             -11.1443
       138        2.0000           -0.4090911             -11.1319
       139        2.0000           -0.4069836             -11.0746
       140        1.9773           -0.3846766             -10.4676
       141        1.9713           -0.3844492             -10.4614
       142        1.8920           -0.3831081             -10.4249
       143        1.8276           -0.3825923             -10.4109
       144        1.8207           -0.3825471             -10.4096
       145        1.5111           -0.3811442             -10.3715
       146        0.9990           -0.3049318              -8.2976 (HOMO)
       147        0.0005           -0.2911385              -7.9223 (LUMO)
       148        0.0005           -0.2911304              -7.9221
       149        0.0000           -0.2863260              -7.7913
       150                         -0.2580693              -7.0224
       151                         -0.2488626              -6.7719
       152                         -0.2429683              -6.6115
       153                         -0.2408958              -6.5551
       154                         -0.2391339              -6.5072
       155                         -0.2337778              -6.3614
       156                         -0.2337496              -6.3607
       157                         -0.2333434              -6.3496
       ...                                ...                  ...
       282                          0.7310947              19.8941
      -------------------------------------------------------------
                  HL-Gap            0.0137933 Eh            0.3753 eV

     #   Z          covCN         q      C6AA      α(0)
     1   6 C        2.920    -0.023    28.588     8.768
     2   6 C        2.918    -0.027    28.683     8.782
     3   6 C        2.923    -0.026    28.661     8.779
     4   6 C        2.983    -0.007    28.199     8.711
     5   6 C        2.951     0.212    23.530     7.956
     6   7 N        1.844    -0.318    29.104     7.995
     7   6 C        2.949     0.212    23.527     7.956
     8   6 C        2.983    -0.008    28.205     8.712
     9   6 C        2.923    -0.026    28.657     8.779
    10   6 C        2.918    -0.027    28.680     8.782
    11   6 C        2.920    -0.023    28.587     8.768
    12   6 C        2.918    -0.027    28.681     8.782
    13   6 C        2.923    -0.026    28.656     8.779
    14   7 N        1.846    -0.293    28.438     7.903
    15   6 C        2.947     0.193    23.899     8.018
    16   6 C        2.983    -0.020    28.505     8.758
    17   6 C        2.922    -0.034    28.841     8.807
    18   6 C        2.910    -0.037    28.923     8.819
    19   6 C        3.031    -0.001    28.015     8.682
    20   6 C        3.052     0.000    27.976     8.674
    21   6 C        2.916    -0.037    28.923     8.819
    22   6 C        3.945     0.020    20.179     6.383
    23   6 C        2.977    -0.008    28.218     8.714
    24   6 C        2.924    -0.034    28.839     8.807
    25   6 C        2.918    -0.033    28.811     8.802
    26   6 C        2.919    -0.027    28.686     8.783
    27   6 C        2.917    -0.051    29.270     8.872
    28   6 C        2.881     0.138    24.987     8.195
    29   8 O        1.710    -0.226    17.740     5.687
    30   6 C        2.881     0.138    24.987     8.195
    31   6 C        2.917    -0.051    29.270     8.872
    32   6 C        2.919    -0.027    28.686     8.783
    33   6 C        2.918    -0.033    28.811     8.802
    34   6 C        2.924    -0.034    28.838     8.806
    35   6 C        2.977    -0.008    28.219     8.714
    36   6 C        3.050    -0.000    27.984     8.676
    37   6 C        2.916    -0.037    28.915     8.818
    38   6 C        2.983    -0.020    28.503     8.758
    39   6 C        2.947     0.193    23.902     8.018
    40   7 N        1.846    -0.294    28.477     7.909
    41   6 C        2.950     0.212    23.531     7.956
    42   6 C        2.983    -0.007    28.199     8.711
    43   6 C        2.923    -0.027    28.667     8.780
    44   6 C        2.918    -0.027    28.681     8.782
    45   6 C        2.920    -0.023    28.588     8.768
    46   6 C        2.918    -0.027    28.683     8.782
    47   6 C        2.923    -0.026    28.660     8.779
    48   7 N        1.844    -0.318    29.099     7.995
    49   6 C        2.949     0.212    23.530     7.956
    50   6 C        2.983    -0.008    28.204     8.712
    51   6 C        2.923    -0.026    28.658     8.779
    52   6 C        2.918    -0.027    28.682     8.782
    53   6 C        2.920    -0.023    28.586     8.768
    54   6 C        2.918    -0.027    28.681     8.782
    55   6 C        2.923    -0.026    28.657     8.779
    56   7 N        1.846    -0.293    28.435     7.903
    57   6 C        2.922    -0.034    28.839     8.807
    58   6 C        2.910    -0.037    28.926     8.819
    59   6 C        3.032    -0.001    28.016     8.682
    60   7 N        1.845    -0.295    28.486     7.910
    61   6 C        2.923    -0.027    28.667     8.780
    62   6 C        2.918    -0.027    28.681     8.782
    63   1 H        0.926     0.049     2.330     2.387
    64   1 H        0.926     0.047     2.354     2.399
    65   1 H        0.926     0.050     2.326     2.385
    66   1 H        0.926     0.050     2.325     2.385
    67   1 H        0.926     0.048     2.350     2.397
    68   1 H        0.926     0.050     2.324     2.384
    69   1 H        0.926     0.047     2.354     2.399
    70   1 H        0.926     0.045     2.380     2.412
    71   1 H        0.926     0.044     2.400     2.423
    72   1 H        0.926     0.042     2.423     2.434
    73   1 H        0.926     0.034     2.530     2.487
    74   1 H        0.926     0.044     2.401     2.423
    75   1 H        0.926     0.051     2.311     2.377
    76   1 H        0.926     0.056     2.245     2.343
    77   1 H        0.926     0.062     2.178     2.308
    78   1 H        0.926     0.062     2.177     2.308
    79   1 H        0.926     0.056     2.245     2.343
    80   1 H        0.926     0.051     2.312     2.378
    81   1 H        0.926     0.043     2.404     2.424
    82   1 H        0.926     0.034     2.525     2.485
    83   1 H        0.926     0.048     2.346     2.395
    84   1 H        0.926     0.047     2.357     2.401
    85   1 H        0.926     0.049     2.331     2.387
    86   1 H        0.926     0.047     2.355     2.400
    87   1 H        0.926     0.049     2.326     2.385
    88   1 H        0.926     0.045     2.378     2.411
    89   1 H        0.926     0.047     2.356     2.400
    90   1 H        0.926     0.050     2.325     2.384
    91   1 H        0.926     0.048     2.350     2.397
    92   1 H        0.926     0.050     2.324     2.384
    93   1 H        0.926     0.044     2.401     2.423
    94   1 H        0.926     0.042     2.427     2.436
    95   1 H        0.926     0.048     2.347     2.395
    96   1 H        0.926     0.047     2.357     2.401

molecular dipole:
                 x           y           z       tot (Debye)
 q only:        0.008       1.045       0.002
   full:        0.008       0.961       0.001       2.443

 projected vibrational frequencies (cm⁻¹)
eigval :       -0.00    -0.00     0.00     0.00     0.00     0.00
eigval :       -1.85     5.20     9.26    16.31    17.19    21.39
eigval :       23.35    23.70    29.06    29.94    35.21    38.52
eigval :       48.17    51.58    52.36    52.45    62.37    71.38
eigval :       79.59    95.39    98.58    99.36   116.73   125.24
eigval :      129.46   141.94   170.42   177.52   182.62   183.89
eigval :      196.75   198.09   208.03   211.75   215.11   239.86
eigval :      242.70   253.86   256.59   257.55   265.28   283.67
eigval :      294.30   319.37   337.10   362.23   365.57   365.77
eigval :      366.56   373.14   376.97   379.74   385.21   387.71
eigval :      398.73   404.01   404.38   410.04   422.30   427.53
eigval :      429.31   430.14   456.38   478.67   480.54   500.78
eigval :      501.94   517.30   532.15   547.49   554.52   559.89
eigval :      563.81   564.72   567.72   585.13   587.78   587.81
eigval :      587.98   588.39   594.19   601.62   614.68   615.13
eigval :      617.40   626.06   631.55   647.44   651.59   660.88
eigval :      662.04   667.47   667.94   672.09   681.64   694.37
eigval :      696.34   715.56   721.04   722.06   729.26   768.83
eigval :      769.12   770.59   770.83   770.96   780.49   797.96
eigval :      799.76   811.00   811.30   812.84   824.54   847.89
eigval :      854.29   863.09   865.13   872.25   872.61   874.27
eigval :      874.38   874.68   874.91   905.13   906.12   907.05
eigval :      907.31   908.47   908.86   912.01   912.99   920.74
eigval :      922.57   922.85   927.85   928.19   928.71   928.86
eigval :      929.86   930.89   931.28   931.80   931.94   932.24
eigval :      968.55   970.10   983.12   983.70   986.13   997.18
eigval :     1001.56  1062.55  1066.74  1073.80  1073.87  1075.39
eigval :     1076.38  1081.57  1082.06  1084.17  1106.60  1106.78
eigval :     1109.55  1110.20  1114.13  1124.44  1125.77  1144.25
eigval :     1146.46  1151.64  1152.21  1161.26  1170.43  1170.98
eigval :     1175.46  1176.74  1176.91  1178.37  1179.26  1186.11
eigval :     1186.86  1188.05  1191.25  1195.98  1212.69  1213.31
eigval :     1214.29  1217.43  1218.29  1227.70  1230.70  1248.05
eigval :     1252.11  1254.86  1256.12  1267.18  1267.50  1267.55
eigval :     1267.82  1269.38  1278.15  1311.04  1321.70  1325.88
eigval :     1327.85  1327.92  1329.69  1331.98  1332.42  1341.08
eigval :     1344.00  1371.82  1378.29  1386.37  1393.91  1411.25
eigval :     1420.07  1428.77  1429.42  1431.69  1432.75  1432.91
eigval :     1454.05  1454.52  1455.22  1462.14  1462.95  1465.46
eigval :     1466.16  1474.40  1486.00  1496.26  1509.55  1527.25
eigval :     1552.20  1570.14  1575.02  1577.71  1577.84  1578.25
eigval :     1578.76  1579.00  1586.59  1588.18  1588.62  1588.73
eigval :     1591.51  1596.06  3077.57  3077.64  3077.99  3078.00
eigval :     3080.62  3081.64  3081.67  3082.01  3082.03  3083.01
eigval :     3086.18  3086.67  3089.22  3089.96  3091.35  3091.44
eigval :     3091.70  3091.75  3091.92  3092.10  3096.44  3096.93
eigval :     3099.41  3099.57  3099.92  3100.08  3100.13  3100.22
eigval :     3102.24  3102.36  3103.68  3103.73  3107.02  3107.32

   temp. (K)  partition function   enthalpy   heat capacity  entropy
                                   cal/mol     cal/K/mol   cal/K/mol   J/K/mol
 298.15  VIB  0.218E+27            29442.785    178.008    188.934
         ROT  0.203E+09              888.752      2.981     40.996
         INT  0.443E+35            30331.537    180.989    229.929
         TR   0.217E+29             1481.254      4.968     45.876
         TOT                       31812.7910   185.9568   275.8058  1153.9715

       T/K    H(0)-H(T)+PV         H(T)/Eh          T*S/Eh         G(T)/Eh
   ------------------------------------------------------------------------
    298.15    0.506969E-01    0.763870E+00    0.131044E+00    0.632826E+00
   ------------------------------------------------------------------------

         :::::::::::::::::::::::::::::::::::::::::::::::::::::
         ::                  THERMODYNAMIC                  ::
         :::::::::::::::::::::::::::::::::::::::::::::::::::::
         :: total free energy        -156.148321759186 Eh   ::
         ::.................................................::
         :: total energy             -156.781147400415 Eh   ::
         :: zero point energy           0.713172969320 Eh   ::
         :: G(RRHO) w/o ZPVE           -0.080347328091 Eh   ::
         :: G(RRHO) contrib.            0.632825641229 Eh   ::
         :::::::::::::::::::::::::::::::::::::::::::::::::::::

           -------------------------------------------------
          | TOTAL ENERGY             -156.781147400415 Eh   |
          | TOTAL ENTHALPY           -156.017277521610 Eh   |
          | TOTAL FREE ENERGY        -156.148321759186 Eh   |
          | GRADIENT NORM               0.000050797104 Eh/α |
          | HOMO-LUMO GAP               0.375334715508 eV   |
           -------------------------------------------------

 * finished run on 2025/07/18 at 17:45:14.398
