   * xtb version 6.7.1 (edcfbbe) compiled by 'albert@albert-system' on 2024-07-22

   ID    Z sym.   atoms
    1    6 C      1-5, 7-13, 15-28, 30-39, 41-47, 49-55, 57-59, 61, 62
    2    7 N      6, 14, 40, 48, 56, 60
    3    8 O      29
    4    1 H      63-96

          program call               : xtb data2507/toluene/DTRZSFX/DTRZSFX_toluene_T1_crest.xyz --gfn 2 --uhf 2 --gbsa toluene --ohess vtight --parallel 40 --molden --ceasefiles --namespace data2507/toluene/DTRZSFX/DTRZSFX_toluene_T1_finalOpt
      * Solvation model:               GBSA
        Solvent                        toluene
        Solvent mass                       9.2140E+01 g/mol
          :  Hamiltonian                  GFN2-xTB          :
 * total energy  :  -156.7809948 Eh     change        0.6369305E-09 Eh
 * total energy  :  -156.7810681 Eh     change       -0.7329584E-04 Eh
 * total energy  :  -156.7810879 Eh     change       -0.1977648E-04 Eh
 * total energy  :  -156.7810903 Eh     change       -0.2470876E-05 Eh
 * total energy  :  -156.7810914 Eh     change       -0.1052820E-05 Eh
 * total energy  :  -156.7810925 Eh     change       -0.1100949E-05 Eh
 * total energy  :  -156.7810939 Eh     change       -0.1354193E-05 Eh
 * total energy  :  -156.7810954 Eh     change       -0.1572501E-05 Eh
 * total energy  :  -156.7810969 Eh     change       -0.1479818E-05 Eh
 * total energy  :  -156.7810982 Eh     change       -0.1293506E-05 Eh
 * total energy  :  -156.7811295 Eh     change       -0.6465455E-06 Eh
 * total energy  :  -156.7811302 Eh     change       -0.6999803E-06 Eh
 * total energy  :  -156.7811307 Eh     change       -0.5040369E-06 Eh
 * total energy  :  -156.7811310 Eh     change       -0.2613623E-06 Eh
 * total energy  :  -156.7811312 Eh     change       -0.2059162E-06 Eh
 * total energy  :  -156.7811310 Eh     change        0.2321707E-06 Eh
 * total energy  :  -156.7811315 Eh     change       -0.5353369E-06 Eh
 * total energy  :  -156.7811317 Eh     change       -0.1534126E-06 Eh
 * total energy  :  -156.7811317 Eh     change       -0.1176809E-07 Eh
   *** GEOMETRY OPTIMIZATION CONVERGED AFTER 40 ITERATIONS ***

 final structure:
================
96
 xtb: 6.7.1 (edcfbbe)
C           -9.81562155530737       -4.80135435077288       -0.03738822786236
C          -10.24999475301597       -3.48461203947042       -0.04598700290818
C           -9.33246212633926       -2.45176257845650       -0.03496118317033
C           -7.96598439244837       -2.72934625127378       -0.01518567580817
C           -6.99293652772185       -1.63729685554937       -0.00579135292460
N           -7.45989425056089       -0.38238942087700        0.00301314698845
C           -6.53844628912930        0.58896989262494        0.00324577799559
C           -7.00216304236848        1.97596286043060        0.00569464836519
C           -8.36617739628081        2.26133962464244        0.05695852434301
C           -8.80104967861356        3.57277556430339        0.05768310153528
C           -7.88276965786603        4.61044490170765        0.00629365415284
C           -6.52471515829324        4.33331585818465       -0.04475840414008
C           -6.08355021151894        3.02453328149403       -0.04493064917324
N           -5.24286694459754        0.35921066448619       -0.00001212883986
C           -4.82782077863819       -0.92205103233567       -0.00311237462175
C           -3.42878095366942       -1.20561015039762       -0.00265679396943
C           -2.96332094989198       -2.53661712183358       -0.01265340400092
C           -1.62354491553769       -2.82856881898936       -0.01334870149450
C           -0.69630504509638       -1.77966508906306       -0.00382438532241
C           -1.16381085822324       -0.44328145413620        0.00682843963322
C           -2.49321252142226       -0.14711481629324        0.00769407266731
C            0.00976393922426        0.52742930943136        0.01554549498719
C           -0.00311904077017        1.36048377411574        1.26982734671562
C            0.05241449142589        0.74964151031674        2.51678410657771
C            0.02774602865158        1.49874942542273        3.67734267038126
C           -0.05561799083676        2.88411393913505        3.60820022642224
C           -0.11118826634724        3.51068644476363        2.38191551221558
C           -0.08458896726681        2.75232224778635        1.21072493041540
O           -0.14088170635501        3.44651901178287        0.04141200509188
C           -0.08475395617370        2.77309737481894       -1.14002433755080
C           -0.11130694380488        3.55203277849535       -2.29766440986499
C           -0.05561041103069        2.94722476085253       -3.53483229640440
C            0.02814496817554        1.56332558434136       -3.62838945260788
C            0.05302693522695        0.79383135001644       -2.48125124290927
C           -0.00298494331909        1.38256442456157       -1.22373006537682
C            1.18851760474922       -0.43406132562726        0.00687643904476
C            2.51606792997241       -0.12888255829000        0.00738487901284
C            3.45890304614999       -1.18098945079127       -0.00245762568612
C            4.85622214736858       -0.88876597919402       -0.00335907675690
N            5.74623585192632       -1.90018046676059       -0.00469854093942
C            7.02563941224002       -1.59118026081249       -0.00296152864881
C            8.00527923805086       -2.67734540713306       -0.00590893977757
C            7.58277332220012       -4.00667825732065        0.00119704725384
C            8.51155824175349       -5.02895979217757       -0.00294858675003
C            9.86766129809286       -4.73796879475560       -0.01414128988566
C           10.29403367316531       -3.41860514304868       -0.02128989956270
C            9.37013213717856       -2.39140839015632       -0.01724949082749
N            7.48496269731767       -0.33346500371429        0.00093153503711
C            6.55773629251664        0.63234432138400       -0.00197395279526
C            7.01321493989475        2.02206309591233       -0.00423407209513
C            6.08801355634505        3.06503508223519       -0.04990608854783
C            6.52131682998490        4.37643115169896       -0.05390954632625
C            7.87799787600751        4.66174306912401       -0.01217668079834
C            8.80281190470095        3.62964271334214        0.03396892691295
C            8.37580570041287        2.31563981065039        0.03754059011696
N            5.26353283641318        0.39489496420264       -0.00384259419513
C            3.00295298035061       -2.51531108750304       -0.01158310484758
C            1.66527413410575       -2.81680974565763       -0.01250608105992
C            0.73092419905481       -1.77427818247546       -0.00363163427875
N           -5.71172515693637       -1.93883448883794       -0.00791954508844
C           -7.53540856015122       -4.05609508741135       -0.00647573994381
C           -8.45786031327937       -5.08404309583712       -0.01761294394885
H          -10.53438286489768       -5.60725674989657       -0.04607446272432
H          -11.30705784308329       -3.26379156217742       -0.06132386764655
H           -9.65300928817453       -1.42152041836780       -0.04244552956084
H           -9.06715650774125        1.44206720795120        0.09667422157296
H           -9.85859569403346        3.78795173373688        0.09766302691299
H           -8.22485663917824        5.63470349706683        0.00627584344005
H           -5.80904379694527        5.14112714074596       -0.08457166197905
H           -5.03037559383812        2.79204042610640       -0.08503744291447
H           -3.69922017887247       -3.32614217613918       -0.02033546419187
H           -1.28346636343843       -3.85321681262459       -0.02120729129104
H           -2.85777782433596        0.86888064131888        0.01628526809107
H            0.11482884223565       -0.32734974874813        2.56439195214998
H            0.07215386730127        1.00565572336731        4.63617677732254
H           -0.07608548153969        3.47236580164847        4.51258983138302
H           -0.17494975794381        4.58417731234490        2.29688587458502
H           -0.17513775561662        4.62386074291658       -2.19371286848434
H           -0.07659636828816        3.55129421963258       -4.42871868385870
H            0.07264590155413        1.08714297315911       -4.59570460931395
H            0.11583464253961       -0.28213994919007       -2.54797551545182
H            2.87275698341928        0.88987403637542        0.01539046058791
H            6.52417216483279       -4.21576171191444        0.01004256855599
H            8.17934279671545       -6.05658847907626        0.00254019393641
H           10.59135174970728       -5.53949181074562       -0.01756724969940
H           11.34981253826206       -3.19132185227209       -0.03002781265600
H            9.68437894555771       -1.35921298110890       -0.02363608405314
H            5.03603435967477        2.82613490164114       -0.08275696574035
H            5.80059519264338        5.17994951538018       -0.08975471871114
H            8.21390287825645        5.68804642503247       -0.01537148021994
H            9.85929371985142        3.85118004981102        0.06660575470640
H            9.08193487547291        1.50062079605383        0.07306609586800
H            3.74442386278717       -3.29961040124132       -0.01869428671626
H            1.33236741507525       -3.84381242171346       -0.02014344906058
H           -6.47561636263142       -4.25866829393140        0.00899656618745
H           -8.11936897717076       -6.10961389185311       -0.01102524688304

          :  Hamiltonian                  GFN2-xTB          :
         :: gradient norm              0.000123374039 Eh/a0 ::
         :: HOMO-LUMO gap              0.375476363963 eV    ::
         :: SCC energy              -159.586163368562 Eh    ::
         :: -> dispersion             -0.134882747616 Eh    ::
         :: -> Gsolv                  -0.075651254226 Eh    ::
         :: repulsion energy           2.805031691378 Eh    ::

    * Orbital Energies and Occupations

         #    Occupation            Energy/Eh            Energy/eV
      -------------------------------------------------------------
         1        2.0000           -0.7475955             -20.3431
       ...           ...                  ...                  ...
       134        2.0000           -0.4129735             -11.2376
       135        2.0000           -0.4127624             -11.2318
       136        2.0000           -0.4126274             -11.2282
       137        2.0000           -0.4095489             -11.1444
       138        2.0000           -0.4090895             -11.1319
       139        2.0000           -0.4069858             -11.0746
       140        1.9773           -0.3846759             -10.4676
       141        1.9713           -0.3844444             -10.4613
       142        1.8920           -0.3831062             -10.4249
       143        1.8277           -0.3825915             -10.4108
       144        1.8203           -0.3825429             -10.4095
       145        1.5113           -0.3811433             -10.3714
       146        0.9990           -0.3049384              -8.2978 (HOMO)
       147        0.0005           -0.2911397              -7.9223 (LUMO)
       148        0.0005           -0.2911341              -7.9222
       149        0.0000           -0.2863247              -7.7913
       150                         -0.2580686              -7.0224
       151                         -0.2488536              -6.7717
       152                         -0.2429711              -6.6116
       153                         -0.2408933              -6.5550
       154                         -0.2391286              -6.5070
       155                         -0.2337723              -6.3613
       156                         -0.2337495              -6.3606
       157                         -0.2333461              -6.3497
       ...                                ...                  ...
       282                          0.7310895              19.8940
      -------------------------------------------------------------
                  HL-Gap            0.0137987 Eh            0.3755 eV

     #   Z          covCN         q      C6AA      α(0)
     1   6 C        2.920    -0.023    28.588     8.768
     2   6 C        2.918    -0.027    28.683     8.782
     3   6 C        2.923    -0.026    28.660     8.779
     4   6 C        2.983    -0.007    28.199     8.711
     5   6 C        2.950     0.212    23.530     7.956
     6   7 N        1.844    -0.318    29.103     7.995
     7   6 C        2.949     0.212    23.528     7.956
     8   6 C        2.983    -0.008    28.205     8.712
     9   6 C        2.923    -0.026    28.657     8.779
    10   6 C        2.918    -0.027    28.680     8.782
    11   6 C        2.920    -0.023    28.586     8.768
    12   6 C        2.918    -0.027    28.681     8.782
    13   6 C        2.923    -0.026    28.656     8.779
    14   7 N        1.846    -0.293    28.440     7.904
    15   6 C        2.947     0.193    23.899     8.018
    16   6 C        2.983    -0.020    28.505     8.758
    17   6 C        2.922    -0.034    28.841     8.807
    18   6 C        2.910    -0.037    28.923     8.819
    19   6 C        3.031    -0.001    28.015     8.682
    20   6 C        3.052     0.000    27.976     8.675
    21   6 C        2.916    -0.037    28.922     8.819
    22   6 C        3.945     0.020    20.179     6.383
    23   6 C        2.977    -0.008    28.218     8.714
    24   6 C        2.924    -0.034    28.839     8.807
    25   6 C        2.918    -0.033    28.811     8.802
    26   6 C        2.919    -0.027    28.686     8.783
    27   6 C        2.917    -0.051    29.270     8.872
    28   6 C        2.881     0.138    24.987     8.195
    29   8 O        1.710    -0.226    17.740     5.687
    30   6 C        2.881     0.138    24.988     8.195
    31   6 C        2.917    -0.051    29.270     8.872
    32   6 C        2.919    -0.027    28.686     8.783
    33   6 C        2.918    -0.033    28.811     8.802
    34   6 C        2.924    -0.034    28.838     8.807
    35   6 C        2.977    -0.008    28.219     8.714
    36   6 C        3.050    -0.000    27.984     8.676
    37   6 C        2.916    -0.037    28.915     8.818
    38   6 C        2.983    -0.020    28.503     8.758
    39   6 C        2.947     0.193    23.901     8.018
    40   7 N        1.845    -0.294    28.478     7.909
    41   6 C        2.950     0.212    23.531     7.956
    42   6 C        2.983    -0.007    28.199     8.711
    43   6 C        2.923    -0.027    28.667     8.780
    44   6 C        2.918    -0.027    28.681     8.782
    45   6 C        2.920    -0.023    28.588     8.768
    46   6 C        2.918    -0.027    28.682     8.782
    47   6 C        2.923    -0.026    28.660     8.779
    48   7 N        1.844    -0.318    29.099     7.995
    49   6 C        2.949     0.212    23.530     7.956
    50   6 C        2.983    -0.008    28.205     8.712
    51   6 C        2.923    -0.026    28.657     8.779
    52   6 C        2.918    -0.027    28.682     8.782
    53   6 C        2.920    -0.023    28.586     8.768
    54   6 C        2.918    -0.027    28.680     8.782
    55   6 C        2.923    -0.026    28.657     8.779
    56   7 N        1.846    -0.293    28.434     7.903
    57   6 C        2.922    -0.034    28.839     8.807
    58   6 C        2.910    -0.037    28.926     8.819
    59   6 C        3.032    -0.001    28.016     8.682
    60   7 N        1.845    -0.295    28.484     7.910
    61   6 C        2.923    -0.027    28.667     8.780
    62   6 C        2.918    -0.027    28.681     8.782
    63   1 H        0.926     0.049     2.330     2.387
    64   1 H        0.926     0.047     2.354     2.399
    65   1 H        0.926     0.049     2.326     2.385
    66   1 H        0.926     0.050     2.325     2.384
    67   1 H        0.926     0.048     2.350     2.397
    68   1 H        0.926     0.050     2.324     2.384
    69   1 H        0.926     0.047     2.354     2.399
    70   1 H        0.926     0.045     2.380     2.413
    71   1 H        0.926     0.044     2.399     2.422
    72   1 H        0.926     0.042     2.423     2.434
    73   1 H        0.926     0.034     2.530     2.488
    74   1 H        0.926     0.044     2.402     2.424
    75   1 H        0.926     0.051     2.312     2.378
    76   1 H        0.926     0.056     2.245     2.343
    77   1 H        0.926     0.062     2.178     2.308
    78   1 H        0.926     0.062     2.178     2.308
    79   1 H        0.926     0.056     2.244     2.343
    80   1 H        0.926     0.051     2.312     2.378
    81   1 H        0.926     0.043     2.403     2.424
    82   1 H        0.926     0.034     2.525     2.485
    83   1 H        0.926     0.048     2.346     2.395
    84   1 H        0.926     0.047     2.357     2.401
    85   1 H        0.926     0.049     2.331     2.387
    86   1 H        0.926     0.047     2.355     2.400
    87   1 H        0.926     0.050     2.326     2.385
    88   1 H        0.926     0.045     2.378     2.412
    89   1 H        0.926     0.047     2.356     2.400
    90   1 H        0.926     0.050     2.325     2.384
    91   1 H        0.926     0.048     2.350     2.397
    92   1 H        0.926     0.050     2.324     2.384
    93   1 H        0.926     0.044     2.401     2.423
    94   1 H        0.926     0.042     2.427     2.436
    95   1 H        0.926     0.048     2.347     2.396
    96   1 H        0.926     0.047     2.357     2.401

molecular dipole:
                 x           y           z       tot (Debye)
 q only:        0.009       1.042       0.000
   full:        0.009       0.958       0.000       2.436

 projected vibrational frequencies (cm⁻¹)
eigval :       -0.00    -0.00     0.00     0.00     0.00     0.00
eigval :       -5.23     5.20     6.68    14.18    16.16    17.61
eigval :       18.74    23.72    24.09    25.26    35.20    38.39
eigval :       47.40    51.66    52.21    52.59    62.62    71.09
eigval :       79.47    94.75    96.61    98.79   116.61   125.32
eigval :      128.88   141.91   170.43   177.01   182.51   182.71
eigval :      196.37   197.07   208.46   211.54   215.16   239.71
eigval :      242.68   253.89   256.64   257.62   265.34   283.68
eigval :      294.31   319.38   336.79   361.88   362.18   366.16
eigval :      366.33   373.12   377.35   379.21   385.05   387.53
eigval :      398.63   403.67   404.30   410.16   422.44   427.39
eigval :      428.83   429.98   456.49   478.69   480.51   500.83
eigval :      502.00   517.37   532.11   547.43   554.51   559.96
eigval :      563.93   564.66   567.75   585.10   587.85   587.90
eigval :      588.02   588.42   594.21   601.60   614.33   614.68
eigval :      617.48   626.02   631.42   647.48   651.58   660.82
eigval :      661.21   667.55   667.63   672.18   681.69   694.44
eigval :      696.34   715.59   721.17   722.16   729.28   769.50
eigval :      769.64   770.82   771.20   771.47   780.30   797.73
eigval :      799.76   810.97   811.41   812.69   824.45   847.90
eigval :      854.96   863.55   865.13   872.42   872.64   874.20
eigval :      874.71   875.17   875.58   905.09   906.35   907.69
eigval :      907.93   908.96   909.26   911.85   913.08   920.76
eigval :      922.29   922.76   927.82   928.04   928.78   929.86
eigval :      930.09   931.82   932.06   932.07   932.65   932.86
eigval :      968.57   970.06   983.22   983.74   986.08   997.19
eigval :     1001.56  1062.66  1066.86  1073.82  1074.02  1075.51
eigval :     1076.57  1081.80  1082.19  1084.10  1106.91  1106.96
eigval :     1109.95  1110.47  1114.23  1124.65  1125.71  1144.18
eigval :     1146.37  1151.79  1152.21  1161.56  1170.44  1170.99
eigval :     1175.83  1177.23  1177.34  1178.72  1179.56  1186.42
eigval :     1187.58  1188.37  1191.66  1195.85  1212.65  1213.34
eigval :     1214.25  1217.61  1218.47  1228.08  1230.69  1248.00
eigval :     1252.15  1255.29  1255.78  1267.31  1267.61  1268.11
eigval :     1268.34  1269.34  1278.23  1311.04  1321.61  1325.90
eigval :     1327.82  1327.86  1329.70  1332.06  1332.44  1341.13
eigval :     1344.08  1371.93  1378.37  1386.49  1393.99  1411.29
eigval :     1420.17  1428.92  1429.55  1431.64  1432.84  1433.15
eigval :     1454.11  1454.53  1455.27  1462.25  1462.85  1465.63
eigval :     1466.31  1474.46  1486.20  1496.43  1509.60  1527.33
eigval :     1552.24  1570.20  1574.98  1577.79  1577.81  1578.27
eigval :     1578.72  1579.01  1586.58  1588.20  1588.69  1588.72
eigval :     1591.52  1596.02  3077.67  3077.75  3078.01  3078.21
eigval :     3080.61  3081.72  3081.82  3081.99  3082.13  3083.01
eigval :     3086.51  3086.60  3089.38  3090.18  3091.54  3091.55
eigval :     3091.88  3091.95  3092.04  3092.19  3096.47  3096.92
eigval :     3099.69  3099.76  3100.03  3100.09  3100.24  3100.31
eigval :     3102.40  3102.47  3103.82  3103.95  3107.12  3107.40

   temp. (K)  partition function   enthalpy   heat capacity  entropy
                                   cal/mol     cal/K/mol   cal/K/mol   J/K/mol
 298.15  VIB  0.285E+27            29481.426    177.826    189.037
         ROT  0.203E+09              888.752      2.981     40.996
         INT  0.580E+35            30370.178    180.807    230.034
         TR   0.217E+29             1481.254      4.968     45.876
         TOT                       31851.4322   185.7755   275.9104  1154.4090

       T/K    H(0)-H(T)+PV         H(T)/Eh          T*S/Eh         G(T)/Eh
   ------------------------------------------------------------------------
    298.15    0.507585E-01    0.763911E+00    0.131094E+00    0.632817E+00
   ------------------------------------------------------------------------

         :::::::::::::::::::::::::::::::::::::::::::::::::::::
         ::                  THERMODYNAMIC                  ::
         :::::::::::::::::::::::::::::::::::::::::::::::::::::
         :: total free energy        -156.148314622450 Eh   ::
         ::.................................................::
         :: total energy             -156.781131671952 Eh   ::
         :: zero point energy           0.713152485323 Eh   ::
         :: G(RRHO) w/o ZPVE           -0.080335435822 Eh   ::
         :: G(RRHO) contrib.            0.632817049502 Eh   ::
         :::::::::::::::::::::::::::::::::::::::::::::::::::::

           -------------------------------------------------
          | TOTAL ENERGY             -156.781131671952 Eh   |
          | TOTAL ENTHALPY           -156.017220698441 Eh   |
          | TOTAL FREE ENERGY        -156.148314622450 Eh   |
          | GRADIENT NORM               0.000119783784 Eh/α |
          | HOMO-LUMO GAP               0.375482344538 eV   |
           -------------------------------------------------

 * finished run on 2025/07/18 at 17:56:26.620
