   * xtb version 6.7.1 (edcfbbe) compiled by 'albert@albert-system' on 2024-07-22

   ID    Z sym.   atoms
    1    6 C      1-15, 17-20, 24-27, 29-71
    2    7 N      16, 28
    3   16 S      21
    4    8 O      22, 23
    5    1 H      72-123

          program call               : xtb data2507/gas/PDA-DP/PDA-DP_gas_S0_finalOpt.xtbopt.xyz --gfn 2 --spinpol --tblite --uhf 2 --ohess vtight --parallel 40 --molden --ceasefiles --namespace data2507/gas/PDA-DP/PDA-DP_gas_T1_preOpt
 * total energy  :  -185.0260267 Eh     change       -0.1324682E-07 Eh
 * total energy  :  -185.0283718 Eh     change       -0.2345025E-02 Eh
 * total energy  :  -185.0289803 Eh     change       -0.6085607E-03 Eh
 * total energy  :  -185.0291012 Eh     change       -0.1208500E-03 Eh
 * total energy  :  -185.0292636 Eh     change       -0.1623876E-03 Eh
 * total energy  :  -185.0294182 Eh     change       -0.1546886E-03 Eh
 * total energy  :  -185.0296453 Eh     change       -0.2270933E-03 Eh
 * total energy  :  -185.0298495 Eh     change       -0.2042132E-03 Eh
 * total energy  :  -185.0299928 Eh     change       -0.1432712E-03 Eh
 * total energy  :  -185.0301452 Eh     change       -0.1523384E-03 Eh
 * total energy  :  -185.0310400 Eh     change       -0.9586094E-06 Eh
 * total energy  :  -185.0310404 Eh     change       -0.4493418E-06 Eh
 * total energy  :  -185.0310406 Eh     change       -0.1818935E-06 Eh
 * total energy  :  -185.0310410 Eh     change       -0.3807078E-06 Eh
 * total energy  :  -185.0310414 Eh     change       -0.4354986E-06 Eh
 * total energy  :  -185.0310426 Eh     change       -0.1167964E-05 Eh
 * total energy  :  -185.0310433 Eh     change       -0.7336884E-06 Eh
 * total energy  :  -185.0310439 Eh     change       -0.5487233E-06 Eh
 * total energy  :  -185.0310439 Eh     change       -0.3690144E-07 Eh
   *** GEOMETRY OPTIMIZATION CONVERGED AFTER 94 ITERATIONS ***

 final structure:
================
123
 xtb: 6.7.1 (edcfbbe)
C            5.61856372735038        2.54988762561115        0.63356205895122
C            5.34260971865076        1.63950496942392       -0.57844787595993
C            6.02128074728356        2.21203912558379       -1.83766376246257
C            3.84746464667193        1.58959377748936       -0.81365559973299
C            3.15779776466288        2.74873182330611       -1.08368125441651
C            1.77180234687042        2.78871326328078       -1.32284234496063
C            1.08985482271371        4.03297179407923       -1.61094887067368
C           -0.11363023027340        4.05270199813628       -2.33602612158224
C           -0.73900899408727        5.23907690369768       -2.64832640498986
C           -0.19351337246522        6.45078376374458       -2.24820173441237
C            0.98311582940733        6.45282677505398       -1.51251572761904
C            1.61170942702929        5.26972442528320       -1.19567182807529
C            1.08488149684571        1.55625800413180       -1.27794240397996
C            1.73763513412327        0.39326776436477       -0.98586967231721
C            3.12991489411407        0.37134100986031       -0.75408519807058
N            3.76358908717985       -0.80991810051374       -0.46600509983317
C            2.97851140151804       -1.99259417453901       -0.34548063214541
C            2.53268247439862       -2.65949035881154       -1.49109487421448
C            1.72174374016885       -3.76344085368790       -1.36351660879493
C            1.36316997870601       -4.21809653141016       -0.09508257966469
S            0.04835577209788       -5.40264008403058        0.06358388485625
O            0.18183499958424       -6.12891823851017        1.30064825419647
O           -0.08293048268246       -6.14550785007067       -1.16375612452057
C           -1.27392610947282       -4.22152042423571        0.20785387253391
C           -1.75135573269192       -3.59900223871475       -0.94274488314991
C           -2.57560072941837       -2.50211561999574       -0.83398521262944
C           -2.92101775887425       -2.01687298482830        0.43101312186157
N           -3.73180630412059       -0.85037017477874        0.54093882015149
C           -5.10106612042082       -0.96831358416769        0.42787994661005
C           -5.67360936152831       -2.23526765285035        0.25642926368469
C           -7.03466796132127       -2.38760664485187        0.14325310621742
C           -7.87710293986863       -1.27711505176916        0.18995352115394
C           -9.33110773082065       -1.42227664306281        0.05987993405742
C          -10.07652774761995       -0.50397164770648       -0.67799716070562
C          -11.44556761534400       -0.64536698008066       -0.80282020070343
C          -12.09593503741043       -1.70264285620145       -0.18849482518929
C          -11.36644582271377       -2.62033038349454        0.54919314119091
C           -9.99659875076853       -2.48425954448126        0.67039268965564
C           -7.29903416061461       -0.02318295118478        0.36702824402575
C           -5.93227225319211        0.15876290810156        0.49346294400194
C           -5.37898279806325        1.55409163833027        0.70528642328380
C           -5.78509495948341        2.43330829117606       -0.49181192887225
C           -5.96834715722411        2.12357347622608        2.00913065902499
C           -3.86712399125119        1.55185906188215        0.81797069563722
C           -3.19473486390286        2.74762770959532        1.00309956338503
C           -1.80871127524725        2.82616150260070        1.12392733193295
C           -1.13940103256728        4.11634662534146        1.31375801180022
C           -1.65346985117594        5.28163917882347        0.74556995363810
C           -1.03963257050407        6.50113072887906        0.95282589928930
C            0.10724086147738        6.58298080782074        1.72386914997212
C            0.63949772976847        5.43186871595669        2.27911063762018
C            0.02309620463360        4.21219815713455        2.07854970078710
C           -1.08534551561914        1.63465519027644        1.06541066760356
C           -1.72466568199272        0.43473199504471        0.86513049142965
C           -3.11862699841329        0.36835138746250        0.74029718925811
C           -2.45895161559096       -2.65780501750520        1.58306359886825
C           -1.63111308358445       -3.75218686028925        1.46971631919394
C            1.82838415322780       -3.57042487511156        1.04848942105178
C            2.63656405413840       -2.46461004381039        0.92704301857168
C            5.11518939395119       -0.88590127943836       -0.25685851329408
C            5.71854340451335       -2.13727699559203       -0.01160234949454
C            7.06278549301111       -2.24172528509909        0.20914503318427
C            7.88954624344145       -1.10245122576837        0.18353124304998
C            9.32097552582685       -1.20150665593423        0.41439147952278
C           10.22139213563997       -0.33609421525365       -0.22150309055990
C           11.57873736992284       -0.43787404110837       -0.00089636522399
C           12.07909206971103       -1.39926718325744        0.86507173889519
C           11.20172935590980       -2.26289212814637        1.50478337741121
C            9.84426493990270       -2.17043751771881        1.28139852586890
C            7.27947551183727        0.13220911248430       -0.08156627394245
C            5.92662192903281        0.27075338801318       -0.29990226624894
H            5.12927473699723        2.14760049441448        1.51853694302111
H            6.68437529187955        2.61723617307496        0.83195213579386
H            5.23985507741513        3.55253992477268        0.45739772707571
H            7.09439980024007        2.29688366395900       -1.69364202196824
H            5.83827411087408        1.55688345149430       -2.68708273612262
H            5.63051143099311        3.19736904915406       -2.07446425731649
H            3.70662864118529        3.67438003820845       -1.14767932682212
H           -0.54094793941607        3.12645632253672       -2.68858684194327
H           -1.65693456184391        5.22532426161089       -3.21886782693246
H           -0.68053666711883        7.37996933978424       -2.50271660968272
H            1.40846721317138        7.38939366609707       -1.18178126468677
H            2.50509909692928        5.29930160387068       -0.59072641745391
H            0.01908303203482        1.52914198964407       -1.43742948826696
H            1.18017231619150       -0.52862494477773       -0.92670734271737
H            2.82457209150009       -2.29147626138427       -2.46357905344883
H            1.35623559941738       -4.30074739326402       -2.22372781966405
H           -1.46337050051558       -3.99698814882649       -1.90252128075378
H           -2.95668609929551       -2.00319117640333       -1.71284010288688
H           -5.03299699899563       -3.10219492428715        0.21384849386622
H           -7.44924399171391       -3.37283944373701       -0.00570711051317
H           -9.57382356075143        0.31129840497217       -1.17804055039553
H          -12.00844598702209        0.07028380807262       -1.38451107814981
H          -13.16596197086288       -1.81145264813025       -0.28510595917025
H          -11.86869445394321       -3.44511463877814        1.03349733425919
H           -9.43622806942311       -3.19353068048806        1.26176134570670
H           -7.95443519191310        0.83201341113996        0.43032934396258
H           -5.41985490542169        3.44885031145631       -0.36855113574865
H           -5.36642582236082        2.02599661067805       -1.41019114882897
H           -6.86579198423777        2.47192660128489       -0.59438241124314
H           -5.68098797831019        1.49566097738557        2.85027285724503
H           -5.60287640592583        3.13004949880404        2.19252860024253
H           -7.05309320908516        2.15776530466769        1.96205396450252
H           -3.76411654091286        3.66053754803510        1.08170886248179
H           -2.52897465863325        5.23008923992587        0.11574506631311
H           -1.45629638394860        7.39281324923902        0.50811533145532
H            0.58477173132968        7.53739653567418        1.88868943840166
H            1.53597710501681        5.48646347637354        2.87995727504525
H            0.43283935566229        3.32701580925340        2.54192198591735
H           -0.00995285823209        1.65059376437737        1.14670413198422
H           -1.14309360719343       -0.47186332000709        0.80007498711312
H           -2.74989902079674       -2.27792343584155        2.55133134968880
H           -1.25325581313411       -4.26997963168259        2.33662284855718
H            1.54185032143699       -3.95744502099348        2.01301844218066
H            3.00589774700873       -1.94561066315633        1.79921957750409
H            5.10348033242622       -3.02357358582014       -0.01224274270672
H            7.49889998230997       -3.21533614128199        0.36886872501685
H            9.85152491791979        0.39796429892175       -0.92221844340678
H           12.25631712291673        0.23249683819660       -0.51006940972247
H           13.14192891404849       -1.47560638759348        1.03834684685862
H           11.58318607855217       -3.01085455793899        2.18486573468863
H            9.17204665217049       -2.83282020070777        1.80619805158621
H            7.90452564631226        1.01147585286611       -0.08373517512536

 projected vibrational frequencies (cm⁻¹)
eigval :       -0.00    -0.00    -0.00     0.00     0.00     0.00
eigval :        3.67     5.90     7.78    18.00    19.55    20.27
eigval :       23.09    26.20    36.60    38.27    38.92    44.05
eigval :       46.76    48.43    50.03    56.54    60.97    64.90
eigval :       72.85    76.03    80.47    88.49    97.01   105.84
eigval :      107.92   111.65   114.01   125.33   129.87   131.26
eigval :      132.78   137.62   142.10   145.36   171.17   181.42
eigval :      183.47   190.05   191.01   192.63   193.99   194.81
eigval :      196.14   212.57   217.81   244.09   244.29   253.15
eigval :      282.74   287.36   290.70   297.38   302.67   313.39
eigval :      314.77   318.47   322.54   329.51   336.45   342.25
eigval :      352.10   357.14   364.28   367.36   369.15   370.20
eigval :      371.46   372.41   372.67   373.73   378.50   388.67
eigval :      393.48   402.40   408.61   412.58   431.46   436.22
eigval :      443.04   449.00   456.43   463.02   467.18   472.54
eigval :      483.37   487.26   495.04   499.37   506.12   508.36
eigval :      512.53   513.72   518.30   570.59   574.34   574.94
eigval :      578.69   580.05   582.85   583.86   587.36   588.67
eigval :      591.12   594.08   600.74   602.20   603.44   604.33
eigval :      616.53   618.77   624.94   651.42   656.73   659.06
eigval :      662.80   666.74   668.69   670.36   672.65   679.16
eigval :      682.38   689.24   697.55   704.89   707.01   712.86
eigval :      718.26   743.29   748.69   756.82   757.87   789.25
eigval :      794.72   812.42   814.71   821.15   825.36   827.88
eigval :      832.06   849.03   852.77   859.20   861.46   869.21
eigval :      869.98   873.22   873.72   875.68   879.03   879.87
eigval :      887.73   889.76   890.38   895.67   898.73   900.17
eigval :      902.35   903.81   907.08   909.04   909.50   910.68
eigval :      913.13   914.77   915.71   917.24   919.89   920.72
eigval :      924.35   925.58   925.77   929.54   930.60   930.89
eigval :      932.00   936.10   939.71   957.73   957.98   961.71
eigval :      971.89   979.72   980.46   989.99   994.88  1012.90
eigval :     1013.57  1058.52  1066.27  1069.04  1071.68  1074.66
eigval :     1075.40  1078.63  1081.43  1085.09  1085.81  1089.42
eigval :     1090.39  1096.63  1105.00  1106.82  1109.64  1115.54
eigval :     1122.45  1124.17  1125.17  1126.23  1148.86  1156.36
eigval :     1159.75  1163.13  1164.29  1169.04  1172.66  1177.40
eigval :     1180.24  1181.04  1182.35  1184.64  1187.97  1197.70
eigval :     1201.39  1202.99  1210.72  1212.34  1218.70  1226.64
eigval :     1229.43  1231.72  1238.29  1243.32  1245.88  1248.57
eigval :     1254.11  1257.42  1261.24  1280.19  1282.25  1283.44
eigval :     1286.97  1289.34  1290.30  1294.27  1299.27  1311.46
eigval :     1319.43  1321.96  1322.84  1324.45  1324.83  1327.26
eigval :     1329.42  1332.07  1335.29  1339.61  1345.42  1346.28
eigval :     1348.18  1398.67  1398.96  1400.23  1400.89  1401.92
eigval :     1407.48  1410.42  1412.41  1418.16  1420.00  1425.95
eigval :     1427.02  1428.70  1430.71  1432.35  1434.72  1436.95
eigval :     1439.38  1442.59  1451.10  1453.35  1454.78  1455.16
eigval :     1456.10  1470.05  1473.43  1486.61  1487.30  1487.72
eigval :     1488.51  1490.18  1497.13  1497.56  1499.01  1499.96
eigval :     1501.31  1515.55  1518.47  1530.37  1533.05  1541.04
eigval :     1545.17  1555.90  1569.75  1575.60  1579.94  1580.12
eigval :     1580.41  1584.13  1593.36  1600.24  1603.15  3028.03
eigval :     3028.97  3030.58  3031.32  3042.18  3043.85  3044.66
eigval :     3046.44  3050.81  3052.11  3054.51  3055.95  3067.76
eigval :     3069.92  3070.60  3071.10  3071.28  3072.69  3073.91
eigval :     3075.38  3081.03  3082.17  3082.38  3082.58  3083.49
eigval :     3083.78  3084.11  3085.24  3085.28  3086.13  3087.25
eigval :     3088.81  3090.62  3091.85  3092.97  3093.22  3093.82
eigval :     3093.93  3094.22  3094.67  3095.90  3096.13  3096.85
eigval :     3104.30  3105.15  3105.84  3106.43  3106.47  3107.49
eigval :     3109.71  3109.95  3110.09

   temp. (K)  partition function   enthalpy   heat capacity  entropy
                                   cal/mol     cal/K/mol   cal/K/mol   J/K/mol
 298.15  VIB  0.199E+31            36977.574    227.237    233.934
         ROT  0.281E+09              888.752      2.981     41.644
         INT  0.559E+39            37866.326    230.218    275.578
         TR   0.278E+29             1481.254      4.968     46.367
         TOT                       39347.5802   235.1861   321.9449  1347.0175

       T/K    H(0)-H(T)+PV         H(T)/Eh          T*S/Eh         G(T)/Eh
   ------------------------------------------------------------------------
    298.15    0.627044E-01    0.102495E+01    0.152966E+00    0.871979E+00
   ------------------------------------------------------------------------

         :::::::::::::::::::::::::::::::::::::::::::::::::::::
         ::                  THERMODYNAMIC                  ::
         :::::::::::::::::::::::::::::::::::::::::::::::::::::
         :: total free energy        -184.159064572561 Eh   ::
         ::.................................................::
         :: total energy             -185.031043817430 Eh   ::
         :: zero point energy           0.962241298837 Eh   ::
         :: G(RRHO) w/o ZPVE           -0.090262053968 Eh   ::
         :: G(RRHO) contrib.            0.871979244869 Eh   ::
         :::::::::::::::::::::::::::::::::::::::::::::::::::::

           -------------------------------------------------
          | TOTAL ENERGY             -185.031043817430 Eh   |
          | TOTAL ENTHALPY           -184.006098158293 Eh   |
          | TOTAL FREE ENERGY        -184.159064572561 Eh   |
          | GRADIENT NORM               0.000093170959 Eh/α |
           -------------------------------------------------

 * finished run on 2025/07/17 at 07:20:47.849
