   * xtb version 6.7.1 (edcfbbe) compiled by 'albert@albert-system' on 2024-07-22

   ID    Z sym.   atoms
    1    6 C      1-15, 17-20, 24-27, 29-71
    2    7 N      16, 28
    3   16 S      21
    4    8 O      22, 23
    5    1 H      72-123

          program call               : xtb data2507/gas/PDA-DP/PDA-DP.xyz --gfn 2 --ohess vtight --parallel 40 --molden --ceasefiles --namespace data2507/gas/PDA-DP/PDA-DP_gas_S0_preOpt
          :  Hamiltonian                  GFN2-xTB          :
 * total energy  :  -185.0710282 Eh     change       -0.2913367E-08 Eh
 * total energy  :  -185.0916272 Eh     change       -0.2059900E-01 Eh
 * total energy  :  -185.0998577 Eh     change       -0.8230512E-02 Eh
 * total energy  :  -185.1031035 Eh     change       -0.3245800E-02 Eh
 * total energy  :  -185.1049019 Eh     change       -0.1798379E-02 Eh
 * total energy  :  -185.1055101 Eh     change       -0.6082678E-03 Eh
 * total energy  :  -185.1058086 Eh     change       -0.2984489E-03 Eh
 * total energy  :  -185.1061292 Eh     change       -0.3206189E-03 Eh
 * total energy  :  -185.1064307 Eh     change       -0.3015555E-03 Eh
 * total energy  :  -185.1067460 Eh     change       -0.3152553E-03 Eh
 * total energy  :  -185.1086406 Eh     change       -0.1280146E-05 Eh
 * total energy  :  -185.1086418 Eh     change       -0.1140711E-05 Eh
 * total energy  :  -185.1086432 Eh     change       -0.1403212E-05 Eh
 * total energy  :  -185.1086432 Eh     change       -0.4290263E-07 Eh
 * total energy  :  -185.1086443 Eh     change       -0.1142614E-05 Eh
 * total energy  :  -185.1086452 Eh     change       -0.8845430E-06 Eh
 * total energy  :  -185.1086456 Eh     change       -0.3579594E-06 Eh
 * total energy  :  -185.1086457 Eh     change       -0.1196458E-06 Eh
 * total energy  :  -185.1086457 Eh     change       -0.5337057E-08 Eh
   *** GEOMETRY OPTIMIZATION CONVERGED AFTER 45 ITERATIONS ***

 final structure:
================
123
 xtb: 6.7.1 (edcfbbe)
C            7.95251314437995       -0.75154982276519        2.06730084549941
C            6.89036592780091       -0.86702135906139        0.95896160995872
C            7.21301620287230       -2.05215791270142        0.03088818116072
C            6.90498010435720        0.41300771998592        0.14543774395900
C            8.07237608880070        0.78924582776874       -0.50015687121706
C            8.17901648355751        1.96118738718853       -1.24042406939185
C            9.43391099357838        2.31606940480823       -1.91552898077697
C           10.66375738215788        2.10059066984445       -1.29716339247779
C           11.84260221847489        2.43867003080632       -1.93473539187793
C           11.81460649217791        2.99468028315278       -3.20267586650656
C           10.59829762020212        3.21313053101173       -3.82774648932798
C            9.41848183232401        2.87915733657287       -3.18998790534008
C            7.06440815883153        2.79152083614232       -1.30799771803107
C            5.89499804473165        2.44455847767468       -0.66989596368398
C            5.78723863587312        1.24697432194375        0.04314686576657
N            4.59051500540778        0.91529575686195        0.66695899219739
C            3.49040978207248        1.79924384429667        0.56187396764103
C            2.81593963164079        1.93221897295506       -0.65067599187049
C            1.75176695951656        2.80867668265205       -0.75429722557556
C            1.36689726728945        3.54126287843198        0.35300228228773
S           -0.02407908466946        4.66829889539323        0.20357444525885
O            0.14197383706524        5.45396320730749       -0.98957004350310
O           -0.19292764425493        5.34999812592087        1.45860393592959
C           -1.40883260321544        3.55071629244607       -0.04163793022098
C           -2.03604797783707        3.49494811066540       -1.27120785798283
C           -3.09623295652444        2.62589466021601       -1.45371003616453
C           -3.51505461540399        1.81300326084308       -0.40306159137143
N           -4.60479697894260        0.92903071748631       -0.58723233645239
C           -4.44493780552206       -0.17872407361639       -1.40809969498498
C           -3.19223822740465       -0.46160309365453       -1.96071660258866
C           -3.00639792731859       -1.54510886663207       -2.78961096225633
C           -4.06933708509927       -2.38857467583599       -3.09729693445328
C           -3.89842741298144       -3.53533077913612       -3.99852954089948
C           -2.75152798134713       -4.32429581613889       -3.93909927206522
C           -2.59362381485796       -5.40370281763758       -4.78787526951724
C           -3.57597957048266       -5.71234943896240       -5.71386637819909
C           -4.71914715059524       -4.93394762949181       -5.78427739005833
C           -4.88030975020777       -3.85654275887487       -4.93365681489351
C           -5.30288324333373       -2.11904815157145       -2.51451650607447
C           -5.51350203389746       -1.04305896579816       -1.66719013176828
C           -6.87955007453618       -0.85258183253796       -1.03684529764140
C           -7.92174078604661       -0.67761642005198       -2.15623495509344
C           -7.20685962620978       -2.09690741340321       -0.19160149326594
C           -6.92236258561463        0.37128318267816       -0.14193826023623
C           -8.10138300146514        0.68747229376318        0.51430254423909
C           -8.23772844572900        1.81548133682533        1.31578822043014
C           -9.50579294215745        2.10484953070562        1.99751082700540
C           -9.99549414702998        3.40738159502490        2.06792466291116
C          -11.18988943772632        3.67778572925914        2.70876029343424
C          -11.91474169817110        2.65321236456614        3.29415819742388
C          -11.43685824495026        1.35492963847848        3.23311236020362
C          -10.24451681313492        1.08229011717067        2.58937577141285
C           -7.14061115142608        2.66241996536102        1.43876731636896
C           -5.95419922071476        2.36501395488690        0.80680629442311
C           -5.81776350357272        1.21166150963073        0.02889424754519
C           -2.86735240127260        1.87450911862485        0.82963533780026
C           -1.81144404432410        2.74862617313350        1.00976104906001
C            2.01952937806597        3.41272721943757        1.56363308661090
C            3.08845307898867        2.54162840680699        1.66968479761997
C            4.45856381348882       -0.24158422486383        1.42239633734773
C            3.22190406344016       -0.56758757015472        1.98757882684760
C            3.06424078664986       -1.70025973160017        2.75407218014228
C            4.13531360179733       -2.56250899232029        2.96797671229955
C            3.98895344233188       -3.77059949761563        3.78982299514187
C            4.59158142058885       -4.96917148957949        3.41320898743768
C            4.45381867730807       -6.10314301451578        4.19139658150812
C            3.71435131159113       -6.06004205543433        5.36143650034467
C            3.11010540664266       -4.87478464161074        5.74599488056725
C            3.24396249641050       -3.74094217614556        4.96704863220924
C            5.35077100392793       -2.24997718521518        2.36921110101131
C            5.53783450429317       -1.11323128376108        1.59903104261053
H            7.72976119721217        0.10111570992980        2.70607368769699
H            7.97035794014336       -1.64586744049232        2.68392227454668
H            8.94263350379737       -0.61249027540035        1.64251262019269
H            6.44636088960819       -2.14056052906818       -0.73666116958995
H            8.17285801082796       -1.91298481033892       -0.45847162608140
H            7.24896073126770       -2.98348371274933        0.58907541595230
H            8.93563716568572        0.14365552272208       -0.44681845534200
H           10.69321290638481        1.68653036330982       -0.29954974605986
H           12.78820215081553        2.27129291977186       -1.43928136873721
H           12.73616087850523        3.25770689124390       -3.70064443103334
H           10.56999753792201        3.64418765853335       -4.81815739675407
H            8.47353200754007        3.03717769835595       -3.68934078722667
H            7.12024569202137        3.72938734552181       -1.83966640773974
H            5.05419013277765        3.11919441228001       -0.71564091153883
H            3.13940190576556        1.35237053509872       -1.50213098292226
H            1.22365229685134        2.94180844633081       -1.68558174408075
H           -1.69429291043555        4.14887470761134       -2.05812744274050
H           -3.60762949451505        2.56989233160734       -2.40289430131721
H           -2.35147836616290        0.17600109236508       -1.73313406200192
H           -2.03161973688737       -1.72485341357400       -3.21760810684448
H           -1.98901759663746       -4.09982222859802       -3.20732269327855
H           -1.70091947004612       -6.00935491307875       -4.72564136616080
H           -3.45110107824024       -6.55495558524652       -6.37781172856957
H           -5.48714180510116       -5.16651548364271       -6.50793647666642
H           -5.76607862543441       -3.24211707830327       -5.00766327186250
H           -6.11777010723344       -2.79650307605668       -2.71913934767841
H           -7.67711777203270        0.19681257126471       -2.75643314176263
H           -7.94091170689542       -1.54710741811391       -2.80733602641483
H           -8.91717550508840       -0.54095556861078       -1.74321258488072
H           -8.19194352557406       -2.01157615092352        0.25833713180680
H           -7.18878301748752       -2.99675357093854       -0.80004342457681
H           -6.47291540493208       -2.20698684619379        0.60458955066928
H           -8.96391927596157        0.05173542370010        0.38464030054223
H           -9.44371719367352        4.20884587194560        1.59853622426519
H          -11.55913004549502        4.69239501580372        2.75029000884255
H          -12.84709875864184        2.86555016813070        3.79621925777473
H          -11.99515987882816        0.55177874142228        3.69240607261679
H           -9.86811711804410        0.06970626425377        2.56282640938743
H           -7.20775015499162        3.55025992902984        2.04912566720731
H           -5.12040134654755        3.04142005081084        0.91397572206814
H           -3.20410283423781        1.24072044956813        1.63619637559480
H           -1.30267334220951        2.82639465746240        1.95775960168361
H            1.68925504930844        4.01262522002375        2.39713591360229
H            3.61983036086230        2.43019022645977        2.60293039297978
H            2.37016090892187        0.07264555741958        1.81473742286801
H            2.09380362716394       -1.93105685333390        3.16735452278896
H            5.15350219480245       -5.01645869499972        2.49150365665733
H            4.92299265932737       -7.02636954413676        3.88292524590592
H            3.60884047922020       -6.94594955637259        5.97006353161142
H            2.53422876912857       -4.83395963318957        6.65939012615604
H            2.78452308866741       -2.81499280150380        5.28155127165694
H            6.18277617614185       -2.91726527516233        2.53419110893294

          :  Hamiltonian                  GFN2-xTB          :
         :: gradient norm              0.000188710640 Eh/a0 ::
         :: HOMO-LUMO gap              2.060298181877 eV    ::
         :: SCC energy              -188.438565041322 Eh    ::
         :: -> dispersion             -0.172854367069 Eh    ::
         :: repulsion energy           3.329919331308 Eh    ::

    * Orbital Energies and Occupations

         #    Occupation            Energy/Eh            Energy/eV
      -------------------------------------------------------------
         1        2.0000           -0.7738770             -21.0583
       ...           ...                  ...                  ...
       160        2.0000           -0.4038908             -10.9904
       161        2.0000           -0.4038319             -10.9888
       162        2.0000           -0.4036895             -10.9850
       163        2.0000           -0.4020952             -10.9416
       164        2.0000           -0.4020097             -10.9392
       165        2.0000           -0.4018903             -10.9360
       166        2.0000           -0.4006754             -10.9029
       167        2.0000           -0.3960691             -10.7776
       168        2.0000           -0.3957546             -10.7690
       169        2.0000           -0.3871139             -10.5339
       170        2.0000           -0.3870268             -10.5315
       171        2.0000           -0.3507716              -9.5450
       172        2.0000           -0.3506176              -9.5408 (HOMO)
       173                         -0.2749030              -7.4805 (LUMO)
       174                         -0.2618503              -7.1253
       175                         -0.2574465              -7.0055
       176                         -0.2571383              -6.9971
       177                         -0.2483550              -6.7581
       178                         -0.2483173              -6.7571
       179                         -0.2336405              -6.3577
       180                         -0.2333835              -6.3507
       181                         -0.2248696              -6.1190
       182                         -0.2247517              -6.1158
       183                         -0.2230521              -6.0696
       ...                                ...                  ...
       341                          1.2068031              32.8388
      -------------------------------------------------------------
                  HL-Gap            0.0757146 Eh            2.0603 eV

     #   Z          covCN         q      C6AA      α(0)
     1   6 C        3.761    -0.103    22.518     6.765
     2   6 C        3.910     0.022    20.150     6.380
     3   6 C        3.761    -0.103    22.520     6.765
     4   6 C        2.978    -0.013    28.333     8.731
     5   6 C        2.934    -0.041    29.024     8.835
     6   6 C        2.974    -0.003    28.085     8.693
     7   6 C        2.977     0.011    27.776     8.645
     8   6 C        2.925    -0.035    28.874     8.812
     9   6 C        2.918    -0.030    28.754     8.793
    10   6 C        2.920    -0.032    28.800     8.800
    11   6 C        2.918    -0.030    28.744     8.792
    12   6 C        2.925    -0.035    28.866     8.811
    13   6 C        2.925    -0.037    28.911     8.818
    14   6 C        2.922    -0.060    29.486     8.905
    15   6 C        2.928     0.055    26.776     8.486
    16   7 N        2.754    -0.066    22.512     7.047
    17   6 C        2.928     0.077    26.271     8.406
    18   6 C        2.923    -0.034    28.856     8.809
    19   6 C        2.958    -0.028    28.688     8.785
    20   6 C        2.971    -0.078    29.940     8.975
    21  16 S        3.816     0.947   108.186    17.506
    22   8 O        0.860    -0.538    24.635     6.655
    23   8 O        0.860    -0.538    24.632     6.654
    24   6 C        2.971    -0.078    29.940     8.975
    25   6 C        2.953    -0.025    28.634     8.777
    26   6 C        2.923    -0.034    28.845     8.808
    27   6 C        2.928     0.078    26.270     8.405
    28   7 N        2.754    -0.066    22.512     7.047
    29   6 C        2.928     0.055    26.770     8.485
    30   6 C        2.922    -0.060    29.497     8.906
    31   6 C        2.924    -0.037    28.926     8.820
    32   6 C        2.974    -0.003    28.096     8.695
    33   6 C        2.977     0.010    27.778     8.645
    34   6 C        2.925    -0.035    28.872     8.812
    35   6 C        2.918    -0.030    28.748     8.792
    36   6 C        2.920    -0.032    28.801     8.801
    37   6 C        2.918    -0.030    28.753     8.793
    38   6 C        2.925    -0.035    28.876     8.812
    39   6 C        2.934    -0.041    29.020     8.835
    40   6 C        2.978    -0.013    28.324     8.730
    41   6 C        3.910     0.022    20.150     6.380
    42   6 C        3.761    -0.103    22.520     6.765
    43   6 C        3.761    -0.103    22.521     6.765
    44   6 C        2.978    -0.013    28.333     8.731
    45   6 C        2.934    -0.041    29.024     8.835
    46   6 C        2.974    -0.003    28.085     8.693
    47   6 C        2.977     0.011    27.777     8.645
    48   6 C        2.925    -0.035    28.866     8.811
    49   6 C        2.918    -0.030    28.744     8.792
    50   6 C        2.920    -0.032    28.801     8.801
    51   6 C        2.918    -0.030    28.756     8.794
    52   6 C        2.925    -0.035    28.878     8.813
    53   6 C        2.925    -0.037    28.911     8.818
    54   6 C        2.922    -0.060    29.486     8.905
    55   6 C        2.928     0.055    26.775     8.486
    56   6 C        2.923    -0.034    28.856     8.809
    57   6 C        2.958    -0.028    28.686     8.785
    58   6 C        2.953    -0.025    28.629     8.776
    59   6 C        2.924    -0.034    28.844     8.807
    60   6 C        2.928     0.055    26.770     8.485
    61   6 C        2.922    -0.060    29.497     8.906
    62   6 C        2.925    -0.037    28.927     8.820
    63   6 C        2.974    -0.003    28.097     8.695
    64   6 C        2.976     0.010    27.778     8.645
    65   6 C        2.925    -0.035    28.876     8.812
    66   6 C        2.918    -0.030    28.754     8.793
    67   6 C        2.920    -0.032    28.801     8.801
    68   6 C        2.918    -0.030    28.748     8.792
    69   6 C        2.926    -0.035    28.871     8.812
    70   6 C        2.934    -0.041    29.020     8.835
    71   6 C        2.978    -0.013    28.325     8.730
    72   1 H        0.925     0.032     2.557     2.501
    73   1 H        0.925     0.041     2.442     2.444
    74   1 H        0.925     0.040     2.445     2.445
    75   1 H        0.925     0.032     2.562     2.503
    76   1 H        0.925     0.041     2.436     2.441
    77   1 H        0.925     0.040     2.450     2.448
    78   1 H        0.926     0.036     2.506     2.476
    79   1 H        0.926     0.029     2.607     2.525
    80   1 H        0.926     0.028     2.616     2.529
    81   1 H        0.926     0.028     2.613     2.528
    82   1 H        0.926     0.028     2.608     2.525
    83   1 H        0.926     0.030     2.587     2.515
    84   1 H        0.926     0.034     2.535     2.490
    85   1 H        0.926     0.026     2.649     2.545
    86   1 H        0.926     0.059     2.213     2.326
    87   1 H        0.926     0.054     2.265     2.354
    88   1 H        0.926     0.070     2.082     2.257
    89   1 H        0.926     0.060     2.201     2.320
    90   1 H        0.926     0.021     2.725     2.581
    91   1 H        0.926     0.031     2.571     2.507
    92   1 H        0.926     0.029     2.602     2.522
    93   1 H        0.926     0.028     2.615     2.529
    94   1 H        0.926     0.028     2.612     2.527
    95   1 H        0.926     0.028     2.611     2.527
    96   1 H        0.926     0.029     2.599     2.521
    97   1 H        0.926     0.036     2.503     2.474
    98   1 H        0.925     0.032     2.558     2.501
    99   1 H        0.925     0.040     2.448     2.447
   100   1 H        0.925     0.041     2.436     2.441
   101   1 H        0.925     0.040     2.443     2.444
   102   1 H        0.925     0.041     2.442     2.444
   103   1 H        0.925     0.032     2.562     2.503
   104   1 H        0.926     0.036     2.508     2.477
   105   1 H        0.926     0.030     2.582     2.513
   106   1 H        0.926     0.029     2.606     2.524
   107   1 H        0.926     0.028     2.614     2.528
   108   1 H        0.926     0.028     2.619     2.530
   109   1 H        0.926     0.028     2.608     2.526
   110   1 H        0.926     0.034     2.534     2.489
   111   1 H        0.926     0.026     2.651     2.546
   112   1 H        0.926     0.059     2.211     2.325
   113   1 H        0.926     0.055     2.256     2.349
   114   1 H        0.926     0.071     2.080     2.255
   115   1 H        0.926     0.060     2.201     2.320
   116   1 H        0.926     0.021     2.723     2.581
   117   1 H        0.926     0.031     2.573     2.508
   118   1 H        0.926     0.029     2.604     2.524
   119   1 H        0.926     0.028     2.613     2.528
   120   1 H        0.926     0.028     2.612     2.527
   121   1 H        0.926     0.028     2.612     2.527
   122   1 H        0.926     0.029     2.598     2.520
   123   1 H        0.926     0.036     2.501     2.473

molecular dipole:
                 x           y           z       tot (Debye)
 q only:        0.004      -2.178      -0.101
   full:        0.005      -2.041      -0.092       5.193

 projected vibrational frequencies (cm⁻¹)
eigval :       -0.00    -0.00     0.00     0.00     0.00     0.00
eigval :        0.99     2.40     4.13    15.21    16.75    19.49
eigval :       20.34    21.58    25.93    30.77    31.76    41.26
eigval :       42.27    47.52    48.45    49.62    50.01    53.99
eigval :       57.16    72.35    72.62    79.79    81.83   103.85
eigval :      109.13   114.87   115.50   116.84   123.77   125.29
eigval :      130.40   131.99   133.20   142.59   175.84   186.19
eigval :      187.74   188.04   189.13   190.20   191.59   193.22
eigval :      195.96   209.72   215.74   239.05   240.86   247.79
eigval :      279.23   291.35   293.70   297.98   309.49   315.90
eigval :      319.06   323.09   327.86   335.72   338.48   346.52
eigval :      347.98   362.18   368.58   369.81   372.76   372.82
eigval :      372.92   373.50   376.29   380.68   381.94   384.14
eigval :      403.39   412.31   416.52   417.26   426.65   447.91
eigval :      450.08   454.29   454.92   464.59   469.56   488.13
eigval :      494.25   495.78   496.10   501.02   504.93   512.27
eigval :      513.90   528.18   537.72   577.46   578.70   581.27
eigval :      583.15   583.84   586.14   586.88   589.96   595.36
eigval :      595.97   600.97   601.24   603.91   604.93   616.38
eigval :      616.50   622.66   628.06   667.64   668.00   671.15
eigval :      671.23   680.29   681.19   685.88   686.23   686.83
eigval :      690.31   694.14   694.30   709.88   715.29   715.84
eigval :      726.72   758.01   758.24   758.61   759.15   809.93
eigval :      812.69   824.54   825.48   826.88   827.33   828.28
eigval :      829.46   874.26   874.39   876.54   876.78   876.88
eigval :      876.96   877.47   877.72   889.06   889.72   889.91
eigval :      890.33   902.83   902.98   903.27   903.35   913.03
eigval :      913.28   913.79   914.63   915.40   916.68   917.67
eigval :      919.11   920.55   920.89   929.11   929.28   930.39
eigval :      930.55   930.71   930.93   931.89   931.99   932.01
eigval :      932.02   940.64   940.69   957.64   957.66   981.30
eigval :      981.39   982.43   982.56  1004.72  1007.87  1014.43
eigval :     1014.48  1075.87  1075.91  1081.05  1081.71  1084.98
eigval :     1086.07  1088.34  1088.49  1089.55  1101.69  1101.81
eigval :     1108.73  1108.93  1111.81  1112.51  1116.58  1122.44
eigval :     1122.48  1122.53  1122.56  1131.26  1160.88  1161.00
eigval :     1166.35  1168.08  1168.17  1169.74  1179.44  1179.60
eigval :     1182.89  1182.90  1183.42  1183.46  1199.96  1200.06
eigval :     1201.31  1201.49  1208.66  1208.99  1232.37  1232.49
eigval :     1239.39  1242.53  1249.50  1251.27  1252.80  1258.30
eigval :     1258.54  1269.08  1269.25  1282.97  1283.01  1283.14
eigval :     1283.16  1295.25  1295.38  1299.72  1300.64  1313.92
eigval :     1314.05  1318.68  1318.89  1319.55  1319.59  1325.24
eigval :     1326.82  1328.05  1328.22  1336.78  1337.00  1359.32
eigval :     1359.53  1393.63  1394.26  1403.39  1403.41  1407.60
eigval :     1407.67  1414.65  1414.75  1421.61  1421.62  1436.14
eigval :     1436.18  1437.27  1437.31  1458.35  1459.09  1468.48
eigval :     1468.58  1473.56  1473.99  1489.51  1489.53  1490.78
eigval :     1490.79  1498.48  1498.56  1500.33  1500.35  1504.67
eigval :     1504.74  1507.57  1508.14  1557.96  1558.01  1571.58
eigval :     1572.08  1574.52  1574.60  1577.45  1577.93  1582.44
eigval :     1582.47  1583.65  1583.67  1590.57  1590.61  1595.52
eigval :     1595.73  1603.18  1603.25  1606.15  1606.29  3026.96
eigval :     3027.01  3029.17  3029.23  3040.55  3040.59  3043.35
eigval :     3043.37  3049.74  3049.78  3053.89  3053.93  3069.16
eigval :     3069.51  3069.64  3069.65  3070.84  3070.87  3071.25
eigval :     3071.47  3079.37  3079.39  3079.41  3079.56  3081.52
eigval :     3081.79  3082.99  3083.23  3084.10  3084.29  3087.31
eigval :     3087.59  3090.27  3090.64  3090.84  3091.23  3091.38
eigval :     3091.51  3091.62  3091.74  3091.96  3092.50  3093.10
eigval :     3093.63  3095.72  3096.08  3101.60  3101.66  3102.79
eigval :     3104.29  3106.43  3106.62

   temp. (K)  partition function   enthalpy   heat capacity  entropy
                                   cal/mol     cal/K/mol   cal/K/mol   J/K/mol
 298.15  VIB  0.199E+31            36347.732    222.732    230.396
         ROT  0.406E+09              888.752      2.981     42.371
         INT  0.809E+39            37236.484    225.712    272.768
         TR   0.278E+29             1481.254      4.968     46.367
         TOT                       38717.7380   230.6806   319.1349  1335.2604

       T/K    H(0)-H(T)+PV         H(T)/Eh          T*S/Eh         G(T)/Eh
   ------------------------------------------------------------------------
    298.15    0.617006E-01    0.102864E+01    0.151631E+00    0.877013E+00
   ------------------------------------------------------------------------

         :::::::::::::::::::::::::::::::::::::::::::::::::::::
         ::                  THERMODYNAMIC                  ::
         :::::::::::::::::::::::::::::::::::::::::::::::::::::
         :: total free energy        -184.231632275083 Eh   ::
         ::.................................................::
         :: total energy             -185.108645710014 Eh   ::
         :: zero point energy           0.966944081459 Eh   ::
         :: G(RRHO) w/o ZPVE           -0.089930646528 Eh   ::
         :: G(RRHO) contrib.            0.877013434931 Eh   ::
         :::::::::::::::::::::::::::::::::::::::::::::::::::::

           -------------------------------------------------
          | TOTAL ENERGY             -185.108645710014 Eh   |
          | TOTAL ENTHALPY           -184.080000985696 Eh   |
          | TOTAL FREE ENERGY        -184.231632275083 Eh   |
          | GRADIENT NORM               0.000188691477 Eh/α |
          | HOMO-LUMO GAP               2.060298829718 eV   |
           -------------------------------------------------

 * finished run on 2025/07/17 at 07:09:01.412
