   * xtb version 6.7.1 (edcfbbe) compiled by 'albert@albert-system' on 2024-07-22

   ID    Z sym.   atoms
    1    6 C      1-15, 17-20, 24-27, 29-71
    2    7 N      16, 28
    3   16 S      21
    4    8 O      22, 23
    5    1 H      72-123

          program call               : xtb data2507/gas/PDA-DP/PDA-DP_gas_T1_crest.xyz --gfn 2 --spinpol --tblite --uhf 2 --ohess vtight --parallel 40 --molden --ceasefiles --namespace data2507/gas/PDA-DP/PDA-DP_gas_T1_finalOpt
 * total energy  :  -185.0350739 Eh     change       -0.9192811E-07 Eh
 * total energy  :  -185.0350873 Eh     change       -0.1343455E-04 Eh
 * total energy  :  -185.0350984 Eh     change       -0.1107009E-04 Eh
 * total energy  :  -185.0351016 Eh     change       -0.3192861E-05 Eh
 * total energy  :  -185.0351075 Eh     change       -0.5944808E-05 Eh
 * total energy  :  -185.0351113 Eh     change       -0.3755098E-05 Eh
 * total energy  :  -185.0351158 Eh     change       -0.4504349E-05 Eh
 * total energy  :  -185.0351190 Eh     change       -0.3192659E-05 Eh
 * total energy  :  -185.0351212 Eh     change       -0.2232675E-05 Eh
 * total energy  :  -185.0351243 Eh     change       -0.3066652E-05 Eh
 * total energy  :  -185.0351571 Eh     change       -0.2695451E-06 Eh
 * total energy  :  -185.0351573 Eh     change       -0.2661236E-06 Eh
 * total energy  :  -185.0351576 Eh     change       -0.3152713E-06 Eh
 * total energy  :  -185.0351583 Eh     change       -0.6771572E-06 Eh
 * total energy  :  -185.0351586 Eh     change       -0.3055619E-06 Eh
 * total energy  :  -185.0351586 Eh     change        0.4156274E-07 Eh
 * total energy  :  -185.0351588 Eh     change       -0.1759605E-06 Eh
 * total energy  :  -185.0351589 Eh     change       -0.1795663E-06 Eh
 * total energy  :  -185.0351590 Eh     change       -0.4324320E-07 Eh
   *** GEOMETRY OPTIMIZATION CONVERGED AFTER 47 ITERATIONS ***

 final structure:
================
123
 xtb: 6.7.1 (edcfbbe)
C            4.80390365298945        2.76362183305721        0.29419595795126
C            4.49595048384763        1.80718082090760       -0.87210120232679
C            4.93954352825715        2.43621204901540       -2.20606536132387
C            3.00030731331554        1.56575121024270       -0.92851266972509
C            2.14182264909099        2.63495279456234       -1.11730116774306
C            0.75943456576586        2.48542468303396       -1.20705252647941
C           -0.11735813372485        3.64582207895917       -1.38280930374050
C           -1.26584389298230        3.55869207601218       -2.16909344796106
C           -2.10315656339727        4.64733175877791       -2.32109960204318
C           -1.81804451840092        5.84180222185483       -1.67999577065388
C           -0.67800508892710        5.94276934195573       -0.89967383743976
C            0.16901217222210        4.86065089949449       -0.75999778696629
C            0.23637767021849        1.19577993146936       -1.11158748997220
C            1.06220158771942        0.11864607923809       -0.89842311830040
C            2.45033943258628        0.28132447925263       -0.79611323569552
N            3.25326975802196       -0.81486017854458       -0.55922764877839
C            2.63808673726055       -2.08147864162736       -0.33763692786099
C            2.28100952295596       -2.88665503700820       -1.42119426189774
C            1.62422575280537       -4.07643715531216       -1.20024727549037
C            1.33513897327425       -4.47802746560066        0.10278032871407
S            0.11364450490640       -5.74968282175856        0.35538472865219
O            0.31616180215702       -6.40907494231984        1.61956057275264
O            0.00204348490272       -6.55528484061585       -0.83301773060338
C           -1.24616245067059       -4.61136398605230        0.48195587324023
C           -1.66225691082977       -3.95085569485277       -0.67461725744307
C           -2.38683350163189       -2.78806119357226       -0.57511521520657
C           -2.70151464946237       -2.27144913235648        0.68848308399348
N           -3.32699607007105       -0.99605048523234        0.77185906124189
C           -4.63892092552560       -0.87343524269330        0.39584073829554
C           -5.40697490626236       -2.03069621103147        0.15253990672179
C           -6.71612625303357       -1.94140613736397       -0.23026839151896
C           -7.33105960987107       -0.68854362589635       -0.40644746308814
C           -8.71615754477186       -0.57731601348108       -0.83700742816575
C           -9.14037563448072        0.49021926267774       -1.63860856650342
C          -10.45329361770487        0.59066250934653       -2.04886211637170
C          -11.38271031583703       -0.36506826076402       -1.66613014284006
C          -10.97990733072354       -1.42735996660862       -0.87024716381125
C           -9.66637766882790       -1.53637394596489       -0.46416443058105
C           -6.56091274799984        0.45300644832767       -0.14526416650331
C           -5.24587302282637        0.39475163831100        0.26199721177428
C           -4.48325633619537        1.67150642327014        0.54406076680002
C           -4.44315189493270        2.51054511874528       -0.74612135987467
C           -5.21569064972027        2.44699355008643        1.65623240902967
C           -3.06569316349897        1.40506199078653        1.00690529748052
C           -2.24081111392211        2.46033627689783        1.32447021836689
C           -0.92446078348641        2.29954398485275        1.79080936609534
C           -0.10050529002149        3.43609127473006        2.14718062661897
C           -0.66884341297767        4.66321164776697        2.52708872674910
C            0.11855524021668        5.74172003602176        2.86543050466290
C            1.50233727067348        5.63902290201799        2.84008709716868
C            2.08474694018728        4.43346372501395        2.47257213798294
C            1.30206084649812        3.35163320245706        2.13267273830175
C           -0.44741452900147        0.97727057217249        1.90033621829094
C           -1.23080421078803       -0.08836820214724        1.56125159919698
C           -2.55754212656323        0.08917082606551        1.11645442704991
C           -2.34470948140603       -2.97171249697787        1.84523944489305
C           -1.60878585459163       -4.12935836054506        1.73997691547983
C            1.72074433322673       -3.69245877606210        1.18675377364813
C            2.37373432783062       -2.50054775348884        0.97024379228823
C            4.62665459888692       -0.71529390055593       -0.50447223888850
C            5.39564809634572       -1.86928962428170       -0.30261566958990
C            6.76702769342858       -1.80545614185848       -0.25000001373148
C            7.42552948295109       -0.58542769520018       -0.40714718739280
C            8.88898319899427       -0.50241784715494       -0.36440630994007
C            9.58160186588343        0.33729052236310       -1.23583135552050
C           10.96094874815404        0.41053432215723       -1.19703131423837
C           11.67394716745373       -0.34863633278228       -0.28392272391698
C           10.99716084343576       -1.18535658531703        0.58819121514838
C            9.61824326777586       -1.26479364474696        0.54722475163655
C            6.65262687617319        0.55483892870158       -0.61022782347785
C            5.26965755238987        0.52132644548988       -0.65990267312002
H            4.49871376920314        2.31005457712987        1.23540937627634
H            5.86762919267375        2.97832961545423        0.34795203178987
H            4.27087530108594        3.70237926440809        0.17332176390256
H            4.40503587790537        3.36308509523342       -2.39368559958737
H            6.00377099760685        2.65343043221542       -2.19731399626114
H            4.73475371366705        1.74989286907508       -3.02549809985078
H            2.55121108159217        3.62787558280002       -1.22033529855792
H           -1.48870071432386        2.63653808451172       -2.68533716563607
H           -2.98252338543614        4.56541704435745       -2.94381108729566
H           -2.47805664304791        6.68940235077322       -1.79193631071320
H           -0.44746615764407        6.86948954148244       -0.39479655778791
H            1.04503936288922        4.95002738512840       -0.13648143278055
H           -0.82978312192556        1.04116766542323       -1.16968327405473
H            0.63552389163509       -0.86743499793208       -0.79995658418294
H            2.51225665534985       -2.55659509584749       -2.42327795609819
H            1.32342824189152       -4.71763973995658       -2.01319348970198
H           -1.38581294030363       -4.36215173834305       -1.63206159920263
H           -2.69918763045019       -2.24938065521913       -1.45776281672367
H           -4.94723190270609       -2.99858884716180        0.27875229507659
H           -7.27315802160231       -2.84392506752295       -0.42737694670814
H           -8.42268499466870        1.22650287304508       -1.96962983458265
H          -10.75744054458188        1.41651748416519       -2.67591312339019
H          -12.41058118576099       -0.28341716031773       -1.98599209803826
H          -11.69929195854118       -2.17278001591528       -0.56331462162802
H           -9.37325642017688       -2.35484473818444        0.17633938319590
H           -7.03908643650175        1.41516871848858       -0.24252552100821
H           -3.88452554501418        3.42961013265653       -0.59492692784277
H           -3.96123028571296        1.94548202013498       -1.54144960153385
H           -5.44814957838610        2.76777730249212       -1.06843239421047
H           -5.22812069713007        1.85883297713564        2.57173335041776
H           -4.71691207423007        3.39001924844485        1.85963093087387
H           -6.24197250048115        2.65896473271330        1.37093418957956
H           -2.60806520337748        3.46468669982338        1.18735007336825
H           -1.74187103059900        4.76102317086422        2.58853585216978
H           -0.34559825417970        6.67205981803437        3.16014032537278
H            2.11864617850452        6.48466585131824        3.10579094314063
H            3.16165045999193        4.34440671938771        2.45041340164011
H            1.77813167166127        2.43714498021117        1.81380294375561
H            0.54628881392375        0.79230506256731        2.27529457207836
H           -0.82748336491891       -1.08508865752842        1.64113002113224
H           -2.63247193211333       -2.58065229090922        2.81010972408013
H           -1.29125026315135       -4.68033392168641        2.61069623499850
H            1.48969438602332       -4.03662254717383        2.18231624476438
H            2.67598388313446       -1.87424884616726        1.79670538903632
H            4.89892025216889       -2.82088356091787       -0.19489653053240
H            7.33709048935823       -2.71152669511680       -0.11304058071092
H            9.03446068138157        0.91582822215008       -1.96611504549085
H           11.48358246017972        1.06013701359039       -1.88419315759101
H           12.75172132615531       -0.28934035956290       -0.25303169396686
H           11.54771957076594       -1.77743824607041        1.30469333237392
H            9.09600869267187       -1.90602467200639        1.24213454960372
H            7.16237118460412        1.50100104696445       -0.70871679896992

 projected vibrational frequencies (cm⁻¹)
eigval :       -0.00    -0.00    -0.00     0.00     0.00     0.00
eigval :        8.25    15.06    17.69    19.04    23.20    25.04
eigval :       28.78    35.07    40.62    41.86    42.02    47.34
eigval :       50.27    52.13    53.02    66.18    70.23    70.92
eigval :       77.42    79.44    85.48    90.41    94.39   104.38
eigval :      106.98   113.67   117.51   126.51   132.46   136.30
eigval :      138.51   140.10   144.83   149.83   175.13   184.86
eigval :      187.37   188.07   191.15   193.64   195.23   199.90
eigval :      201.69   214.91   220.65   242.33   248.39   252.98
eigval :      284.81   288.03   292.33   292.68   306.04   309.04
eigval :      315.58   319.94   322.38   328.53   335.49   343.45
eigval :      349.00   355.90   363.64   367.59   370.43   370.85
eigval :      371.34   372.59   372.97   375.71   379.29   383.16
eigval :      399.97   407.71   409.20   415.79   419.56   442.64
eigval :      448.62   451.34   455.94   463.13   466.79   472.29
eigval :      483.98   488.58   493.52   499.48   507.11   510.14
eigval :      512.83   514.19   520.87   570.76   574.45   575.17
eigval :      579.20   580.55   583.70   584.19   586.55   588.82
eigval :      591.38   594.57   600.14   601.71   603.27   604.12
eigval :      616.37   617.88   623.92   653.79   655.39   660.03
eigval :      662.33   667.34   670.94   672.15   672.54   678.92
eigval :      684.19   688.94   697.36   706.26   707.22   712.61
eigval :      717.12   744.87   749.56   757.74   759.83   789.17
eigval :      794.33   808.93   817.82   820.00   824.96   827.34
eigval :      830.12   852.34   853.38   858.88   862.76   868.15
eigval :      872.99   875.05   875.51   877.46   880.70   881.36
eigval :      887.67   889.40   892.11   895.91   899.18   901.85
eigval :      903.53   903.77   904.72   908.47   910.69   911.39
eigval :      913.41   914.40   915.23   917.02   921.06   921.41
eigval :      925.00   925.23   926.04   930.48   931.93   933.19
eigval :      933.69   937.43   940.47   959.53   959.61   963.78
eigval :      971.28   979.59   980.18   988.96   994.31  1014.73
eigval :     1014.93  1060.42  1064.90  1066.99  1072.08  1074.55
eigval :     1076.02  1080.43  1081.59  1084.98  1086.10  1088.04
eigval :     1091.23  1096.17  1104.54  1107.07  1110.61  1115.72
eigval :     1122.65  1123.82  1124.10  1126.23  1149.93  1154.61
eigval :     1156.43  1163.32  1163.75  1169.32  1171.52  1176.29
eigval :     1181.30  1182.04  1182.37  1183.02  1191.61  1195.63
eigval :     1201.53  1202.35  1208.37  1211.77  1218.96  1227.01
eigval :     1228.87  1233.44  1239.67  1241.91  1244.18  1245.20
eigval :     1254.99  1257.21  1260.48  1281.71  1282.35  1283.13
eigval :     1284.30  1284.43  1291.06  1293.23  1298.65  1307.61
eigval :     1319.58  1321.36  1322.40  1323.99  1324.88  1326.64
eigval :     1329.06  1329.51  1332.18  1339.79  1344.64  1345.45
eigval :     1348.16  1398.03  1400.04  1401.48  1402.32  1402.85
eigval :     1407.87  1410.76  1412.40  1419.90  1420.96  1424.49
eigval :     1426.76  1428.61  1431.51  1434.07  1434.58  1436.43
eigval :     1441.20  1445.05  1448.09  1453.71  1453.98  1456.35
eigval :     1457.91  1469.53  1474.36  1487.05  1487.45  1487.68
eigval :     1488.67  1488.71  1495.61  1497.93  1498.65  1500.44
eigval :     1502.33  1509.35  1515.43  1528.43  1532.94  1535.76
eigval :     1548.71  1549.94  1558.01  1571.86  1575.93  1578.68
eigval :     1580.35  1585.22  1592.79  1598.24  1601.14  3026.44
eigval :     3029.47  3030.09  3031.64  3041.94  3044.05  3044.76
eigval :     3046.67  3050.45  3053.04  3054.52  3056.51  3070.03
eigval :     3070.25  3070.57  3071.53  3071.81  3073.29  3074.19
eigval :     3076.14  3080.16  3081.28  3081.43  3082.15  3082.30
eigval :     3083.20  3083.53  3085.58  3086.40  3087.18  3089.61
eigval :     3090.26  3091.51  3092.24  3092.30  3093.51  3093.75
eigval :     3094.21  3094.50  3094.83  3096.00  3099.96  3101.48
eigval :     3103.55  3104.05  3104.72  3105.28  3105.44  3106.70
eigval :     3108.07  3109.23  3111.65

   temp. (K)  partition function   enthalpy   heat capacity  entropy
                                   cal/mol     cal/K/mol   cal/K/mol   J/K/mol
 298.15  VIB  0.198E+29            36757.089    228.203    229.501
         ROT  0.241E+09              888.752      2.981     41.339
         INT  0.479E+37            37645.842    231.184    270.840
         TR   0.278E+29             1481.254      4.968     46.367
         TOT                       39127.0956   236.1523   317.2071  1327.1944

       T/K    H(0)-H(T)+PV         H(T)/Eh          T*S/Eh         G(T)/Eh
   ------------------------------------------------------------------------
    298.15    0.623530E-01    0.102499E+01    0.150715E+00    0.874272E+00
   ------------------------------------------------------------------------

         :::::::::::::::::::::::::::::::::::::::::::::::::::::
         ::                  THERMODYNAMIC                  ::
         :::::::::::::::::::::::::::::::::::::::::::::::::::::
         :: total free energy        -184.160886707589 Eh   ::
         ::.................................................::
         :: total energy             -185.035159034102 Eh   ::
         :: zero point energy           0.962634643327 Eh   ::
         :: G(RRHO) w/o ZPVE           -0.088362316815 Eh   ::
         :: G(RRHO) contrib.            0.874272326512 Eh   ::
         :::::::::::::::::::::::::::::::::::::::::::::::::::::

           -------------------------------------------------
          | TOTAL ENERGY             -185.035159034102 Eh   |
          | TOTAL ENTHALPY           -184.010171394942 Eh   |
          | TOTAL FREE ENERGY        -184.160886707589 Eh   |
          | GRADIENT NORM               0.000072513005 Eh/α |
           -------------------------------------------------

 * finished run on 2025/07/17 at 07:41:44.165
