   * xtb version 6.7.1 (edcfbbe) compiled by 'albert@albert-system' on 2024-07-22

   ID    Z sym.   atoms
    1    6 C      1-15, 17-20, 24-27, 29-71
    2    7 N      16, 28
    3   16 S      21
    4    8 O      22, 23
    5    1 H      72-123

          program call               : xtb data2507/gas/PDA-DP/PDA-DP_gas_S0_crest.xyz --gfn 2 --ohess vtight --parallel 40 --molden --ceasefiles --namespace data2507/gas/PDA-DP/PDA-DP_gas_S0_finalOpt
          :  Hamiltonian                  GFN2-xTB          :
 * total energy  :  -185.1168214 Eh     change       -0.3599325E-08 Eh
 * total energy  :  -185.1168236 Eh     change       -0.2261607E-05 Eh
 * total energy  :  -185.1168271 Eh     change       -0.3507791E-05 Eh
 * total energy  :  -185.1168300 Eh     change       -0.2910129E-05 Eh
 * total energy  :  -185.1168324 Eh     change       -0.2309986E-05 Eh
 * total energy  :  -185.1168363 Eh     change       -0.3909423E-05 Eh
 * total energy  :  -185.1168413 Eh     change       -0.5042234E-05 Eh
 * total energy  :  -185.1168448 Eh     change       -0.3524270E-05 Eh
 * total energy  :  -185.1168470 Eh     change       -0.2175190E-05 Eh
 * total energy  :  -185.1168489 Eh     change       -0.1893919E-05 Eh
 * total energy  :  -185.1170128 Eh     change       -0.2894697E-06 Eh
 * total energy  :  -185.1170131 Eh     change       -0.3244690E-06 Eh
 * total energy  :  -185.1170135 Eh     change       -0.3480954E-06 Eh
 * total energy  :  -185.1170138 Eh     change       -0.3680946E-06 Eh
 * total energy  :  -185.1170143 Eh     change       -0.4237417E-06 Eh
 * total energy  :  -185.1170147 Eh     change       -0.4850128E-06 Eh
 * total energy  :  -185.1170152 Eh     change       -0.5068480E-06 Eh
 * total energy  :  -185.1170157 Eh     change       -0.4775578E-06 Eh
 * total energy  :  -185.1170157 Eh     change       -0.5738684E-08 Eh
   *** GEOMETRY OPTIMIZATION CONVERGED AFTER 122 ITERATIONS ***

 final structure:
================
123
 xtb: 6.7.1 (edcfbbe)
C            5.77938919471454        2.51602284538821        0.66732303448498
C            5.48176081563178        1.59147449618535       -0.52687158901159
C            6.14106044487207        2.14125607960936       -1.80455525207684
C            3.97987311122593        1.53973521893508       -0.73975196687484
C            3.29093089101775        2.70783346243047       -1.02255843868382
C            1.91841376424768        2.74051211817496       -1.25475477433044
C            1.23449158815650        4.00508328521571       -1.55044785771425
C            0.15732481332258        4.04490481778159       -2.43406872590305
C           -0.46611764565975        5.24005738018875       -2.73677449717129
C           -0.02275735936245        6.42180914475523       -2.16878321774097
C            1.03881678260537        6.39540992811719       -1.28099397274929
C            1.65606038085066        5.19983155070303       -0.96934570860113
C            1.22771060199959        1.53242174089346       -1.21518185779887
C            1.88426195285319        0.35911392055963       -0.91833094180956
C            3.25949980942305        0.34318907196914       -0.66772264369188
N            3.89436585250983       -0.85201582190933       -0.36845498489896
C            3.09949408016203       -2.02202891802702       -0.25682856193110
C            2.93839319217860       -2.86299050923245       -1.35325420021597
C            2.06767543230916       -3.93578018341424       -1.27138801981258
C            1.38494749307509       -4.16450328309871       -0.09287477473236
S            0.01863549025789       -5.33205275001312       -0.05562895599385
O            0.03231371293991       -6.08742539150187        1.16652201299586
O           -0.02872750253852       -6.04011469110815       -1.30499084906771
C           -1.29803189150918       -4.11009004679931        0.02541276567321
C           -1.43468621257890       -3.23697165790420       -1.03846952938940
C           -2.29230485603340       -2.15947110222551       -0.92536162311410
C           -3.00194164175386       -1.96031292571674        0.25712483468221
N           -3.82795476062670       -0.81763141713202        0.39310928514012
C           -5.20562349473983       -0.95765387650013        0.30991456142102
C           -5.76203698365517       -2.21714080533601        0.07080727994685
C           -7.12581333939581       -2.38888957949604       -0.00512226156640
C           -7.98271737960889       -1.30165547010032        0.13776112301917
C           -9.43986793190352       -1.46685236761562        0.06080731898753
C          -10.23049372455315       -0.53489195456158       -0.60837052496171
C          -11.60163289124099       -0.69429501917262       -0.67912967724100
C          -12.20833431341666       -1.78542831130426       -0.08000060084689
C          -11.43310542737331       -2.71834857006233        0.58824303534536
C          -10.06154776526904       -2.56229180447640        0.65670733377832
C           -7.41700890094488       -0.04867523972503        0.34766019288664
C           -6.04856258389785        0.15063817037459        0.43646562871795
C           -5.51379150449781        1.55412839398227        0.65071349327839
C           -5.97427511797327        2.43834892245836       -0.52202445787865
C           -6.06963173496262        2.09751731373900        1.97956573527906
C           -3.99821980964886        1.57819571572675        0.71767696265444
C           -3.34703393984844        2.78461419402951        0.91740461482028
C           -1.96433262811352        2.88742368101292        1.04005895199760
C           -1.32600854907624        4.19017603366580        1.26282831347420
C           -1.83769026062958        5.34663514457181        0.67717282546493
C           -1.26740318590664        6.57922409114425        0.92898076235521
C           -0.16792117197744        6.68159215690594        1.76369795137867
C            0.36483653213110        5.53813427452947        2.33346594113642
C           -0.20814838384098        4.30537167085085        2.08705367590126
C           -1.22165700639707        1.71203249002378        0.97934193578832
C           -1.84181827780949        0.50193892083880        0.76113943703459
C           -3.22896854870024        0.41508436900204        0.61044018067875
C           -2.87974822981602       -2.86465983527900        1.30819877471235
C           -2.01656775081031       -3.94011142868181        1.19247789117023
C            1.57449297894028       -3.36454521009481        1.01895516135893
C            2.43995131648540       -2.28996387938571        0.94001956928335
C            5.26112674540359       -0.92498934495957       -0.15723929050815
C            5.84826427354991       -2.15648889766676        0.14350295997029
C            7.20439146671369       -2.26188202906397        0.35627123821678
C            8.02075894789881       -1.13810298512935        0.26879305077304
C            9.47056274593117       -1.23262195442580        0.48298009281684
C           10.35749770455089       -0.51770461995004       -0.31941261324466
C           11.72185760796571       -0.60933170609256       -0.11806867351159
C           12.22500025632558       -1.41370851735672        0.89063145081249
C           11.35339053398607       -2.12827663011115        1.69533942822986
C            9.98898308870229       -2.04066242877500        1.49282297639513
C            7.42336742277200        0.08352547397083       -0.02461141729290
C            6.06059055953037        0.21946111026309       -0.23376462118351
H            5.30236922461840        2.12694735591063        1.56501483208765
H            6.84829326227730        2.58293964488825        0.84975081981179
H            5.40199448371382        3.51834759308522        0.48478210922819
H            7.21742700744183        2.22157121784810       -1.68150240640023
H            5.93898441591979        1.47505964492653       -2.64122423589728
H            5.75310443529118        3.12588066321098       -2.05007082904800
H            3.83951851542096        3.63426153445582       -1.09215022347182
H           -0.17899806676138        3.13444765830471       -2.90788070366489
H           -1.29642764388185        5.25114014339290       -3.42842255786484
H           -0.50279152698515        7.35734813442176       -2.41508233332129
H            1.38643334443898        7.31185157232398       -0.82712116165880
H            2.46360460815171        5.19096755608952       -0.25227810941449
H            0.16365228083420        1.50976744314918       -1.39279974846385
H            1.32194054052412       -0.56226336639532       -0.88126188838222
H            3.47296877320052       -2.65137144177853       -2.26698716007967
H            1.89223935848588       -4.59179748929379       -2.10975194114362
H           -0.86772263434815       -3.41084284909092       -1.93972456610529
H           -2.40660818184443       -1.45524084473676       -1.73558329459431
H           -5.11439472895841       -3.06991105423403       -0.06489586562445
H           -7.52731277241896       -3.37113404328004       -0.20363976489022
H           -9.76265406428372        0.30835309696841       -1.09585164841500
H          -12.20046847010309        0.03409708825149       -1.20688959602177
H          -13.27991341769555       -1.90859480660754       -0.13443801127033
H          -11.90084348814978       -3.57035407480513        1.06028161623958
H           -9.46411307246340       -3.28473759011704        1.19375791921678
H           -8.08148122312721        0.79377382578621        0.46455561861130
H           -5.61541632585025        3.45693485068480       -0.40385819152729
H           -5.58587218501596        2.04322943638970       -1.45894871685465
H           -7.05845924240177        2.46605761773281       -0.58456404575410
H           -5.73723674301877        1.46916493297730        2.80375156691622
H           -5.72283903791333        3.11097194403555        2.16094549710691
H           -7.15596078711902        2.10581404101841        1.97192170203123
H           -3.93279784768824        3.68576784607793        1.01218246983652
H           -2.67942916928242        5.27752485431718        0.00389610670058
H           -1.68216247310001        7.46537276453609        0.47091063149510
H            0.27294969733275        7.64646533504626        1.96686772459110
H            1.22635254509255        5.60875231003614        2.98213111377011
H            0.19951136082276        3.42389786146180        2.55975536005579
H           -0.14791773212548        1.74340977137210        1.08128260759610
H           -1.24035219404781       -0.39379783178522        0.71389875054925
H           -3.44774919019074       -2.70616084641920        2.21256205982203
H           -1.87816689748038       -4.64711047127371        1.99552194346951
H            1.03392929421989       -3.58720029569288        1.92562062565085
H            2.59065126526441       -1.63563984095871        1.78530831852357
H            5.22903924316992       -3.03859284239606        0.20942850391212
H            7.63580051047818       -3.22818348346955        0.56968230978456
H            9.97337445726513        0.09646541877562       -1.12122572769236
H           12.39696665272052       -0.05337885581854       -0.75276813550517
H           13.29113821683198       -1.48396345785528        1.04828548587580
H           11.73967867483628       -2.75506464168953        2.48621035168239
H            9.31380172789216       -2.58754179754219        2.13496153871916
H            8.05404548254056        0.95854633215204       -0.06540231612343

          :  Hamiltonian                  GFN2-xTB          :
         :: gradient norm              0.000057042110 Eh/a0 ::
         :: HOMO-LUMO gap              1.925820402052 eV    ::
         :: SCC energy              -188.449144332888 Eh    ::
         :: -> dispersion             -0.188049332783 Eh    ::
         :: repulsion energy           3.332128600043 Eh    ::

    * Orbital Energies and Occupations

         #    Occupation            Energy/Eh            Energy/eV
      -------------------------------------------------------------
         1        2.0000           -0.7772835             -21.1510
       ...           ...                  ...                  ...
       160        2.0000           -0.4032469             -10.9729
       161        2.0000           -0.4030000             -10.9662
       162        2.0000           -0.4025896             -10.9550
       163        2.0000           -0.4023097             -10.9474
       164        2.0000           -0.4020859             -10.9413
       165        2.0000           -0.4004737             -10.8974
       166        2.0000           -0.3995500             -10.8723
       167        2.0000           -0.3958176             -10.7707
       168        2.0000           -0.3946761             -10.7397
       169        2.0000           -0.3861279             -10.5071
       170        2.0000           -0.3850199             -10.4769
       171        2.0000           -0.3503685              -9.5340
       172        2.0000           -0.3497648              -9.5176 (HOMO)
       173                         -0.2789921              -7.5918 (LUMO)
       174                         -0.2641450              -7.1878
       175                         -0.2598896              -7.0720
       176                         -0.2582993              -7.0287
       177                         -0.2489165              -6.7734
       178                         -0.2485370              -6.7630
       179                         -0.2340543              -6.3689
       180                         -0.2334518              -6.3525
       181                         -0.2254190              -6.1340
       182                         -0.2235816              -6.0840
       183                         -0.2231766              -6.0729
       ...                                ...                  ...
       341                          1.2138769              33.0313
      -------------------------------------------------------------
                  HL-Gap            0.0707726 Eh            1.9258 eV

     #   Z          covCN         q      C6AA      α(0)
     1   6 C        3.761    -0.103    22.510     6.763
     2   6 C        3.909     0.022    20.151     6.380
     3   6 C        3.761    -0.103    22.521     6.765
     4   6 C        2.977    -0.013    28.343     8.733
     5   6 C        2.934    -0.041    29.024     8.835
     6   6 C        2.973    -0.003    28.096     8.695
     7   6 C        2.976     0.010    27.780     8.646
     8   6 C        2.926    -0.035    28.870     8.811
     9   6 C        2.919    -0.030    28.750     8.793
    10   6 C        2.920    -0.031    28.782     8.798
    11   6 C        2.919    -0.029    28.715     8.787
    12   6 C        2.926    -0.034    28.848     8.808
    13   6 C        2.925    -0.036    28.905     8.817
    14   6 C        2.921    -0.060    29.501     8.907
    15   6 C        2.931     0.055    26.774     8.486
    16   7 N        2.755    -0.069    22.572     7.056
    17   6 C        2.930     0.079    26.234     8.400
    18   6 C        2.923    -0.033    28.821     8.804
    19   6 C        2.952    -0.025    28.634     8.777
    20   6 C        2.971    -0.079    29.963     8.979
    21  16 S        3.823     0.955   107.946    17.487
    22   8 O        0.860    -0.532    24.514     6.638
    23   8 O        0.860    -0.532    24.515     6.638
    24   6 C        2.971    -0.080    29.987     8.982
    25   6 C        2.963    -0.029    28.727     8.791
    26   6 C        2.924    -0.033    28.831     8.805
    27   6 C        2.929     0.078    26.250     8.402
    28   7 N        2.754    -0.067    22.540     7.051
    29   6 C        2.928     0.055    26.769     8.485
    30   6 C        2.922    -0.060    29.487     8.905
    31   6 C        2.925    -0.037    28.912     8.818
    32   6 C        2.975    -0.003    28.092     8.694
    33   6 C        2.977     0.011    27.776     8.645
    34   6 C        2.925    -0.035    28.876     8.812
    35   6 C        2.918    -0.030    28.755     8.794
    36   6 C        2.920    -0.032    28.801     8.801
    37   6 C        2.918    -0.030    28.745     8.792
    38   6 C        2.926    -0.035    28.867     8.811
    39   6 C        2.934    -0.041    29.020     8.835
    40   6 C        2.978    -0.013    28.339     8.732
    41   6 C        3.909     0.022    20.151     6.380
    42   6 C        3.761    -0.103    22.505     6.763
    43   6 C        3.761    -0.104    22.531     6.767
    44   6 C        2.978    -0.013    28.336     8.732
    45   6 C        2.934    -0.041    29.023     8.835
    46   6 C        2.974    -0.003    28.087     8.693
    47   6 C        2.976     0.011    27.776     8.645
    48   6 C        2.926    -0.034    28.848     8.808
    49   6 C        2.919    -0.029    28.717     8.788
    50   6 C        2.920    -0.031    28.779     8.797
    51   6 C        2.919    -0.030    28.741     8.791
    52   6 C        2.926    -0.034    28.857     8.810
    53   6 C        2.925    -0.036    28.906     8.817
    54   6 C        2.921    -0.060    29.488     8.905
    55   6 C        2.929     0.054    26.778     8.486
    56   6 C        2.923    -0.034    28.838     8.807
    57   6 C        2.951    -0.025    28.636     8.777
    58   6 C        2.965    -0.029    28.721     8.791
    59   6 C        2.924    -0.033    28.821     8.804
    60   6 C        2.928     0.055    26.761     8.484
    61   6 C        2.922    -0.060    29.487     8.905
    62   6 C        2.924    -0.037    28.910     8.818
    63   6 C        2.975    -0.003    28.102     8.696
    64   6 C        2.977     0.011    27.777     8.645
    65   6 C        2.925    -0.035    28.878     8.813
    66   6 C        2.918    -0.030    28.756     8.794
    67   6 C        2.920    -0.032    28.804     8.801
    68   6 C        2.918    -0.030    28.747     8.792
    69   6 C        2.925    -0.035    28.870     8.811
    70   6 C        2.933    -0.041    29.018     8.835
    71   6 C        2.978    -0.014    28.351     8.734
    72   1 H        0.925     0.031     2.569     2.506
    73   1 H        0.925     0.041     2.439     2.442
    74   1 H        0.925     0.040     2.452     2.449
    75   1 H        0.925     0.040     2.445     2.445
    76   1 H        0.925     0.032     2.561     2.503
    77   1 H        0.925     0.040     2.443     2.444
    78   1 H        0.926     0.036     2.498     2.472
    79   1 H        0.926     0.028     2.617     2.530
    80   1 H        0.926     0.027     2.627     2.535
    81   1 H        0.926     0.027     2.623     2.533
    82   1 H        0.926     0.028     2.621     2.532
    83   1 H        0.926     0.028     2.618     2.530
    84   1 H        0.926     0.033     2.542     2.493
    85   1 H        0.926     0.014     2.822     2.627
    86   1 H        0.926     0.061     2.184     2.311
    87   1 H        0.926     0.070     2.082     2.256
    88   1 H        0.926     0.054     2.271     2.357
    89   1 H        0.926     0.059     2.215     2.327
    90   1 H        0.926     0.024     2.675     2.558
    91   1 H        0.926     0.033     2.542     2.493
    92   1 H        0.926     0.028     2.609     2.526
    93   1 H        0.926     0.028     2.617     2.530
    94   1 H        0.926     0.028     2.614     2.528
    95   1 H        0.926     0.028     2.608     2.526
    96   1 H        0.926     0.030     2.589     2.516
    97   1 H        0.926     0.036     2.508     2.476
    98   1 H        0.925     0.040     2.452     2.449
    99   1 H        0.925     0.032     2.563     2.504
   100   1 H        0.925     0.040     2.448     2.447
   101   1 H        0.925     0.032     2.562     2.503
   102   1 H        0.925     0.041     2.439     2.442
   103   1 H        0.925     0.041     2.434     2.440
   104   1 H        0.926     0.036     2.498     2.471
   105   1 H        0.926     0.028     2.615     2.529
   106   1 H        0.926     0.028     2.619     2.531
   107   1 H        0.926     0.027     2.622     2.532
   108   1 H        0.926     0.027     2.626     2.534
   109   1 H        0.926     0.028     2.615     2.529
   110   1 H        0.926     0.034     2.534     2.489
   111   1 H        0.926     0.016     2.790     2.612
   112   1 H        0.926     0.061     2.190     2.314
   113   1 H        0.926     0.070     2.085     2.258
   114   1 H        0.926     0.056     2.247     2.344
   115   1 H        0.926     0.059     2.212     2.326
   116   1 H        0.926     0.023     2.691     2.565
   117   1 H        0.926     0.033     2.546     2.495
   118   1 H        0.926     0.029     2.607     2.525
   119   1 H        0.926     0.028     2.619     2.531
   120   1 H        0.926     0.028     2.616     2.529
   121   1 H        0.926     0.028     2.611     2.527
   122   1 H        0.926     0.030     2.591     2.517
   123   1 H        0.926     0.035     2.513     2.479

molecular dipole:
                 x           y           z       tot (Debye)
 q only:       -0.020       2.240       0.074
   full:       -0.014       2.067       0.073       5.258

 projected vibrational frequencies (cm⁻¹)
eigval :       -0.00    -0.00    -0.00     0.00     0.00     0.00
eigval :        1.20     5.20     7.76    15.00    18.55    20.61
eigval :       23.09    26.50    29.30    35.71    41.06    41.97
eigval :       43.45    47.32    49.12    51.20    61.83    62.57
eigval :       69.89    73.78    77.82    81.25    99.13   106.92
eigval :      108.75   112.88   115.72   122.20   124.63   130.97
eigval :      131.30   137.84   139.72   146.93   177.48   182.93
eigval :      186.97   188.61   189.45   190.61   191.85   193.22
eigval :      196.71   210.41   215.55   242.24   243.62   249.89
eigval :      283.24   290.39   292.46   298.17   311.86   315.14
eigval :      318.21   319.39   322.61   336.08   339.28   346.90
eigval :      355.11   361.96   364.41   368.69   372.93   373.17
eigval :      373.32   375.17   375.79   378.51   384.02   392.91
eigval :      397.05   410.66   416.24   419.15   436.20   439.22
eigval :      450.49   453.72   457.12   465.70   467.52   487.23
eigval :      490.16   492.89   496.57   501.44   506.60   511.31
eigval :      512.87   525.28   539.11   577.38   578.43   580.99
eigval :      583.47   584.39   586.14   587.46   590.08   595.76
eigval :      596.77   600.30   601.77   602.71   604.37   615.54
eigval :      617.15   623.58   626.67   666.82   667.81   669.43
eigval :      670.29   679.95   680.64   685.11   685.50   686.50
eigval :      692.30   693.27   693.79   711.46   714.05   715.66
eigval :      727.26   755.39   758.42   758.74   759.98   808.26
eigval :      812.98   823.86   825.36   825.50   827.69   828.83
eigval :      834.45   872.05   872.66   874.32   874.84   875.61
eigval :      876.59   876.91   877.05   887.75   889.04   889.39
eigval :      889.97   900.26   901.06   903.07   903.11   911.70
eigval :      913.98   914.11   914.51   915.43   916.84   919.38
eigval :      919.80   920.29   927.43   927.86   927.94   929.04
eigval :      929.25   930.58   930.76   931.95   931.97   933.60
eigval :      936.45   940.74   940.97   957.60   957.62   980.88
eigval :      981.14   982.06   982.30  1004.89  1007.76  1014.30
eigval :     1014.37  1075.83  1076.28  1081.23  1081.70  1085.66
eigval :     1086.73  1089.28  1089.86  1090.84  1100.20  1101.05
eigval :     1108.21  1108.82  1109.82  1110.56  1114.79  1122.45
eigval :     1122.47  1124.77  1125.15  1135.78  1161.28  1161.53
eigval :     1164.53  1166.32  1167.93  1168.86  1177.93  1180.55
eigval :     1181.96  1183.03  1183.14  1186.31  1200.36  1200.52
eigval :     1203.00  1203.60  1211.18  1212.24  1232.64  1232.90
eigval :     1240.56  1241.73  1249.96  1251.43  1254.28  1258.16
eigval :     1258.53  1268.73  1269.41  1282.98  1283.01  1286.63
eigval :     1287.25  1296.48  1297.25  1300.24  1300.89  1310.69
eigval :     1312.69  1319.21  1319.31  1321.86  1322.42  1327.09
eigval :     1328.39  1328.54  1329.73  1336.51  1336.97  1360.95
eigval :     1365.22  1392.51  1393.42  1403.16  1403.22  1407.12
eigval :     1407.30  1414.23  1414.74  1421.37  1421.56  1436.63
eigval :     1436.74  1438.23  1438.54  1458.49  1458.94  1468.99
eigval :     1470.43  1474.27  1475.16  1489.41  1489.55  1490.57
eigval :     1490.60  1498.88  1499.54  1500.14  1500.17  1504.74
eigval :     1505.49  1508.27  1509.04  1557.96  1558.00  1572.35
eigval :     1573.08  1574.93  1575.79  1577.62  1579.33  1582.83
eigval :     1582.88  1584.49  1584.55  1589.31  1589.83  1595.21
eigval :     1595.43  1603.98  1604.07  1606.97  1607.22  3026.52
eigval :     3026.66  3028.97  3029.31  3040.36  3040.71  3043.15
eigval :     3043.48  3049.23  3049.64  3053.12  3053.46  3068.33
eigval :     3068.93  3069.23  3069.35  3070.97  3071.19  3071.82
eigval :     3073.31  3079.18  3079.47  3079.54  3080.46  3081.51
eigval :     3081.89  3082.02  3082.74  3084.27  3085.01  3085.63
eigval :     3085.77  3089.67  3090.51  3090.69  3091.40  3091.62
eigval :     3092.53  3092.55  3093.11  3093.62  3094.17  3094.37
eigval :     3095.12  3095.59  3097.70  3098.10  3099.84  3103.25
eigval :     3104.08  3105.16  3105.62

   temp. (K)  partition function   enthalpy   heat capacity  entropy
                                   cal/mol     cal/K/mol   cal/K/mol   J/K/mol
 298.15  VIB  0.126E+32            36773.320    224.726    234.453
         ROT  0.288E+09              888.752      2.981     41.691
         INT  0.362E+40            37662.073    227.707    276.144
         TR   0.278E+29             1481.254      4.968     46.367
         TOT                       39143.3267   232.6749   322.5107  1349.3848

       T/K    H(0)-H(T)+PV         H(T)/Eh          T*S/Eh         G(T)/Eh
   ------------------------------------------------------------------------
    298.15    0.623789E-01    0.102971E+01    0.153235E+00    0.876476E+00
   ------------------------------------------------------------------------

         :::::::::::::::::::::::::::::::::::::::::::::::::::::
         ::                  THERMODYNAMIC                  ::
         :::::::::::::::::::::::::::::::::::::::::::::::::::::
         :: total free energy        -184.240539252251 Eh   ::
         ::.................................................::
         :: total energy             -185.117015732844 Eh   ::
         :: zero point energy           0.967332862648 Eh   ::
         :: G(RRHO) w/o ZPVE           -0.090856382056 Eh   ::
         :: G(RRHO) contrib.            0.876476480592 Eh   ::
         :::::::::::::::::::::::::::::::::::::::::::::::::::::

           -------------------------------------------------
          | TOTAL ENERGY             -185.117015732844 Eh   |
          | TOTAL ENTHALPY           -184.087304008465 Eh   |
          | TOTAL FREE ENERGY        -184.240539252251 Eh   |
          | GRADIENT NORM               0.000057035231 Eh/α |
          | HOMO-LUMO GAP               1.925821391964 eV   |
           -------------------------------------------------

 * finished run on 2025/07/17 at 07:19:58.595
