   * xtb version 6.7.1 (edcfbbe) compiled by 'albert@albert-system' on 2024-07-22

   ID    Z sym.   atoms
    1    6 C      1-10, 12-23, 25-30
    2    7 N      11
    3    5 B      24
    4    8 O      31
    5    1 H      32-55

          program call               : xtb data2507/gas/B-O-dpa/B-O-dpa_gas_S0_crest.xyz --gfn 2 --ohess vtight --parallel 40 --molden --ceasefiles --namespace data2507/gas/B-O-dpa/B-O-dpa_gas_S0_finalOpt
          :  Hamiltonian                  GFN2-xTB          :
 * total energy  :   -80.4697306 Eh     change       -0.2272898E-08 Eh
 * total energy  :   -80.4697310 Eh     change       -0.3483550E-06 Eh
 * total energy  :   -80.4697313 Eh     change       -0.2771095E-06 Eh
 * total energy  :   -80.4697320 Eh     change       -0.7507526E-06 Eh
 * total energy  :   -80.4697325 Eh     change       -0.5178970E-06 Eh
 * total energy  :   -80.4697329 Eh     change       -0.3295684E-06 Eh
 * total energy  :   -80.4697332 Eh     change       -0.3628310E-06 Eh
 * total energy  :   -80.4697336 Eh     change       -0.3840028E-06 Eh
 * total energy  :   -80.4697339 Eh     change       -0.3044067E-06 Eh
 * total energy  :   -80.4697342 Eh     change       -0.2671735E-06 Eh
 * total energy  :   -80.4697345 Eh     change       -0.3205132E-06 Eh
 * total energy  :   -80.4697348 Eh     change       -0.3318047E-06 Eh
 * total energy  :   -80.4697350 Eh     change       -0.1592074E-06 Eh
 * total energy  :   -80.4697351 Eh     change       -0.6742178E-07 Eh
   *** GEOMETRY OPTIMIZATION CONVERGED AFTER 14 ITERATIONS ***

 final structure:
================
55
 xtb: 6.7.1 (edcfbbe)
C            3.06580418426516       -3.42712404041262        1.35247652853623
C            2.17160928180434       -3.62693654693686        0.12064391105394
C            3.01644252719503       -3.52395805006486       -1.15707615513095
C            1.57611857598902       -5.03545422377091        0.18685099911845
C            1.10655745546990       -2.54128720636671        0.09975318325562
C           -0.25136538614150       -2.82695145403574        0.13900775763320
C           -1.17953251707642       -1.79364105840589        0.10976166349501
C           -0.79537196518538       -0.44767339699306        0.05564265184723
C            0.58498897033583       -0.17083647678337        0.02636076809244
C            1.50969746816327       -1.21290252021518        0.03991780643456
N            1.00190643854683        1.14288479066648       -0.02056100632249
C            2.40471863160551        1.37640465763037       -0.13558151496715
C            2.99069992630703        1.44186406676718       -1.39264427782279
C            4.35498974554646        1.64521396774680       -1.50552257044430
C            5.13419383262092        1.78194714026076       -0.36877331517917
C            4.54892955066940        1.71579400760572        0.88519894645991
C            3.18586221853961        1.51230852978537        1.00556027316652
C            0.15500775992433        2.23039389716538        0.09479367121254
C            0.71993730769318        3.51418729178755        0.13534584276978
C           -0.06708414211024        4.62753744823196        0.31124066015228
C           -1.44118465367313        4.49132968813247        0.46673085695867
C           -2.00453956915341        3.23805714127628        0.39659363102276
C           -1.25026520811899        2.07731932529086        0.17962685352928
B           -1.83676681806964        0.65749384460594        0.04140019655292
C           -3.29199046635729        0.14121397673317       -0.10938036474551
C           -4.43768634194990        0.90960723202005       -0.35638010535841
C           -5.69656331336220        0.35726450407637       -0.44253695205310
C           -5.86426488801427       -1.01335323602334       -0.28414060718382
C           -4.76444356940684       -1.81352556326922       -0.07813278813533
C           -3.48796081412028       -1.24898826445896       -0.00948161640892
O           -2.48626422096960       -2.15585277353294        0.14760265313329
H            3.82093288053860       -4.20914599149380        1.39754936944449
H            2.46815454324090       -3.47092854185145        2.26050223748297
H            3.57252220298335       -2.46628656177039        1.32363487035476
H            3.52052997421866       -2.56356744926190       -1.22366777116869
H            3.77186706736862       -4.30688036254075       -1.17029323070715
H            2.38402766979505       -3.63903225090171       -2.03481721532764
H            2.37993403674620       -5.76898872564325        0.19939398942598
H            0.95119272758451       -5.23617051351875       -0.67992047110888
H            0.98608041459647       -5.16767323822436        1.09043681423588
H           -0.62595651329430       -3.83459338666467        0.18569542128407
H            2.56188147339771       -0.98000615795853        0.01253503470421
H            2.37248755868211        1.33067975893078       -2.27102925205565
H            4.81029282497835        1.69579005566184       -2.48330637732169
H            6.19843637478958        1.93938007605633       -0.45961907858787
H            5.15572347496656        1.82106662760158        1.77217916060905
H            2.71738808482372        1.45630817247865        1.97704936766900
H            1.78857480825317        3.63534033330097        0.03820895581616
H            0.39054588951419        5.60578940680049        0.34282965139820
H           -2.05737769589651        5.36195425536105        0.63639903788556
H           -3.06950404372182        3.13933161248710        0.53439300739891
H           -4.32671306021376        1.97207852689124       -0.50578479314089
H           -6.55380437649041        0.98642446542209       -0.63315168093704
H           -6.84972966020474       -1.45203735278203       -0.33858979574694
H           -4.85801404842285       -2.88439951799343        0.02079104682122

          :  Hamiltonian                  GFN2-xTB          :
         :: gradient norm              0.000026978984 Eh/a0 ::
         :: HOMO-LUMO gap              2.428853218500 eV    ::
         :: SCC energy               -81.874224982853 Eh    ::
         :: -> dispersion             -0.070932342706 Eh    ::
         :: repulsion energy           1.404489930684 Eh    ::

    * Orbital Energies and Occupations

         #    Occupation            Energy/Eh            Energy/eV
      -------------------------------------------------------------
         1        2.0000           -0.7161475             -19.4874
       ...           ...                  ...                  ...
        63        2.0000           -0.4218358             -11.4787
        64        2.0000           -0.4203448             -11.4382
        65        2.0000           -0.4179220             -11.3722
        66        2.0000           -0.4171747             -11.3519
        67        2.0000           -0.4122247             -11.2172
        68        2.0000           -0.4043513             -11.0030
        69        2.0000           -0.4002707             -10.8919
        70        2.0000           -0.3924256             -10.6784
        71        2.0000           -0.3885187             -10.5721
        72        2.0000           -0.3817247             -10.3873
        73        2.0000           -0.3781978             -10.2913
        74        2.0000           -0.3724925             -10.1360
        75        2.0000           -0.3475138              -9.4563 (HOMO)
        76                         -0.2582552              -7.0275 (LUMO)
        77                         -0.2390942              -6.5061
        78                         -0.2383895              -6.4869
        79                         -0.2204306              -5.9982
        80                         -0.2165289              -5.8921
        81                         -0.2123462              -5.7782
        82                         -0.2001768              -5.4471
        83                         -0.1808115              -4.9201
        84                         -0.1398547              -3.8056
        85                         -0.1090582              -2.9676
        86                         -0.0872855              -2.3752
       ...                                ...                  ...
       148                          0.7216906              19.6382
      -------------------------------------------------------------
                  HL-Gap            0.0892586 Eh            2.4289 eV

     #   Z          covCN         q      C6AA      α(0)
     1   6 C        3.762    -0.105    22.554     6.770
     2   6 C        3.904     0.026    20.079     6.369
     3   6 C        3.762    -0.105    22.554     6.770
     4   6 C        3.761    -0.109    22.621     6.780
     5   6 C        2.974     0.012    27.741     8.640
     6   6 C        2.918    -0.079    29.980     8.979
     7   6 C        2.873     0.137    25.016     8.199
     8   6 C        2.894    -0.117    30.963     9.123
     9   6 C        2.928     0.057    26.712     8.476
    10   6 C        2.925    -0.077    29.913     8.969
    11   7 N        2.755    -0.051    22.235     7.003
    12   6 C        2.934     0.070    26.427     8.431
    13   6 C        2.922    -0.037    28.920     8.819
    14   6 C        2.920    -0.028    28.690     8.784
    15   6 C        2.920    -0.031    28.762     8.795
    16   6 C        2.920    -0.028    28.698     8.785
    17   6 C        2.921    -0.037    28.913     8.818
    18   6 C        2.925     0.060    26.661     8.468
    19   6 C        2.921    -0.056    29.397     8.891
    20   6 C        2.919    -0.028    28.702     8.785
    21   6 C        2.914    -0.043    29.064     8.840
    22   6 C        2.924    -0.032    28.807     8.802
    23   6 C        2.886    -0.084    30.110     8.996
    24   5 B        2.724     0.198    18.409     7.189
    25   6 C        2.882    -0.090    30.256     9.018
    26   6 C        2.925    -0.034    28.850     8.808
    27   6 C        2.915    -0.042    29.035     8.836
    28   6 C        2.920    -0.029    28.718     8.788
    29   6 C        2.916    -0.054    29.350     8.884
    30   6 C        2.877     0.138    24.993     8.196
    31   8 O        1.712    -0.230    17.820     5.700
    32   1 H        0.925     0.037     2.485     2.465
    33   1 H        0.925     0.035     2.519     2.482
    34   1 H        0.925     0.035     2.520     2.482
    35   1 H        0.925     0.035     2.521     2.483
    36   1 H        0.925     0.037     2.485     2.465
    37   1 H        0.925     0.035     2.521     2.483
    38   1 H        0.925     0.036     2.506     2.476
    39   1 H        0.925     0.038     2.477     2.461
    40   1 H        0.925     0.038     2.475     2.460
    41   1 H        0.926     0.046     2.365     2.405
    42   1 H        0.926     0.024     2.677     2.559
    43   1 H        0.926     0.042     2.416     2.431
    44   1 H        0.926     0.039     2.461     2.453
    45   1 H        0.926     0.038     2.477     2.461
    46   1 H        0.926     0.039     2.463     2.454
    47   1 H        0.926     0.043     2.413     2.429
    48   1 H        0.926     0.020     2.739     2.588
    49   1 H        0.926     0.024     2.673     2.557
    50   1 H        0.926     0.022     2.699     2.569
    51   1 H        0.926     0.032     2.554     2.499
    52   1 H        0.926     0.035     2.521     2.483
    53   1 H        0.926     0.027     2.632     2.537
    54   1 H        0.926     0.031     2.570     2.507
    55   1 H        0.926     0.041     2.441     2.443

molecular dipole:
                 x           y           z       tot (Debye)
 q only:        1.043       0.100      -0.092
   full:        1.151       0.131      -0.089       2.953

 projected vibrational frequencies (cm⁻¹)
eigval :       -0.00    -0.00    -0.00     0.00     0.00     0.00
eigval :       19.76    23.52    33.50    44.41    55.19    60.69
eigval :       71.55   111.72   116.43   124.97   165.19   179.96
eigval :      191.22   202.93   218.39   220.54   237.35   246.95
eigval :      251.41   264.84   279.44   308.78   319.99   329.36
eigval :      352.40   371.67   374.47   382.68   402.41   406.38
eigval :      426.18   434.10   455.59   486.95   491.77   492.97
eigval :      498.79   534.30   556.89   563.87   575.57   580.87
eigval :      590.34   597.89   632.62   633.97   651.68   667.60
eigval :      682.38   685.07   689.91   715.28   753.28   768.36
eigval :      776.40   784.44   819.41   828.34   857.18   861.51
eigval :      866.44   875.71   877.25   896.98   901.67   904.78
eigval :      911.14   914.08   922.17   924.24   925.98   929.52
eigval :      933.71   960.78   962.33   963.76   970.29   992.20
eigval :     1036.06  1036.10  1077.91  1081.27  1086.08  1092.44
eigval :     1110.41  1113.10  1135.10  1142.56  1170.31  1180.49
eigval :     1183.93  1186.13  1188.32  1209.90  1214.55  1228.14
eigval :     1231.46  1236.83  1243.06  1258.73  1271.04  1273.18
eigval :     1277.15  1299.67  1307.96  1308.97  1326.59  1334.46
eigval :     1346.92  1356.90  1401.31  1405.64  1409.88  1419.04
eigval :     1428.50  1431.75  1432.99  1448.13  1451.50  1466.90
eigval :     1477.30  1491.79  1495.19  1501.31  1505.54  1513.58
eigval :     1519.73  1540.76  1551.52  1556.04  1583.24  1586.58
eigval :     1594.49  1595.46  1598.91  3022.04  3023.44  3028.75
eigval :     3030.61  3032.40  3038.69  3040.45  3043.72  3047.09
eigval :     3070.49  3072.69  3080.18  3080.61  3082.64  3082.93
eigval :     3090.27  3091.34  3094.72  3095.46  3099.81  3100.67
eigval :     3105.51  3108.71  3132.95

   temp. (K)  partition function   enthalpy   heat capacity  entropy
                                   cal/mol     cal/K/mol   cal/K/mol   J/K/mol
 298.15  VIB  0.128E+11            14547.093     95.321     87.696
         ROT  0.192E+08              888.752      2.981     36.305
         INT  0.246E+18            15435.845     98.302    124.002
         TR   0.778E+28             1481.254      4.968     43.840
         TOT                       16917.0990   103.2700   167.8418   702.2501

       T/K    H(0)-H(T)+PV         H(T)/Eh          T*S/Eh         G(T)/Eh
   ------------------------------------------------------------------------
    298.15    0.269591E-01    0.463783E+00    0.797471E-01    0.384036E+00
   ------------------------------------------------------------------------

         :::::::::::::::::::::::::::::::::::::::::::::::::::::
         ::                  THERMODYNAMIC                  ::
         :::::::::::::::::::::::::::::::::::::::::::::::::::::
         :: total free energy         -80.085698860289 Eh   ::
         ::.................................................::
         :: total energy              -80.469735052169 Eh   ::
         :: zero point energy           0.436824129579 Eh   ::
         :: G(RRHO) w/o ZPVE           -0.052787937699 Eh   ::
         :: G(RRHO) contrib.            0.384036191880 Eh   ::
         :::::::::::::::::::::::::::::::::::::::::::::::::::::

           -------------------------------------------------
          | TOTAL ENERGY              -80.469735052169 Eh   |
          | TOTAL ENTHALPY            -80.005951809337 Eh   |
          | TOTAL FREE ENERGY         -80.085698860289 Eh   |
          | GRADIENT NORM               0.000026989984 Eh/α |
          | HOMO-LUMO GAP               2.428850446997 eV   |
           -------------------------------------------------

 * finished run on 2025/09/08 at 23:14:27.677
