   * xtb version 6.7.1 (edcfbbe) compiled by 'albert@albert-system' on 2024-07-22

   ID    Z sym.   atoms
    1    6 C      1-10, 12-23, 25-30
    2    7 N      11
    3    5 B      24
    4    8 O      31
    5    1 H      32-55

          program call               : xtb data2507/gas/B-O-dpa/B-O-dpa.xyz --gfn 2 --ohess vtight --parallel 40 --molden --ceasefiles --namespace data2507/gas/B-O-dpa/B-O-dpa_gas_S0_preOpt
          :  Hamiltonian                  GFN2-xTB          :
 * total energy  :   -80.4026106 Eh     change       -0.2624233E-08 Eh
 * total energy  :   -80.4407910 Eh     change       -0.3818042E-01 Eh
 * total energy  :   -80.4548406 Eh     change       -0.1404959E-01 Eh
 * total energy  :   -80.4607476 Eh     change       -0.5907077E-02 Eh
 * total energy  :   -80.4640322 Eh     change       -0.3284535E-02 Eh
 * total energy  :   -80.4655927 Eh     change       -0.1560496E-02 Eh
 * total energy  :   -80.4662659 Eh     change       -0.6732002E-03 Eh
 * total energy  :   -80.4666661 Eh     change       -0.4002346E-03 Eh
 * total energy  :   -80.4670449 Eh     change       -0.3788192E-03 Eh
 * total energy  :   -80.4674040 Eh     change       -0.3590848E-03 Eh
 * total energy  :   -80.4697265 Eh     change       -0.1403374E-05 Eh
 * total energy  :   -80.4697278 Eh     change       -0.1245196E-05 Eh
 * total energy  :   -80.4697287 Eh     change       -0.9399647E-06 Eh
 * total energy  :   -80.4697294 Eh     change       -0.6381283E-06 Eh
 * total energy  :   -80.4697298 Eh     change       -0.3946072E-06 Eh
 * total energy  :   -80.4697300 Eh     change       -0.2893061E-06 Eh
 * total energy  :   -80.4697303 Eh     change       -0.2735564E-06 Eh
 * total energy  :   -80.4697306 Eh     change       -0.2766418E-06 Eh
 * total energy  :   -80.4697306 Eh     change       -0.4062244E-08 Eh
   *** GEOMETRY OPTIMIZATION CONVERGED AFTER 68 ITERATIONS ***

 final structure:
================
55
 xtb: 6.7.1 (edcfbbe)
C            3.73306359606650       -1.75676063128039        1.43613495050135
C            3.04177697582772       -2.28885836090185        0.17281940807916
C            3.80213675659344       -1.81568054541986       -1.07410443493843
C            3.09120072600853       -3.81828843528072        0.20907457136835
C            1.62033647027286       -1.74982827213196        0.12416362964290
C            0.50683248778386       -2.57877876903993        0.13476863839890
C           -0.76834409525483       -2.02950570759147        0.08619348694285
C           -0.98271998099684       -0.64609741069443        0.03799118920127
C            0.15463557541221        0.18405773965563        0.03474078721976
C            1.43052345726609       -0.37436043639692        0.07136159454648
N           -0.01681560047984        1.55179096682163       -0.00910867766333
C            1.16039730047119        2.35157782542843       -0.10893472642887
C            1.68869547991218        2.64372845877008       -1.35932578517151
C            2.84397270868603        3.39924408169827       -1.45833268063725
C            3.47232419708182        3.86218323386754       -0.31425958937358
C            2.94498145394126        3.56982876891209        0.93305033102647
C            1.79087512401307        2.81446386054374        1.03956476393937
C           -1.24330773444200        2.18354780971893        0.08990452513603
C           -1.26991548921477        3.58574615640338        0.13473583757125
C           -2.45383798010753        4.26532979103029        0.29727357886588
C           -3.64589166653248        3.56450128387823        0.43437089428016
C           -3.63052484753092        2.19086494230944        0.35782405049972
C           -2.45590436521870        1.45484341872633        0.15332084477063
B           -2.39092291797041       -0.07889500109339        0.00446411553428
C           -3.49289361685336       -1.15599281487236       -0.17469936053999
C           -4.85031208618580       -0.93590068395394       -0.44479778517926
C           -5.76004942448047       -1.96402897390878       -0.55703972861539
C           -5.34082623810659       -3.28016562544982       -0.40259783241346
C           -4.01098608132142       -3.54786871334246       -0.17402767838695
C           -3.09000125511214       -2.50118705586441       -0.07900034815023
O           -1.80352802963012       -2.90615132549419        0.09876228776054
H            4.74584859048872       -2.14880230523268        1.50220703277213
H            3.18381246609262       -2.06677629879411        2.32260873872228
H            3.78756612296601       -0.67146131991344        1.43089790544915
H            3.86023966574304       -0.73144566890056       -1.11719707105968
H            4.81591609140563       -2.21063818882797       -1.06618306004745
H            3.30154736755120       -2.16667833935938       -1.97398725336846
H            4.12818726012460       -4.14711307800353        0.23902841690828
H            2.62842431969966       -4.24455004710020       -0.67767791907192
H            2.59056299711947       -4.20453035672088        1.09350342157321
H            0.58852868696139       -3.65097998707223        0.17427299806609
H            2.28834859138639        0.27848954385439        0.06827827284326
H            1.19094696681793        2.27400869674825       -2.24343814260047
H            3.25460132356012        3.62576127970423       -2.43094773538046
H            4.37403616529820        4.45054114711134       -0.39419424995793
H            3.43482690856268        3.92925409136087        1.82572585478467
H            1.37077834943322        2.57731917564261        2.00583333635450
H           -0.34965170498680        4.14455590585572        0.05145277636821
H           -2.44949021817659        5.34520010119945        0.33280524182224
H           -4.57266053461543        4.09556166813121        0.59417760693391
H           -4.55752559839480        1.65359313886796        0.48018023976586
H           -5.19176296320074        0.07673449173207       -0.59142503344130
H           -6.79832991551469       -1.75023835228856       -0.76512793209357
H           -6.05054141583376       -4.09084722246464       -0.47772749617007
H           -3.64918042237955       -4.56031965058149       -0.07735280694371

          :  Hamiltonian                  GFN2-xTB          :
         :: gradient norm              0.000044160903 Eh/a0 ::
         :: HOMO-LUMO gap              2.428977745221 eV    ::
         :: SCC energy               -81.874260671584 Eh    ::
         :: -> dispersion             -0.070932792758 Eh    ::
         :: repulsion energy           1.404530071781 Eh    ::

    * Orbital Energies and Occupations

         #    Occupation            Energy/Eh            Energy/eV
      -------------------------------------------------------------
         1        2.0000           -0.7161417             -19.4872
       ...           ...                  ...                  ...
        63        2.0000           -0.4218558             -11.4793
        64        2.0000           -0.4203386             -11.4380
        65        2.0000           -0.4178814             -11.3711
        66        2.0000           -0.4171847             -11.3522
        67        2.0000           -0.4122355             -11.2175
        68        2.0000           -0.4043465             -11.0028
        69        2.0000           -0.4002763             -10.8921
        70        2.0000           -0.3924489             -10.6791
        71        2.0000           -0.3885250             -10.5723
        72        2.0000           -0.3817173             -10.3871
        73        2.0000           -0.3781818             -10.2909
        74        2.0000           -0.3724926             -10.1360
        75        2.0000           -0.3475269              -9.4567 (HOMO)
        76                         -0.2582636              -7.0277 (LUMO)
        77                         -0.2390751              -6.5056
        78                         -0.2383654              -6.4863
        79                         -0.2204410              -5.9985
        80                         -0.2165285              -5.8920
        81                         -0.2123505              -5.7784
        82                         -0.2001838              -5.4473
        83                         -0.1808351              -4.9208
        84                         -0.1398656              -3.8059
        85                         -0.1090327              -2.9669
        86                         -0.0873006              -2.3756
       ...                                ...                  ...
       148                          0.7217170              19.6389
      -------------------------------------------------------------
                  HL-Gap            0.0892633 Eh            2.4290 eV

     #   Z          covCN         q      C6AA      α(0)
     1   6 C        3.762    -0.105    22.554     6.770
     2   6 C        3.904     0.026    20.079     6.369
     3   6 C        3.762    -0.105    22.555     6.770
     4   6 C        3.761    -0.109    22.621     6.780
     5   6 C        2.974     0.012    27.741     8.640
     6   6 C        2.918    -0.079    29.980     8.979
     7   6 C        2.872     0.137    25.015     8.199
     8   6 C        2.894    -0.117    30.963     9.123
     9   6 C        2.928     0.057    26.712     8.476
    10   6 C        2.925    -0.077    29.912     8.969
    11   7 N        2.755    -0.051    22.235     7.003
    12   6 C        2.934     0.070    26.427     8.431
    13   6 C        2.922    -0.037    28.920     8.819
    14   6 C        2.920    -0.028    28.689     8.784
    15   6 C        2.920    -0.031    28.762     8.795
    16   6 C        2.920    -0.028    28.698     8.785
    17   6 C        2.921    -0.037    28.914     8.818
    18   6 C        2.925     0.060    26.661     8.468
    19   6 C        2.921    -0.056    29.397     8.891
    20   6 C        2.920    -0.028    28.702     8.785
    21   6 C        2.914    -0.043    29.064     8.840
    22   6 C        2.924    -0.032    28.807     8.802
    23   6 C        2.886    -0.084    30.110     8.996
    24   5 B        2.724     0.198    18.408     7.189
    25   6 C        2.882    -0.090    30.256     9.018
    26   6 C        2.925    -0.034    28.850     8.808
    27   6 C        2.915    -0.042    29.035     8.836
    28   6 C        2.920    -0.029    28.718     8.788
    29   6 C        2.916    -0.054    29.350     8.884
    30   6 C        2.877     0.138    24.993     8.196
    31   8 O        1.712    -0.231    17.820     5.700
    32   1 H        0.925     0.037     2.485     2.465
    33   1 H        0.925     0.035     2.519     2.482
    34   1 H        0.925     0.035     2.519     2.482
    35   1 H        0.925     0.035     2.521     2.483
    36   1 H        0.925     0.037     2.486     2.466
    37   1 H        0.925     0.035     2.522     2.483
    38   1 H        0.925     0.036     2.506     2.476
    39   1 H        0.925     0.038     2.478     2.461
    40   1 H        0.925     0.038     2.475     2.460
    41   1 H        0.926     0.046     2.365     2.405
    42   1 H        0.926     0.024     2.677     2.559
    43   1 H        0.926     0.042     2.416     2.431
    44   1 H        0.926     0.039     2.461     2.453
    45   1 H        0.926     0.038     2.477     2.461
    46   1 H        0.926     0.039     2.463     2.454
    47   1 H        0.926     0.043     2.412     2.429
    48   1 H        0.926     0.020     2.738     2.588
    49   1 H        0.926     0.024     2.673     2.557
    50   1 H        0.926     0.022     2.699     2.569
    51   1 H        0.926     0.032     2.554     2.499
    52   1 H        0.926     0.035     2.521     2.483
    53   1 H        0.926     0.027     2.632     2.537
    54   1 H        0.926     0.031     2.570     2.507
    55   1 H        0.926     0.041     2.441     2.443

molecular dipole:
                 x           y           z       tot (Debye)
 q only:        0.906       0.527      -0.075
   full:        0.991       0.601      -0.071       2.951

 projected vibrational frequencies (cm⁻¹)
eigval :       -0.00    -0.00    -0.00     0.00     0.00     0.00
eigval :       19.84    23.64    33.47    44.39    55.13    60.90
eigval :       71.61   111.90   116.38   125.04   164.91   179.82
eigval :      191.30   202.88   218.35   220.85   237.24   246.96
eigval :      251.48   264.75   279.39   308.61   319.83   329.53
eigval :      352.48   371.47   374.32   382.86   402.49   406.44
eigval :      426.21   434.06   455.67   486.95   491.73   493.03
eigval :      498.80   534.29   556.81   563.83   575.52   580.85
eigval :      590.28   597.95   632.60   634.01   651.68   667.59
eigval :      682.24   685.11   689.91   715.25   753.29   768.48
eigval :      776.43   784.30   819.41   828.39   857.25   861.45
eigval :      866.53   875.79   877.24   897.00   901.68   904.81
eigval :      911.21   914.30   922.23   924.26   926.03   929.52
eigval :      933.66   960.78   962.27   963.74   970.22   992.22
eigval :     1035.95  1036.25  1077.90  1081.22  1086.17  1092.52
eigval :     1110.30  1113.10  1135.04  1142.53  1170.34  1180.46
eigval :     1183.93  1186.16  1188.29  1209.96  1214.70  1228.13
eigval :     1231.42  1236.81  1243.10  1258.69  1271.08  1273.20
eigval :     1277.36  1299.78  1308.04  1309.11  1326.60  1334.44
eigval :     1346.93  1356.90  1401.33  1405.81  1409.90  1419.09
eigval :     1428.55  1431.74  1433.05  1448.23  1451.53  1466.89
eigval :     1477.26  1491.82  1495.19  1501.33  1505.56  1513.53
eigval :     1519.71  1540.76  1551.43  1556.04  1583.25  1586.61
eigval :     1594.48  1595.46  1598.87  3022.10  3023.55  3028.82
eigval :     3030.76  3032.53  3038.68  3040.47  3043.88  3047.16
eigval :     3070.53  3072.73  3080.21  3080.62  3082.64  3082.99
eigval :     3090.28  3091.32  3094.81  3095.43  3099.87  3100.48
eigval :     3105.39  3108.23  3132.93

   temp. (K)  partition function   enthalpy   heat capacity  entropy
                                   cal/mol     cal/K/mol   cal/K/mol   J/K/mol
 298.15  VIB  0.127E+11            14546.757     95.323     87.688
         ROT  0.192E+08              888.752      2.981     36.305
         INT  0.243E+18            15435.509     98.304    123.993
         TR   0.778E+28             1481.254      4.968     43.840
         TOT                       16916.7630   103.2722   167.8330   702.2131

       T/K    H(0)-H(T)+PV         H(T)/Eh          T*S/Eh         G(T)/Eh
   ------------------------------------------------------------------------
    298.15    0.269586E-01    0.463787E+00    0.797429E-01    0.384044E+00
   ------------------------------------------------------------------------

         :::::::::::::::::::::::::::::::::::::::::::::::::::::
         ::                  THERMODYNAMIC                  ::
         :::::::::::::::::::::::::::::::::::::::::::::::::::::
         :: total free energy         -80.085686862225 Eh   ::
         ::.................................................::
         :: total energy              -80.469730599803 Eh   ::
         :: zero point energy           0.436828011674 Eh   ::
         :: G(RRHO) w/o ZPVE           -0.052784274095 Eh   ::
         :: G(RRHO) contrib.            0.384043737579 Eh   ::
         :::::::::::::::::::::::::::::::::::::::::::::::::::::

           -------------------------------------------------
          | TOTAL ENERGY              -80.469730599803 Eh   |
          | TOTAL ENTHALPY            -80.005944010264 Eh   |
          | TOTAL FREE ENERGY         -80.085686862225 Eh   |
          | GRADIENT NORM               0.000044162802 Eh/α |
          | HOMO-LUMO GAP               2.428978558055 eV   |
           -------------------------------------------------

 * finished run on 2025/09/08 at 23:13:05.461
