   * xtb version 6.7.1 (edcfbbe) compiled by 'albert@albert-system' on 2024-07-22

   ID    Z sym.   atoms
    1    6 C      1-10, 12-23, 25-30
    2    7 N      11
    3    5 B      24
    4    8 O      31
    5    1 H      32-55

          program call               : xtb data2507/gas/B-O-dpa/B-O-dpa_gas_S0_finalOpt.xtbopt.xyz --gfn 2 --spinpol --tblite --uhf 2 --ohess vtight --parallel 40 --molden --ceasefiles --namespace data2507/gas/B-O-dpa/B-O-dpa_gas_T1_preOpt
 * total energy  :   -80.3747584 Eh     change        0.7205728E-08 Eh
 * total energy  :   -80.3758022 Eh     change       -0.1043832E-02 Eh
 * total energy  :   -80.3760535 Eh     change       -0.2512806E-03 Eh
 * total energy  :   -80.3760738 Eh     change       -0.2029204E-04 Eh
 * total energy  :   -80.3760857 Eh     change       -0.1193052E-04 Eh
 * total energy  :   -80.3760932 Eh     change       -0.7511371E-05 Eh
 * total energy  :   -80.3761122 Eh     change       -0.1895659E-04 Eh
 * total energy  :   -80.3761257 Eh     change       -0.1356808E-04 Eh
 * total energy  :   -80.3761378 Eh     change       -0.1206555E-04 Eh
 * total energy  :   -80.3761508 Eh     change       -0.1303323E-04 Eh
 * total energy  :   -80.3764676 Eh     change       -0.6777506E-06 Eh
 * total energy  :   -80.3764681 Eh     change       -0.5268857E-06 Eh
 * total energy  :   -80.3764686 Eh     change       -0.5436301E-06 Eh
 * total energy  :   -80.3764692 Eh     change       -0.5262277E-06 Eh
 * total energy  :   -80.3764695 Eh     change       -0.3258910E-06 Eh
 * total energy  :   -80.3764698 Eh     change       -0.3001478E-06 Eh
 * total energy  :   -80.3764700 Eh     change       -0.2341844E-06 Eh
 * total energy  :   -80.3764702 Eh     change       -0.1653882E-06 Eh
 * total energy  :   -80.3764702 Eh     change       -0.1742202E-07 Eh
   *** GEOMETRY OPTIMIZATION CONVERGED AFTER 44 ITERATIONS ***

 final structure:
================
55
 xtb: 6.7.1 (edcfbbe)
C            3.02627537692338       -3.47880173223669        1.34708638173193
C            2.18250262617713       -3.63773640745237        0.07381950729857
C            3.08161622637978       -3.49488330621615       -1.16334042164939
C            1.58152709498437       -5.04535137867527        0.06950438493300
C            1.11742195341600       -2.55537149049033        0.04200164756301
C           -0.24953283026375       -2.82915088544876        0.01481805587599
C           -1.18087311431218       -1.78891089239396        0.00602378548710
C           -0.80666368412069       -0.44224859495523        0.01458645660822
C            0.57664431987905       -0.17458037130530       -0.00008535208578
C            1.50895950586068       -1.21564848321886        0.03983867900298
N            1.00008929689265        1.14597146454778       -0.03544601334609
C            2.39837088726777        1.37777881145117       -0.10870568506160
C            3.08551722509796        1.09921284172282       -1.28883076882136
C            4.45030408041946        1.30379816767285       -1.35510507430284
C            5.14042547222788        1.78129198706742       -0.25111864477562
C            4.45661140302603        2.05681252184095        0.92457192226686
C            3.09188159421286        1.85811927083645        0.99985791082708
C            0.15343798539788        2.23961056051818        0.05853867183250
C            0.70721323713542        3.52124478160335       -0.01811915129007
C           -0.07284572703801        4.64735887283172        0.19633253958912
C           -1.41791881389174        4.49197099601317        0.51285729287223
C           -1.98609176971256        3.23359092182344        0.52647783406076
C           -1.25881083991460        2.06761336377990        0.22950767639713
B           -1.85085379574090        0.66191798428045        0.07589276828350
C           -3.29590911462725        0.15404558695672       -0.06291715068508
C           -4.45800052667298        0.92872501557273       -0.23301974669240
C           -5.71670656940095        0.37185605082061       -0.31675873206331
C           -5.88404667272166       -1.00744063835363       -0.25483174562801
C           -4.76767376400882       -1.81724864774737       -0.13708410284974
C           -3.49906932974838       -1.25174367394137       -0.06015527804079
O           -2.48490045844154       -2.16400085115941        0.00898330619777
H            3.77967423258132       -4.26198062869975        1.39722276648926
H            2.39301242504726       -3.55161934643499        2.22865295552201
H            3.53359497636614       -2.51793050603262        1.37016245609570
H            3.58901863834714       -2.53377881015810       -1.17666562334993
H            3.83691985544587       -4.27779559669285       -1.16978284637611
H            2.48774726388663       -3.58079497841632       -2.07087207182884
H            2.38199043884576       -5.78209129635425        0.08925628135172
H            0.99079961849359       -5.21483582458872       -0.82750537546709
H            0.95621556513941       -5.20524841642796        0.94452892563278
H           -0.63025016604646       -3.83646537936145        0.02517185644814
H            2.56063219452068       -0.98018425198132        0.06679099603873
H            2.53866345383527        0.72662119766572       -2.14236454810378
H            4.97831888667035        1.09092066785320       -2.27256127824313
H            6.20670968542774        1.93781789576140       -0.30578535330154
H            4.99146353650825        2.42388559230375        1.78754177459538
H            2.55088069360320        2.06649175763718        1.91099120586664
H            1.75508251988024        3.64935326412886       -0.24290799330579
H            0.37053244779880        5.62869609955972        0.13090857525419
H           -2.02489594649464        5.36162030745919        0.72163644957156
H           -3.03090375446540        3.13440796312425        0.77240480953961
H           -4.35645175875971        1.99966573297778       -0.30838442758679
H           -6.58144765002585        1.01087713702778       -0.42869257116729
H           -6.86844941807489       -1.44583512933767       -0.31387426634091
H           -4.85618527270909       -2.89293515816604       -0.11538201600343

 projected vibrational frequencies (cm⁻¹)
eigval :       -0.00    -0.00    -0.00    -0.00     0.00     0.00
eigval :       16.70    28.88    38.55    43.81    54.78    61.54
eigval :       71.77   110.80   112.82   124.72   156.84   179.42
eigval :      185.47   201.76   219.97   221.02   233.72   247.99
eigval :      248.09   261.76   276.69   299.49   315.92   319.56
eigval :      350.12   357.46   372.20   374.18   400.81   403.64
eigval :      422.01   425.01   450.89   470.36   479.05   486.04
eigval :      494.65   508.27   527.25   556.46   566.10   569.86
eigval :      581.79   588.04   596.88   623.48   641.06   652.61
eigval :      658.83   673.86   676.85   695.67   738.44   747.10
eigval :      754.29   776.05   804.56   805.31   829.01   845.54
eigval :      853.25   856.36   869.02   871.72   883.72   885.68
eigval :      893.66   894.30   901.93   908.40   908.99   924.66
eigval :      925.87   958.35   959.26   963.41   966.16   981.70
eigval :     1035.00  1035.33  1060.39  1069.53  1074.57  1080.46
eigval :     1096.63  1115.03  1120.12  1123.31  1161.17  1168.90
eigval :     1177.16  1178.01  1183.80  1190.30  1202.12  1205.31
eigval :     1220.63  1225.45  1227.16  1232.36  1248.98  1252.43
eigval :     1254.39  1273.60  1277.48  1301.34  1303.25  1315.79
eigval :     1330.77  1346.30  1355.90  1386.64  1398.70  1405.53
eigval :     1405.76  1408.51  1416.76  1428.65  1429.00  1450.79
eigval :     1461.20  1476.37  1489.77  1491.94  1494.72  1497.07
eigval :     1502.93  1506.40  1511.47  1513.44  1518.79  1520.38
eigval :     1523.77  1545.41  1570.60  3024.18  3025.03  3028.37
eigval :     3031.90  3032.60  3037.85  3040.83  3042.56  3045.38
eigval :     3066.29  3068.61  3082.13  3083.26  3083.99  3085.67
eigval :     3091.36  3094.75  3094.99  3097.83  3101.66  3102.65
eigval :     3105.56  3110.55  3124.20

   temp. (K)  partition function   enthalpy   heat capacity  entropy
                                   cal/mol     cal/K/mol   cal/K/mol   J/K/mol
 298.15  VIB  0.149E+11            14799.969     97.246     89.184
         ROT  0.192E+08              888.752      2.981     36.312
         INT  0.287E+18            15688.722    100.227    125.496
         TR   0.778E+28             1481.254      4.968     43.840
         TOT                       17169.9757   105.1951   169.3359   708.5014

       T/K    H(0)-H(T)+PV         H(T)/Eh          T*S/Eh         G(T)/Eh
   ------------------------------------------------------------------------
    298.15    0.273621E-01    0.459854E+00    0.804569E-01    0.379397E+00
   ------------------------------------------------------------------------

         :::::::::::::::::::::::::::::::::::::::::::::::::::::
         ::                  THERMODYNAMIC                  ::
         :::::::::::::::::::::::::::::::::::::::::::::::::::::
         :: total free energy         -79.997073272262 Eh   ::
         ::.................................................::
         :: total energy              -80.376470206862 Eh   ::
         :: zero point energy           0.432491783912 Eh   ::
         :: G(RRHO) w/o ZPVE           -0.053094849312 Eh   ::
         :: G(RRHO) contrib.            0.379396934600 Eh   ::
         :::::::::::::::::::::::::::::::::::::::::::::::::::::

           -------------------------------------------------
          | TOTAL ENERGY              -80.376470206862 Eh   |
          | TOTAL ENTHALPY            -79.916616325060 Eh   |
          | TOTAL FREE ENERGY         -79.997073272262 Eh   |
          | GRADIENT NORM               0.000039622252 Eh/α |
           -------------------------------------------------

 * finished run on 2025/09/08 at 23:14:32.497
