   * xtb version 6.7.1 (edcfbbe) compiled by 'albert@albert-system' on 2024-07-22

   ID    Z sym.   atoms
    1    6 C      1-10, 12-23, 25-30
    2    7 N      11
    3    5 B      24
    4    8 O      31
    5    1 H      32-55

          program call               : xtb data2507/gas/B-O-dpa/B-O-dpa_gas_T1_crest.xyz --gfn 2 --spinpol --tblite --uhf 2 --ohess vtight --parallel 40 --molden --ceasefiles --namespace data2507/gas/B-O-dpa/B-O-dpa_gas_T1_finalOpt
 * total energy  :   -80.3764516 Eh     change        0.6119862E-08 Eh
 * total energy  :   -80.3764568 Eh     change       -0.5183578E-05 Eh
 * total energy  :   -80.3764595 Eh     change       -0.2704851E-05 Eh
 * total energy  :   -80.3764607 Eh     change       -0.1170037E-05 Eh
 * total energy  :   -80.3764628 Eh     change       -0.2101767E-05 Eh
 * total energy  :   -80.3764643 Eh     change       -0.1516703E-05 Eh
 * total energy  :   -80.3764659 Eh     change       -0.1553906E-05 Eh
 * total energy  :   -80.3764668 Eh     change       -0.9709384E-06 Eh
 * total energy  :   -80.3764675 Eh     change       -0.6081600E-06 Eh
 * total energy  :   -80.3764681 Eh     change       -0.6490061E-06 Eh
 * total energy  :   -80.3764688 Eh     change       -0.7311333E-06 Eh
 * total energy  :   -80.3764693 Eh     change       -0.4867978E-06 Eh
 * total energy  :   -80.3764697 Eh     change       -0.3415328E-06 Eh
 * total energy  :   -80.3764700 Eh     change       -0.3053239E-06 Eh
 * total energy  :   -80.3764702 Eh     change       -0.2329037E-06 Eh
 * total energy  :   -80.3764703 Eh     change       -0.1308120E-06 Eh
 * total energy  :   -80.3764704 Eh     change       -0.9061692E-07 Eh
   *** GEOMETRY OPTIMIZATION CONVERGED AFTER 17 ITERATIONS ***

 final structure:
================
55
 xtb: 6.7.1 (edcfbbe)
C            3.02558095216414       -3.43130030009875        1.47175841420158
C            2.20583985296230       -3.61999744404954        0.18688289288260
C            3.12600115610984       -3.49424615848834       -1.03654202344018
C            1.61436706391794       -5.03160089617147        0.19783955308951
C            1.13435003959321       -2.54574632010761        0.11779422136036
C           -0.23068497265530       -2.82903965041023        0.08717074548602
C           -1.16870838283722       -1.79551336508553        0.04873860930653
C           -0.80328848744170       -0.44653146164440        0.02872445929160
C            0.57831502795566       -0.17049824371978        0.01460521672885
C            1.51722785663432       -1.20386957799456        0.08640561749978
N            0.99372254959997        1.15134027199158       -0.05252956581378
C            2.39019189867974        1.38807645253631       -0.14239506647988
C            3.06789327615295        1.08396772705657       -1.32166625576673
C            4.43074079171052        1.29436532252833       -1.40609190526341
C            5.12846422576910        1.80267920585130       -0.32073075394632
C            4.45427495013110        2.10272228987376        0.85448990322777
C            3.09140417269463        1.89866774769122        0.94771267075023
C            0.14044408894307        2.24156072702201        0.01714757087727
C            0.68649256836636        3.52483940720008       -0.08399300545909
C           -0.10112555158197        4.65019221129246        0.10526854873106
C           -1.44629772854706        4.49301180880493        0.42021726069045
C           -2.00681444968652        3.23161777417413        0.45743121494820
C           -1.27128929182720        2.06439269925372        0.18722859917412
B           -1.85448330697180        0.65202836055747        0.06057476810464
C           -3.29578764304220        0.13203551876506       -0.07237501578158
C           -4.46237401987252        0.89525340207306       -0.26238060153050
C           -5.71697609691832        0.32837051921005       -0.34067770351626
C           -5.87546887633869       -1.05053949821019       -0.25232620085967
C           -4.75429704638676       -1.85023779799893       -0.11324740150962
C           -3.48983926895452       -1.27477799549132       -0.04158115199568
O           -2.47028852044848       -2.17886459149005        0.05154110312789
H            3.78500015992047       -4.20642125323789        1.54898813347068
H            2.37743107118057       -3.49454367774604        2.34319484785382
H            3.52337219674542       -2.46527549276661        1.48655970304908
H            3.62896252550247       -2.53099864927565       -1.05851138770512
H            3.88528336978034       -4.27304158510000       -1.01542399806974
H            2.54883567883668       -3.59977156774536       -1.95272417487874
H            2.41933595680634       -5.76238925248083        0.24138268470016
H            1.03760814094231       -5.21990146245603       -0.70451298184352
H            0.97773435847634       -5.18136953152102        1.06643989609969
H           -0.60489698786581       -3.83837166716671        0.11795721666901
H            2.56702588983777       -0.96031947451837        0.11641728459863
H            2.51507257116093        0.68741401057057       -2.16042147934958
H            4.95121697397021        1.06208662610012       -2.32314195873337
H            6.19321380206973        1.96404049606419       -0.38953793159323
H            4.99523243931102        2.49347423129750        1.70315546607250
H            2.55801278660054        2.12605688326733        1.85879403540558
H            1.73430454131613        3.65500767334770       -0.30770975626388
H            0.33664668570614        5.63268796421590        0.02181074272650
H           -2.05932453979960        5.36296002629276        0.60910036773472
H           -3.05203416599261        3.13115207679982        0.70107119382370
H           -4.36774357318438        1.96518608550754       -0.35833902283764
H           -6.58543892872549        0.95920997251672       -0.46900531037693
H           -6.85665465003755       -1.49664540371221       -0.30704070537155
H           -4.83569970133231       -2.92584683087470       -0.07012805889661

 projected vibrational frequencies (cm⁻¹)
eigval :       -0.00    -0.00    -0.00    -0.00     0.00     0.00
eigval :       16.71    28.95    38.22    43.70    54.19    61.29
eigval :       71.67   110.38   112.71   124.67   156.82   179.20
eigval :      186.04   201.81   219.74   221.16   233.87   247.84
eigval :      248.11   261.56   276.74   299.20   315.85   319.68
eigval :      349.91   357.09   372.34   374.19   400.51   403.39
eigval :      422.07   425.06   450.89   470.20   478.82   485.85
eigval :      494.52   508.29   527.13   556.56   566.07   570.07
eigval :      581.81   587.95   596.88   623.65   641.14   652.71
eigval :      658.84   673.93   676.85   695.70   738.54   746.94
eigval :      754.26   775.89   804.25   805.09   828.96   845.41
eigval :      853.15   856.46   868.98   871.60   883.68   885.63
eigval :      893.56   894.27   901.84   908.28   909.04   924.62
eigval :      925.75   958.29   959.22   963.36   966.07   981.98
eigval :     1034.83  1035.32  1060.68  1069.56  1074.53  1080.20
eigval :     1096.96  1115.00  1120.14  1123.59  1161.22  1169.00
eigval :     1177.23  1178.13  1183.96  1190.85  1201.90  1205.28
eigval :     1220.94  1225.47  1227.25  1232.28  1248.70  1252.11
eigval :     1254.43  1273.71  1277.71  1301.08  1303.68  1315.72
eigval :     1330.79  1346.04  1355.97  1386.23  1398.70  1405.53
eigval :     1405.68  1408.86  1416.81  1428.45  1429.02  1450.87
eigval :     1461.29  1476.41  1489.93  1491.59  1494.49  1496.78
eigval :     1502.91  1506.22  1511.73  1513.13  1518.49  1520.20
eigval :     1524.23  1545.45  1570.92  3024.12  3024.80  3028.37
eigval :     3031.82  3032.60  3037.77  3040.78  3042.49  3045.35
eigval :     3066.39  3068.68  3082.21  3083.21  3084.03  3085.88
eigval :     3091.37  3094.78  3095.19  3097.99  3102.13  3102.64
eigval :     3104.88  3110.52  3124.20

   temp. (K)  partition function   enthalpy   heat capacity  entropy
                                   cal/mol     cal/K/mol   cal/K/mol   J/K/mol
 298.15  VIB  0.153E+11            14803.287     97.228     89.206
         ROT  0.192E+08              888.752      2.981     36.312
         INT  0.295E+18            15692.039    100.209    125.518
         TR   0.778E+28             1481.254      4.968     43.840
         TOT                       17173.2930   105.1772   169.3586   708.5962

       T/K    H(0)-H(T)+PV         H(T)/Eh          T*S/Eh         G(T)/Eh
   ------------------------------------------------------------------------
    298.15    0.273674E-01    0.459850E+00    0.804677E-01    0.379382E+00
   ------------------------------------------------------------------------

         :::::::::::::::::::::::::::::::::::::::::::::::::::::
         ::                  THERMODYNAMIC                  ::
         :::::::::::::::::::::::::::::::::::::::::::::::::::::
         :: total free energy         -79.997087959660 Eh   ::
         ::.................................................::
         :: total energy              -80.376470419803 Eh   ::
         :: zero point energy           0.432482791947 Eh   ::
         :: G(RRHO) w/o ZPVE           -0.053100331804 Eh   ::
         :: G(RRHO) contrib.            0.379382460143 Eh   ::
         :::::::::::::::::::::::::::::::::::::::::::::::::::::

           -------------------------------------------------
          | TOTAL ENERGY              -80.376470419803 Eh   |
          | TOTAL ENTHALPY            -79.916620243387 Eh   |
          | TOTAL FREE ENERGY         -79.997087959660 Eh   |
          | GRADIENT NORM               0.000057920785 Eh/α |
           -------------------------------------------------

 * finished run on 2025/09/08 at 23:16:24.477
