   * xtb version 6.7.1 (edcfbbe) compiled by 'albert@albert-system' on 2024-07-22

   ID    Z sym.   atoms
    1    6 C      1-4, 6, 8-10, 12-26
    2    7 N      5, 11
    3    8 O      7, 28, 29
    4   16 S      27
    5    1 H      30-49

          program call               : xtb data2507/toluene/5-Cz-Sac/5-Cz-Sac.xyz --gfn 2 --gbsa toluene --ohess vtight --parallel 40 --molden --ceasefiles --namespace data2507/toluene/5-Cz-Sac/5-Cz-Sac_toluene_S0_preOpt
      * Solvation model:               GBSA
        Solvent                        toluene
        Solvent mass                       9.2140E+01 g/mol
          :  Hamiltonian                  GFN2-xTB          :
 * total energy  :   -80.8272958 Eh     change       -0.4855849E-09 Eh
 * total energy  :   -80.8394859 Eh     change       -0.1219017E-01 Eh
 * total energy  :   -80.8435960 Eh     change       -0.4110046E-02 Eh
 * total energy  :   -80.8444913 Eh     change       -0.8953107E-03 Eh
 * total energy  :   -80.8450009 Eh     change       -0.5095916E-03 Eh
 * total energy  :   -80.8451774 Eh     change       -0.1764906E-03 Eh
 * total energy  :   -80.8452679 Eh     change       -0.9047665E-04 Eh
 * total energy  :   -80.8453164 Eh     change       -0.4854153E-04 Eh
 * total energy  :   -80.8453518 Eh     change       -0.3543684E-04 Eh
 * total energy  :   -80.8453862 Eh     change       -0.3434320E-04 Eh
 * total energy  :   -80.8455603 Eh     change       -0.2279569E-05 Eh
 * total energy  :   -80.8455626 Eh     change       -0.2290293E-05 Eh
 * total energy  :   -80.8455648 Eh     change       -0.2241036E-05 Eh
 * total energy  :   -80.8455669 Eh     change       -0.2115171E-05 Eh
 * total energy  :   -80.8455689 Eh     change       -0.1966217E-05 Eh
 * total energy  :   -80.8455707 Eh     change       -0.1805922E-05 Eh
 * total energy  :   -80.8455723 Eh     change       -0.1624850E-05 Eh
 * total energy  :   -80.8455738 Eh     change       -0.1442972E-05 Eh
 * total energy  :   -80.8455738 Eh     change       -0.8354377E-08 Eh
   *** GEOMETRY OPTIMIZATION CONVERGED AFTER 44 ITERATIONS ***

 final structure:
================
49
 xtb: 6.7.1 (edcfbbe)
C            5.91422990913668       -0.54016198031447       -0.43021289357261
C            4.90101038581984        0.27799524905324        0.36780050140942
C            5.06897787567789       -0.00210250513715        1.86410735238052
C            5.09093184569609        1.76658790033072        0.06079705627593
N            3.53754956435826       -0.12588457388373       -0.03604259290920
C            2.41425590903058        0.45321641816404        0.46747499462025
O            2.37679998456840        1.37154135109309        1.26322957771048
C            1.20101127027644       -0.19509553539156       -0.09653667032847
C           -0.09867527320735        0.18408283564967        0.18675215833890
C           -1.15043346550086       -0.51805528565601       -0.41262061245081
N           -2.46553088277099       -0.14701022074932       -0.16633008973066
C           -2.96131897009944        1.15039692822805       -0.19655015930616
C           -2.31711731486709        2.33857228123329       -0.50738375687813
C           -3.06753127511578        3.50065107389149       -0.50447344403968
C           -4.42905659066571        3.48699958674349       -0.21285692349681
C           -5.08176786094364        2.30251763528894        0.06788954458282
C           -4.34754853027908        1.12380209295614        0.07119267479730
C           -4.70079117405512       -0.25377607583367        0.28749012618691
C           -5.89235840099973       -0.88866322109322        0.61252646950831
C           -5.88547378979303       -2.25908357550694        0.78557899589380
C           -4.70668050644427       -2.98933615459582        0.65767304855685
C           -3.50914118290618       -2.37774467203739        0.33285226244229
C           -3.51688406579771       -1.00624880916235        0.12601589258885
C           -0.87079636335682       -1.59116929870119       -1.26888116732388
C            0.43449835848966       -1.97094779886638       -1.53848286102871
C            1.45537683776814       -1.25769418019361       -0.94755930104677
S            3.21385686149865       -1.44826939231863       -1.07424533695599
O            3.66533823419690       -2.66776552870633       -0.46804340930079
O            3.68608394187940       -1.16439650598478       -2.39783068045245
H            5.79154856252274       -0.36964682296958       -1.49658515473968
H            5.79006854880671       -1.60230644075850       -0.23651712231880
H            6.91867691104609       -0.24458994409861       -0.13861759164601
H            6.07437484081410        0.26612911573688        2.17535341031934
H            4.90621802897282       -1.05922754220652        2.06433489044564
H            4.35528204540319        0.58153184592934        2.43990819375048
H            6.10281976853404        2.06243774037539        0.32186093777415
H            4.39012797008709        2.36652526605354        0.63452613734420
H            4.93080329991061        1.95270276307168       -0.99904632982907
H           -0.28226614207821        0.99457315230808        0.87456614739730
H           -1.26733601977999        2.36425264352167       -0.75603938193590
H           -2.58552402183777        4.43846451221841       -0.73816405170617
H           -4.97986230233424        4.41579988613382       -0.21789473816726
H           -6.14106352392207        2.28782604307385        0.27417581805281
H           -6.80065047949251       -0.31831983027304        0.73344638194448
H           -6.80153759984689       -2.77322913604012        1.03589152974543
H           -4.72537560811517       -4.05697181113248        0.81944796687750
H           -2.59985553829125       -2.95427478572850        0.26168194846542
H           -1.68711781285426       -2.11294448903185       -1.74314600129233
H            0.65185974086025       -2.79169220467961       -2.20251274695144

          :  Hamiltonian                  GFN2-xTB          :
         :: gradient norm              0.000073368947 Eh/a0 ::
         :: HOMO-LUMO gap              2.070102066309 eV    ::
         :: SCC energy               -82.071707256583 Eh    ::
         :: -> dispersion             -0.065173628412 Eh    ::
         :: -> Gsolv                  -0.034491689167 Eh    ::
         :: repulsion energy           1.226133476960 Eh    ::

    * Orbital Energies and Occupations

         #    Occupation            Energy/Eh            Energy/eV
      -------------------------------------------------------------
         1        2.0000           -0.8029126             -21.8484
       ...           ...                  ...                  ...
        61        2.0000           -0.4507011             -12.2642
        62        2.0000           -0.4458908             -12.1333
        63        2.0000           -0.4419564             -12.0262
        64        2.0000           -0.4393636             -11.9557
        65        2.0000           -0.4387050             -11.9378
        66        2.0000           -0.4290984             -11.6764
        67        2.0000           -0.4252215             -11.5709
        68        2.0000           -0.4248969             -11.5620
        69        2.0000           -0.4240424             -11.5388
        70        2.0000           -0.4178686             -11.3708
        71        2.0000           -0.4120615             -11.2128
        72        2.0000           -0.3858067             -10.4983
        73        2.0000           -0.3748211             -10.1994 (HOMO)
        74                         -0.2987463              -8.1293 (LUMO)
        75                         -0.2743033              -7.4642
        76                         -0.2508875              -6.8270
        77                         -0.2289354              -6.2296
        78                         -0.2187656              -5.9529
        79                         -0.1969207              -5.3585
        80                         -0.1927408              -5.2447
        81                         -0.1671321              -4.5479
        82                         -0.1407049              -3.8288
        83                         -0.1318164              -3.5869
        84                         -0.1023574              -2.7853
       ...                                ...                  ...
       141                          1.2230798              33.2817
      -------------------------------------------------------------
                  HL-Gap            0.0760748 Eh            2.0701 eV

     #   Z          covCN         q      C6AA      α(0)
     1   6 C        3.766    -0.133    23.105     6.851
     2   6 C        3.854     0.100    18.909     6.185
     3   6 C        3.758    -0.120    22.852     6.815
     4   6 C        3.759    -0.121    22.865     6.817
     5   7 N        2.753    -0.261    26.755     7.682
     6   6 C        2.925     0.278    22.307     7.745
     7   8 O        0.857    -0.425    22.177     6.314
     8   6 C        3.160    -0.029    28.390     8.710
     9   6 C        2.921    -0.027    28.684     8.783
    10   6 C        2.911     0.079    26.241     8.400
    11   7 N        2.800    -0.028    21.778     6.931
    12   6 C        3.064     0.043    26.972     8.516
    13   6 C        2.910    -0.050    29.243     8.867
    14   6 C        2.924    -0.032    28.788     8.799
    15   6 C        2.920    -0.038    28.952     8.824
    16   6 C        2.913    -0.032    28.795     8.799
    17   6 C        3.065    -0.012    28.255     8.716
    18   6 C        3.065    -0.012    28.251     8.716
    19   6 C        2.913    -0.032    28.791     8.799
    20   6 C        2.920    -0.038    28.952     8.824
    21   6 C        2.924    -0.032    28.794     8.800
    22   6 C        2.910    -0.051    29.271     8.872
    23   6 C        3.064     0.043    26.983     8.518
    24   6 C        2.927    -0.034    28.839     8.807
    25   6 C        2.923    -0.013    28.335     8.729
    26   6 C        2.986    -0.103    30.598     9.074
    27  16 S        3.978     1.154   102.340    17.027
    28   8 O        0.860    -0.571    25.406     6.758
    29   8 O        0.860    -0.567    25.315     6.746
    30   1 H        0.925     0.054     2.275     2.359
    31   1 H        0.925     0.051     2.303     2.373
    32   1 H        0.925     0.069     2.095     2.264
    33   1 H        0.925     0.065     2.138     2.287
    34   1 H        0.925     0.044     2.396     2.421
    35   1 H        0.925     0.061     2.192     2.315
    36   1 H        0.925     0.065     2.144     2.290
    37   1 H        0.925     0.065     2.138     2.287
    38   1 H        0.925     0.045     2.387     2.416
    39   1 H        0.926     0.087     1.913     2.163
    40   1 H        0.926     0.033     2.545     2.495
    41   1 H        0.926     0.037     2.494     2.470
    42   1 H        0.926     0.036     2.505     2.475
    43   1 H        0.926     0.040     2.455     2.450
    44   1 H        0.926     0.039     2.462     2.454
    45   1 H        0.926     0.036     2.507     2.476
    46   1 H        0.926     0.038     2.479     2.462
    47   1 H        0.926     0.036     2.496     2.471
    48   1 H        0.926     0.089     1.892     2.151
    49   1 H        0.926     0.076     2.019     2.222

molecular dipole:
                 x           y           z       tot (Debye)
 q only:       -1.733       0.198       0.079
   full:       -1.507       0.063      -0.020       3.835

 projected vibrational frequencies (cm⁻¹)
eigval :       -0.00    -0.00     0.00     0.00     0.00     0.00
eigval :       17.70    24.21    31.11    37.21    58.46    89.59
eigval :       98.25   126.23   128.63   137.25   144.95   169.34
eigval :      190.79   199.89   208.54   231.66   242.76   252.89
eigval :      256.25   271.78   285.45   296.09   306.54   351.75
eigval :      361.38   377.20   392.10   394.65   396.21   410.18
eigval :      422.21   423.33   438.88   475.08   485.83   507.86
eigval :      514.36   521.21   536.29   539.65   540.53   555.82
eigval :      583.74   602.04   656.36   667.73   674.13   675.00
eigval :      708.06   716.96   745.09   757.84   770.54   781.38
eigval :      825.82   838.34   868.47   875.07   880.92   896.03
eigval :      897.72   904.08   908.99   921.69   925.56   930.78
eigval :      945.98   954.03   966.24   980.04   990.39  1011.32
eigval :     1028.23  1036.98  1047.36  1070.82  1073.94  1098.78
eigval :     1111.71  1147.71  1152.32  1155.22  1178.06  1179.91
eigval :     1198.06  1210.87  1212.63  1231.79  1232.39  1242.10
eigval :     1243.33  1253.47  1275.78  1290.26  1297.14  1329.58
eigval :     1353.70  1354.52  1357.32  1390.63  1396.13  1407.64
eigval :     1416.80  1418.84  1424.69  1460.75  1464.86  1471.02
eigval :     1479.95  1481.93  1483.54  1484.87  1486.38  1502.64
eigval :     1559.36  1573.65  1579.42  1587.60  1596.86  1609.16
eigval :     1703.33  3029.95  3032.57  3040.30  3047.42  3049.63
eigval :     3050.57  3053.25  3054.61  3058.55  3077.27  3078.39
eigval :     3083.35  3084.02  3091.16  3092.08  3096.78  3098.84
eigval :     3105.57  3109.07  3114.74

   temp. (K)  partition function   enthalpy   heat capacity  entropy
                                   cal/mol     cal/K/mol   cal/K/mol   J/K/mol
 298.15  VIB  0.694E+10            14110.393     90.506     84.978
         ROT  0.192E+08              888.752      2.981     36.304
         INT  0.133E+18            14999.145     93.487    121.283
         TR   0.787E+28             1481.254      4.968     43.864
         TOT                       16480.3993    98.4555   165.1463   690.9723

       T/K    H(0)-H(T)+PV         H(T)/Eh          T*S/Eh         G(T)/Eh
   ------------------------------------------------------------------------
    298.15    0.262632E-01    0.400116E+00    0.784664E-01    0.321650E+00
   ------------------------------------------------------------------------

         :::::::::::::::::::::::::::::::::::::::::::::::::::::
         ::                  THERMODYNAMIC                  ::
         :::::::::::::::::::::::::::::::::::::::::::::::::::::
         :: total free energy         -80.523923778624 Eh   ::
         ::.................................................::
         :: total energy              -80.845573781599 Eh   ::
         :: zero point energy           0.373853174225 Eh   ::
         :: G(RRHO) w/o ZPVE           -0.052203171251 Eh   ::
         :: G(RRHO) contrib.            0.321650002975 Eh   ::
         :::::::::::::::::::::::::::::::::::::::::::::::::::::

           -------------------------------------------------
          | TOTAL ENERGY              -80.845573781599 Eh   |
          | TOTAL ENTHALPY            -80.445457419428 Eh   |
          | TOTAL FREE ENERGY         -80.523923778624 Eh   |
          | GRADIENT NORM               0.000073378106 Eh/α |
          | HOMO-LUMO GAP               2.070101144567 eV   |
           -------------------------------------------------

 * finished run on 2025/08/23 at 09:08:46.954
