   * xtb version 6.7.1 (edcfbbe) compiled by 'albert@albert-system' on 2024-07-22

   ID    Z sym.   atoms
    1    6 C      1-4, 6, 8-10, 12-26
    2    7 N      5, 11
    3    8 O      7, 28, 29
    4   16 S      27
    5    1 H      30-49

          program call               : xtb data2507/toluene/5-Cz-Sac/5-Cz-Sac_toluene_S0_crest.xyz --gfn 2 --gbsa toluene --ohess vtight --parallel 40 --molden --ceasefiles --namespace data2507/toluene/5-Cz-Sac/5-Cz-Sac_toluene_S0_finalOpt
      * Solvation model:               GBSA
        Solvent                        toluene
        Solvent mass                       9.2140E+01 g/mol
          :  Hamiltonian                  GFN2-xTB          :
 * total energy  :   -80.8455464 Eh     change       -0.5085212E-09 Eh
 * total energy  :   -80.8456139 Eh     change       -0.6751018E-04 Eh
 * total energy  :   -80.8456417 Eh     change       -0.2781211E-04 Eh
 * total energy  :   -80.8456463 Eh     change       -0.4602377E-05 Eh
 * total energy  :   -80.8456509 Eh     change       -0.4520303E-05 Eh
 * total energy  :   -80.8456525 Eh     change       -0.1684800E-05 Eh
 * total energy  :   -80.8456536 Eh     change       -0.1064244E-05 Eh
 * total energy  :   -80.8456541 Eh     change       -0.5292029E-06 Eh
 * total energy  :   -80.8456550 Eh     change       -0.8197465E-06 Eh
 * total energy  :   -80.8456555 Eh     change       -0.5966721E-06 Eh
 * total energy  :   -80.8456555 Eh     change        0.1092074E-07 Eh
 * total energy  :   -80.8456557 Eh     change       -0.1695584E-06 Eh
 * total energy  :   -80.8456557 Eh     change       -0.1077656E-07 Eh
   *** GEOMETRY OPTIMIZATION CONVERGED AFTER 13 ITERATIONS ***

 final structure:
================
49
 xtb: 6.7.1 (edcfbbe)
C            5.99579395233969       -0.05663904970100        0.15304105896674
C            4.89325932136164        0.86529142062603        0.66984352531322
C            4.96400027215183        0.94717659582500        2.19772560417742
C            5.04019307424814        2.25199723816571        0.03631488907608
N            3.58116488542017        0.30360315548432        0.28512855391845
C            2.40032632908048        0.89780231435065        0.60573705580951
O            2.26579016669706        1.93244952805549        1.22979598544353
C            1.26065642460940        0.10122315406532        0.07969914163167
C           -0.07279029098781        0.42070123039110        0.26051412170378
C           -1.04721362039557       -0.42017947982290       -0.28917391210063
N           -2.39411627251281       -0.12411199766371       -0.13060125713673
C           -2.97929747670117        1.12454057860810       -0.30044897585761
C           -2.41285190691022        2.32108036254775       -0.71406567421470
C           -3.24334861905361        3.42026740390448       -0.84028264309652
C           -4.60779244432100        3.33595651753829       -0.57567743668039
C           -5.18266077849599        2.13920422600357       -0.19466023616583
C           -4.36715721949658        1.02319189118591       -0.06056907807686
C           -4.62860799090525       -0.34886846912701        0.28344272786035
C           -5.78207020950309       -1.03328802949069        0.64342631383735
C           -5.68472838499703       -2.37607007264423        0.95233577423970
C           -4.45417716043971       -3.02704361447775        0.92646510217543
C           -3.29303127070675       -2.36484804008997        0.57022935268364
C           -3.39038189130161       -1.02497657081551        0.22489778300651
C           -0.65706165645869       -1.56227939742396       -1.00105824798609
C            0.68143041543642       -1.88153044064427       -1.16612821675020
C            1.62440400973126       -1.03666892247425       -0.62101253449444
S            3.39536852136693       -1.12866437910045       -0.63394968822814
O            3.87616970292298       -2.25743680539765        0.10850014155633
O            3.93150118715550       -0.93822953343879       -1.95071388656649
H            5.95081444506962       -0.14094183453735       -0.92957077532039
H            5.89627355634433       -1.05160244078051        0.57871936661184
H            6.96252600998261        0.35239810654971        0.43478464402099
H            5.93454046143548        1.33289312026904        2.49579156553756
H            4.82827425768538       -0.04173178730351        2.63057034042799
H            4.19057991877713        1.60872932784949        2.57846035653722
H            6.01405675466777        2.66361054116044        0.28485366516003
H            4.26978631803328        2.92202376687444        0.40844366221749
H            4.95300470475113        2.17787618354652       -1.04570808250622
H           -0.34058765741577        1.29214098743230        0.83707498226106
H           -1.36157716929840        2.39994385078353       -0.94417768696760
H           -2.82230901086236        4.36360507815349       -1.15529034858801
H           -5.22238347854040        4.21745765616201       -0.68212215134576
H           -6.24342187955474        2.06703072471188       -0.00897736096786
H           -6.73112964704450       -0.52107425413448        0.68556053635617
H           -6.56962946089971       -2.92869507841189        1.23102722309459
H           -4.40251741894709       -4.07177125321575        1.19510796117360
H           -2.34427285104231       -2.87840754202746        0.58124216938445
H           -1.41406403492424       -2.18850328488450       -1.44644934155590
H            0.98277638644807       -2.75827088573702       -1.71595098177641

          :  Hamiltonian                  GFN2-xTB          :
         :: gradient norm              0.000181799729 Eh/a0 ::
         :: HOMO-LUMO gap              2.076872170069 eV    ::
         :: SCC energy               -82.071819342102 Eh    ::
         :: -> dispersion             -0.065173727012 Eh    ::
         :: -> Gsolv                  -0.034536188684 Eh    ::
         :: repulsion energy           1.226163625767 Eh    ::

    * Orbital Energies and Occupations

         #    Occupation            Energy/Eh            Energy/eV
      -------------------------------------------------------------
         1        2.0000           -0.8028108             -21.8456
       ...           ...                  ...                  ...
        61        2.0000           -0.4505237             -12.2594
        62        2.0000           -0.4457755             -12.1302
        63        2.0000           -0.4419662             -12.0265
        64        2.0000           -0.4392766             -11.9533
        65        2.0000           -0.4386939             -11.9375
        66        2.0000           -0.4291430             -11.6776
        67        2.0000           -0.4251260             -11.5683
        68        2.0000           -0.4248428             -11.5606
        69        2.0000           -0.4240671             -11.5395
        70        2.0000           -0.4178253             -11.3696
        71        2.0000           -0.4120962             -11.2137
        72        2.0000           -0.3858490             -10.4995
        73        2.0000           -0.3749070             -10.2017 (HOMO)
        74                         -0.2985834              -8.1249 (LUMO)
        75                         -0.2741483              -7.4600
        76                         -0.2509115              -6.8276
        77                         -0.2289987              -6.2314
        78                         -0.2187462              -5.9524
        79                         -0.1966813              -5.3520
        80                         -0.1927743              -5.2457
        81                         -0.1670936              -4.5468
        82                         -0.1405331              -3.8241
        83                         -0.1318459              -3.5877
        84                         -0.1023429              -2.7849
       ...                                ...                  ...
       141                          1.2232575              33.2865
      -------------------------------------------------------------
                  HL-Gap            0.0763236 Eh            2.0769 eV

     #   Z          covCN         q      C6AA      α(0)
     1   6 C        3.766    -0.134    23.109     6.852
     2   6 C        3.854     0.100    18.908     6.184
     3   6 C        3.759    -0.120    22.859     6.816
     4   6 C        3.758    -0.120    22.857     6.816
     5   7 N        2.753    -0.261    26.753     7.682
     6   6 C        2.925     0.278    22.308     7.746
     7   8 O        0.857    -0.425    22.185     6.315
     8   6 C        3.160    -0.029    28.392     8.711
     9   6 C        2.921    -0.028    28.691     8.784
    10   6 C        2.911     0.079    26.243     8.400
    11   7 N        2.800    -0.027    21.771     6.930
    12   6 C        3.063     0.043    26.974     8.517
    13   6 C        2.910    -0.050    29.241     8.867
    14   6 C        2.924    -0.032    28.788     8.799
    15   6 C        2.920    -0.038    28.950     8.823
    16   6 C        2.913    -0.032    28.795     8.799
    17   6 C        3.065    -0.012    28.254     8.716
    18   6 C        3.065    -0.012    28.249     8.716
    19   6 C        2.913    -0.032    28.791     8.799
    20   6 C        2.920    -0.038    28.951     8.823
    21   6 C        2.924    -0.032    28.793     8.800
    22   6 C        2.910    -0.051    29.274     8.872
    23   6 C        3.063     0.043    26.984     8.518
    24   6 C        2.927    -0.034    28.846     8.808
    25   6 C        2.923    -0.013    28.336     8.729
    26   6 C        2.986    -0.103    30.601     9.074
    27  16 S        3.977     1.154   102.343    17.027
    28   8 O        0.860    -0.568    25.346     6.750
    29   8 O        0.860    -0.569    25.379     6.754
    30   1 H        0.925     0.052     2.293     2.368
    31   1 H        0.925     0.053     2.284     2.363
    32   1 H        0.925     0.069     2.096     2.264
    33   1 H        0.925     0.065     2.140     2.288
    34   1 H        0.925     0.044     2.391     2.418
    35   1 H        0.925     0.063     2.162     2.299
    36   1 H        0.925     0.065     2.142     2.289
    37   1 H        0.925     0.063     2.166     2.301
    38   1 H        0.925     0.044     2.396     2.421
    39   1 H        0.926     0.086     1.913     2.163
    40   1 H        0.926     0.033     2.539     2.492
    41   1 H        0.926     0.037     2.493     2.469
    42   1 H        0.926     0.036     2.504     2.475
    43   1 H        0.926     0.040     2.455     2.450
    44   1 H        0.926     0.039     2.461     2.453
    45   1 H        0.926     0.036     2.506     2.475
    46   1 H        0.926     0.038     2.477     2.461
    47   1 H        0.926     0.037     2.491     2.468
    48   1 H        0.926     0.089     1.891     2.150
    49   1 H        0.926     0.076     2.020     2.223

molecular dipole:
                 x           y           z       tot (Debye)
 q only:       -1.762       0.050       0.047
   full:       -1.523      -0.074      -0.033       3.877

 projected vibrational frequencies (cm⁻¹)
eigval :       -0.00    -0.00    -0.00     0.00     0.00     0.00
eigval :       17.47    26.22    33.27    38.72    61.42    91.96
eigval :       98.98   128.15   132.25   139.01   145.85   172.13
eigval :      197.86   207.19   211.95   242.50   246.20   255.01
eigval :      260.72   272.34   287.87   299.30   306.90   352.00
eigval :      359.53   376.29   390.90   394.84   395.21   412.03
eigval :      422.31   423.06   439.61   476.00   485.58   507.38
eigval :      514.96   522.35   539.39   540.59   541.07   553.51
eigval :      584.21   603.06   656.07   667.58   674.71   676.33
eigval :      709.89   719.91   744.84   757.94   771.18   782.42
eigval :      825.94   834.26   870.17   876.18   880.98   896.07
eigval :      897.83   903.11   908.79   919.48   927.11   930.70
eigval :      946.21   954.28   966.81   980.81   990.71  1011.28
eigval :     1028.20  1036.98  1048.06  1071.14  1074.30  1098.99
eigval :     1111.72  1147.31  1152.67  1154.04  1177.62  1178.56
eigval :     1198.37  1210.38  1212.73  1231.74  1232.54  1242.00
eigval :     1243.22  1253.72  1276.32  1289.69  1297.00  1329.90
eigval :     1353.37  1354.53  1357.32  1390.23  1395.96  1407.59
eigval :     1416.72  1418.67  1424.55  1460.59  1466.02  1470.67
eigval :     1480.62  1482.62  1483.33  1486.70  1487.37  1503.77
eigval :     1559.14  1573.73  1579.47  1587.48  1596.59  1608.94
eigval :     1703.45  3031.55  3033.06  3040.20  3047.75  3051.18
eigval :     3052.44  3053.25  3054.30  3057.02  3077.43  3077.78
eigval :     3083.69  3084.42  3091.64  3092.76  3097.24  3099.24
eigval :     3104.58  3109.52  3113.45

   temp. (K)  partition function   enthalpy   heat capacity  entropy
                                   cal/mol     cal/K/mol   cal/K/mol   J/K/mol
 298.15  VIB  0.468E+10            14039.449     90.538     84.320
         ROT  0.192E+08              888.752      2.981     36.306
         INT  0.898E+17            14928.202     93.519    120.626
         TR   0.787E+28             1481.254      4.968     43.864
         TOT                       16409.4556    98.4869   164.4893   688.2231

       T/K    H(0)-H(T)+PV         H(T)/Eh          T*S/Eh         G(T)/Eh
   ------------------------------------------------------------------------
    298.15    0.261501E-01    0.400198E+00    0.781542E-01    0.322043E+00
   ------------------------------------------------------------------------

         :::::::::::::::::::::::::::::::::::::::::::::::::::::
         ::                  THERMODYNAMIC                  ::
         :::::::::::::::::::::::::::::::::::::::::::::::::::::
         :: total free energy         -80.523612218940 Eh   ::
         ::.................................................::
         :: total energy              -80.845655717446 Eh   ::
         :: zero point energy           0.374047521434 Eh   ::
         :: G(RRHO) w/o ZPVE           -0.052004022927 Eh   ::
         :: G(RRHO) contrib.            0.322043498506 Eh   ::
         :::::::::::::::::::::::::::::::::::::::::::::::::::::

           -------------------------------------------------
          | TOTAL ENERGY              -80.845655717446 Eh   |
          | TOTAL ENTHALPY            -80.445458063912 Eh   |
          | TOTAL FREE ENERGY         -80.523612218940 Eh   |
          | GRADIENT NORM               0.000181862402 Eh/α |
          | HOMO-LUMO GAP               2.076871077621 eV   |
           -------------------------------------------------

 * finished run on 2025/08/23 at 09:10:41.868
