   * xtb version 6.7.1 (edcfbbe) compiled by 'albert@albert-system' on 2024-07-22

   ID    Z sym.   atoms
    1    6 C      1-4, 6, 8-10, 12-26
    2    7 N      5, 11
    3    8 O      7, 28, 29
    4   16 S      27
    5    1 H      30-49

          program call               : xtb data2507/toluene/5-Cz-Sac/5-Cz-Sac_toluene_T1_crest.xyz --gfn 2 --uhf 2 --gbsa toluene --ohess vtight --parallel 40 --molden --ceasefiles --namespace data2507/toluene/5-Cz-Sac/5-Cz-Sac_toluene_T1_finalOpt
      * Solvation model:               GBSA
        Solvent                        toluene
        Solvent mass                       9.2140E+01 g/mol
          :  Hamiltonian                  GFN2-xTB          :
 * total energy  :   -80.7506650 Eh     change       -0.2112387E-08 Eh
 * total energy  :   -80.7508942 Eh     change       -0.2292056E-03 Eh
 * total energy  :   -80.7509896 Eh     change       -0.9544783E-04 Eh
 * total energy  :   -80.7510085 Eh     change       -0.1887350E-04 Eh
 * total energy  :   -80.7510255 Eh     change       -0.1695158E-04 Eh
 * total energy  :   -80.7510325 Eh     change       -0.7042668E-05 Eh
 * total energy  :   -80.7510372 Eh     change       -0.4743107E-05 Eh
 * total energy  :   -80.7510416 Eh     change       -0.4392235E-05 Eh
 * total energy  :   -80.7510456 Eh     change       -0.3960930E-05 Eh
 * total energy  :   -80.7510493 Eh     change       -0.3702238E-05 Eh
 * total energy  :   -80.7510544 Eh     change       -0.3705695E-06 Eh
 * total energy  :   -80.7510547 Eh     change       -0.3026560E-06 Eh
 * total energy  :   -80.7510549 Eh     change       -0.2221964E-06 Eh
 * total energy  :   -80.7510552 Eh     change       -0.2158988E-06 Eh
 * total energy  :   -80.7510554 Eh     change       -0.2240311E-06 Eh
 * total energy  :   -80.7510556 Eh     change       -0.1855043E-06 Eh
 * total energy  :   -80.7510557 Eh     change       -0.1517235E-06 Eh
 * total energy  :   -80.7510557 Eh     change        0.5582095E-08 Eh
 * total energy  :   -80.7510558 Eh     change       -0.6573950E-07 Eh
   *** GEOMETRY OPTIMIZATION CONVERGED AFTER 23 ITERATIONS ***

 final structure:
================
49
 xtb: 6.7.1 (edcfbbe)
C            4.97771437629627        1.15748460957556        2.18448671045174
C            4.86601048528998        0.82572464338323        0.69304577568104
C            4.99115167726794        2.09611862616116       -0.15815339131552
C            5.97225458991945       -0.15922950450293        0.30857705721693
N            3.56729521479288        0.19775114090764        0.43459870863282
C            2.35733463148870        0.85082845511246        0.71124149833885
O            2.28200954658907        1.92013083416183        1.34775304325232
C            1.26234858378621        0.13628247863439        0.15755972215237
C           -0.10077781554823        0.44723353894087        0.29138840817367
C           -1.04530257156937       -0.38981576266792       -0.26326894650983
N           -2.39874652577548       -0.10688502279255       -0.12205392927222
C           -2.99269756620150        1.12207639425756       -0.31998248481071
C           -2.42742380159651        2.31917649820008       -0.74921655030154
C           -3.26558516624300        3.41218320147993       -0.89363437699577
C           -4.62928735179182        3.31802139487677       -0.63253546958491
C           -5.20547228177886        2.11606413039054       -0.23529601845470
C           -4.38691549979792        1.01296082882437       -0.08292797807089
C           -4.63024223345758       -0.36330727085087        0.28347269568081
C           -5.76434064944898       -1.06911314479145        0.63726074298444
C           -5.63099090961444       -2.41433207722000        0.96600214391902
C           -4.38710448987665       -3.03822810422855        0.96137023852156
C           -3.23706751278079       -2.34890153272183        0.61488676191355
C           -3.36970204486354       -1.01244478080090        0.24886401278351
C           -0.66055731179532       -1.56372042664554       -0.99632385488895
C            0.68396760619105       -1.85270235124956       -1.15982323891945
C            1.62423577762168       -1.02247992645466       -0.60385684110971
S            3.37502212779380       -1.06753807413186       -0.67701128393315
O            3.91901455695521       -2.29090447925891       -0.14017607117228
O            3.88123313371645       -0.69079800311984       -1.97920609507704
H            4.89017739036475        0.24900969018529        2.77615358609701
H            4.18172314587349        1.84018358732721        2.47209188722301
H            5.93795669828744        1.62464743891437        2.38384656959612
H            5.96634845758280        2.55127940255075       -0.00959719679306
H            4.21880232063258        2.80626397472182        0.12951845471040
H            4.86902724811398        1.84435858646831       -1.21024339266674
H            6.93985840438697        0.27978106295145        0.53807318772691
H            5.92706374029274       -0.38692001170689       -0.75333683006915
H            5.85935324354787       -1.08973062556745        0.85929438513909
H           -0.38728260466928        1.29932438515109        0.88823837989930
H           -1.37465945711283        2.39224344653614       -0.97158738423661
H           -2.85066788520150        4.35366378569039       -1.21891291475009
H           -5.25171021058641        4.19139921061874       -0.75332502072297
H           -6.26655454186377        2.04619518141372       -0.05529864135777
H           -6.72935369874959       -0.58822727249263        0.66268372541006
H           -6.50571950681429       -2.98195006264120        1.24444526802635
H           -4.31355203046638       -4.07705584202236        1.24354279403306
H           -2.27026632950269       -2.82571580478380        0.64354459726244
H           -1.41685059001908       -2.14754962784386       -1.49171705628694
H            0.99959932133445       -2.71110740704057       -1.73259746402638

          :  Hamiltonian                  GFN2-xTB          :
         :: gradient norm              0.000057541320 Eh/a0 ::
         :: HOMO-LUMO gap              0.422537700856 eV    ::
         :: SCC energy               -81.954503553727 Eh    ::
         :: -> dispersion             -0.065356547617 Eh    ::
         :: -> Gsolv                  -0.046742350292 Eh    ::
         :: repulsion energy           1.203447776069 Eh    ::

    * Orbital Energies and Occupations

         #    Occupation            Energy/Eh            Energy/eV
      -------------------------------------------------------------
         1        2.0000           -0.7771260             -21.1467
       ...           ...                  ...                  ...
        62        2.0000           -0.4435998             -12.0710
        63        2.0000           -0.4429754             -12.0540
        64        2.0000           -0.4425895             -12.0435
        65        2.0000           -0.4411225             -12.0036
        66        2.0000           -0.4332430             -11.7891
        67        2.0000           -0.4322519             -11.7622
        68        2.0000           -0.4215531             -11.4710
        69        2.0000           -0.4179089             -11.3719
        70        2.0000           -0.4074173             -11.0864
        71        2.0000           -0.4039701             -10.9926
        72        1.9693           -0.3949689             -10.7477
        73        1.0307           -0.3884071             -10.5691
        74        0.9997           -0.2869303              -7.8078 (HOMO)
        75        0.0003           -0.2714018              -7.3852 (LUMO)
        76                         -0.2539521              -6.9104
        77                         -0.2522417              -6.8638
        78                         -0.2221603              -6.0453
        79                         -0.2131283              -5.7995
        80                         -0.1897619              -5.1637
        81                         -0.1371448              -3.7319
        82                         -0.1248725              -3.3980
        83                         -0.1166357              -3.1738
        84                         -0.1045740              -2.8456
        85                         -0.0900660              -2.4508
       ...                                ...                  ...
       141                          1.2057432              32.8099
      -------------------------------------------------------------
                  HL-Gap            0.0155285 Eh            0.4226 eV

     #   Z          covCN         q      C6AA      α(0)
     1   6 C        3.759    -0.117    22.791     6.806
     2   6 C        3.864     0.104    18.827     6.170
     3   6 C        3.758    -0.114    22.729     6.797
     4   6 C        3.766    -0.124    22.909     6.822
     5   7 N        2.758    -0.279    27.191     7.745
     6   6 C        2.927     0.243    22.953     7.857
     7   8 O        0.857    -0.481    23.373     6.482
     8   6 C        3.150    -0.060    29.189     8.837
     9   6 C        2.913    -0.034    28.837     8.806
    10   6 C        2.909     0.051    26.846     8.496
    11   7 N        2.802     0.039    20.554     6.733
    12   6 C        3.069     0.045    26.916     8.507
    13   6 C        2.909    -0.028    28.699     8.784
    14   6 C        2.921    -0.024    28.607     8.771
    15   6 C        2.920    -0.019    28.476     8.751
    16   6 C        2.911    -0.020    28.505     8.755
    17   6 C        3.061    -0.001    27.983     8.675
    18   6 C        3.060    -0.000    27.977     8.674
    19   6 C        2.911    -0.020    28.496     8.753
    20   6 C        2.920    -0.019    28.472     8.750
    21   6 C        2.921    -0.024    28.610     8.771
    22   6 C        2.909    -0.029    28.716     8.787
    23   6 C        3.070     0.046    26.906     8.505
    24   6 C        2.919    -0.066    29.636     8.927
    25   6 C        2.919    -0.017    28.440     8.745
    26   6 C        2.982    -0.119    31.012     9.135
    27  16 S        3.984     1.108   103.606    17.131
    28   8 O        0.860    -0.586    25.780     6.808
    29   8 O        0.860    -0.602    26.172     6.859
    30   1 H        0.925     0.043     2.408     2.427
    31   1 H        0.925     0.070     2.085     2.258
    32   1 H        0.925     0.056     2.247     2.344
    33   1 H        0.925     0.055     2.256     2.349
    34   1 H        0.925     0.056     2.249     2.345
    35   1 H        0.925     0.039     2.468     2.456
    36   1 H        0.925     0.060     2.197     2.318
    37   1 H        0.925     0.045     2.377     2.411
    38   1 H        0.925     0.050     2.314     2.379
    39   1 H        0.926     0.065     2.139     2.287
    40   1 H        0.926     0.056     2.246     2.343
    41   1 H        0.926     0.057     2.232     2.336
    42   1 H        0.926     0.061     2.185     2.311
    43   1 H        0.926     0.065     2.147     2.291
    44   1 H        0.926     0.064     2.153     2.295
    45   1 H        0.926     0.061     2.183     2.311
    46   1 H        0.926     0.059     2.209     2.324
    47   1 H        0.926     0.062     2.178     2.308
    48   1 H        0.926     0.066     2.129     2.282
    49   1 H        0.926     0.053     2.287     2.365

molecular dipole:
                 x           y           z       tot (Debye)
 q only:       -6.414       0.345       0.343
   full:       -6.007       0.261       0.204      15.291

 projected vibrational frequencies (cm⁻¹)
eigval :       -0.00    -0.00     0.00     0.00     0.00     0.00
eigval :       23.11    26.58    39.88    40.79    56.11    85.07
eigval :       98.07   125.76   130.42   140.87   142.89   162.13
eigval :      195.46   207.31   216.73   240.13   250.75   256.32
eigval :      266.96   267.17   285.04   291.11   305.97   345.53
eigval :      350.66   352.50   372.58   376.52   394.19   401.87
eigval :      412.43   419.08   432.02   460.68   481.30   492.52
eigval :      506.21   509.14   525.10   538.06   542.88   551.12
eigval :      577.95   584.58   613.17   631.20   653.56   654.56
eigval :      672.75   709.69   722.65   736.36   752.96   770.23
eigval :      773.52   826.64   845.04   866.08   867.61   871.16
eigval :      877.57   893.86   907.61   909.01   920.59   926.55
eigval :      933.23   950.74   955.85   963.39   975.76  1004.05
eigval :     1009.89  1029.61  1042.77  1060.95  1064.17  1076.70
eigval :     1087.27  1096.95  1117.43  1141.31  1158.24  1167.66
eigval :     1175.84  1190.83  1196.79  1212.22  1213.96  1214.69
eigval :     1225.25  1236.19  1243.44  1255.22  1274.88  1291.70
eigval :     1302.81  1335.55  1356.85  1368.78  1382.66  1389.13
eigval :     1391.09  1397.74  1411.99  1414.08  1446.00  1455.18
eigval :     1462.94  1466.67  1476.86  1481.30  1482.50  1489.72
eigval :     1500.68  1504.60  1550.48  1551.69  1553.41  1567.60
eigval :     1586.18  3026.99  3032.25  3034.11  3036.14  3039.62
eigval :     3040.55  3043.77  3046.08  3051.99  3089.28  3091.48
eigval :     3091.86  3096.42  3098.25  3099.00  3104.66  3106.11
eigval :     3109.18  3109.82  3121.74

   temp. (K)  partition function   enthalpy   heat capacity  entropy
                                   cal/mol     cal/K/mol   cal/K/mol   J/K/mol
 298.15  VIB  0.441E+10            14299.476     92.477     85.710
         ROT  0.191E+08              888.752      2.981     36.296
         INT  0.842E+17            15188.228     95.458    122.006
         TR   0.787E+28             1481.254      4.968     43.864
         TOT                       16669.4820   100.4264   165.8692   693.9967

       T/K    H(0)-H(T)+PV         H(T)/Eh          T*S/Eh         G(T)/Eh
   ------------------------------------------------------------------------
    298.15    0.265645E-01    0.396189E+00    0.788098E-01    0.317380E+00
   ------------------------------------------------------------------------

         :::::::::::::::::::::::::::::::::::::::::::::::::::::
         ::                  THERMODYNAMIC                  ::
         :::::::::::::::::::::::::::::::::::::::::::::::::::::
         :: total free energy         -80.433676099996 Eh   ::
         ::.................................................::
         :: total energy              -80.751055776067 Eh   ::
         :: zero point energy           0.369624976186 Eh   ::
         :: G(RRHO) w/o ZPVE           -0.052245300114 Eh   ::
         :: G(RRHO) contrib.            0.317379676072 Eh   ::
         :::::::::::::::::::::::::::::::::::::::::::::::::::::

           -------------------------------------------------
          | TOTAL ENERGY              -80.751055776067 Eh   |
          | TOTAL ENTHALPY            -80.354866289457 Eh   |
          | TOTAL FREE ENERGY         -80.433676099996 Eh   |
          | GRADIENT NORM               0.000056476460 Eh/α |
          | HOMO-LUMO GAP               0.422551285687 eV   |
           -------------------------------------------------

 * finished run on 2025/08/23 at 09:13:18.262
