   * xtb version 6.7.1 (edcfbbe) compiled by 'albert@albert-system' on 2024-07-22

   ID    Z sym.   atoms
    1    6 C      1-4, 6, 8-10, 12-26
    2    7 N      5, 11
    3    8 O      7, 28, 29
    4   16 S      27
    5    1 H      30-49

          program call               : xtb data2507/toluene/5-Cz-Sac/5-Cz-Sac_toluene_S0_finalOpt.xtbopt.xyz --gfn 2 --uhf 2 --gbsa toluene --ohess vtight --parallel 40 --molden --ceasefiles --namespace data2507/toluene/5-Cz-Sac/5-Cz-Sac_toluene_T1_preOpt
      * Solvation model:               GBSA
        Solvent                        toluene
        Solvent mass                       9.2140E+01 g/mol
          :  Hamiltonian                  GFN2-xTB          :
 * total energy  :   -80.7431609 Eh     change       -0.2565822E-07 Eh
 * total energy  :   -80.7483262 Eh     change       -0.5165275E-02 Eh
 * total energy  :   -80.7503973 Eh     change       -0.2071091E-02 Eh
 * total energy  :   -80.7506104 Eh     change       -0.2130896E-03 Eh
 * total energy  :   -80.7507618 Eh     change       -0.1514245E-03 Eh
 * total energy  :   -80.7507905 Eh     change       -0.2868859E-04 Eh
 * total energy  :   -80.7508147 Eh     change       -0.2421465E-04 Eh
 * total energy  :   -80.7508256 Eh     change       -0.1089564E-04 Eh
 * total energy  :   -80.7508262 Eh     change       -0.6523456E-06 Eh
 * total energy  :   -80.7508341 Eh     change       -0.7816596E-05 Eh
 * total energy  :   -80.7510533 Eh     change       -0.1065352E-05 Eh
 * total energy  :   -80.7510544 Eh     change       -0.1064866E-05 Eh
 * total energy  :   -80.7510553 Eh     change       -0.8679447E-06 Eh
 * total energy  :   -80.7510560 Eh     change       -0.7341045E-06 Eh
 * total energy  :   -80.7510568 Eh     change       -0.7746656E-06 Eh
 * total energy  :   -80.7510574 Eh     change       -0.5711600E-06 Eh
 * total energy  :   -80.7510578 Eh     change       -0.4077799E-06 Eh
 * total energy  :   -80.7510582 Eh     change       -0.4091831E-06 Eh
 * total energy  :   -80.7510582 Eh     change       -0.2630021E-07 Eh
   *** GEOMETRY OPTIMIZATION CONVERGED AFTER 44 ITERATIONS ***

 final structure:
================
49
 xtb: 6.7.1 (edcfbbe)
C            5.97557160014960       -0.16726242959959        0.29317615055023
C            4.87048933901747        0.80445479208214        0.71291791456002
C            4.98149155960825        1.08164916130123        2.21558179961688
C            4.99768700561036        2.10476201962646       -0.09155043950485
N            3.57090685439335        0.18823087402002        0.43183650503264
C            2.36215769354405        0.83403879849233        0.72892345153644
O            2.28893385116306        1.88472292223343        1.39594472231418
C            1.26578537500921        0.13638237226176        0.15682993825878
C           -0.09686675441860        0.44562701913339        0.29945779241080
C           -1.04274643884777       -0.37740309052421       -0.27336924332442
N           -2.39572774508877       -0.09511995237470       -0.12468365176746
C           -2.98753177780783        1.13797395535209       -0.30106748900318
C           -2.42057141247186        2.34019577301808       -0.71335268572743
C           -3.25680878919336        3.43695149423092       -0.83929939605094
C           -4.62007579570174        3.34157819463546       -0.57627033829039
C           -5.19777532399496        2.13518173906606       -0.19488535896198
C           -4.38120849835129        1.02817379955889       -0.06125811646863
C           -4.62612510154589       -0.35304751003120        0.28504804859649
C           -5.76005065184594       -1.06149055987012        0.63402011154908
C           -5.62819846760866       -2.41186111614007        0.94161898955040
C           -4.38602381291325       -3.03883447763957        0.91999893280932
C           -3.23611322953627       -2.34707904331136        0.57793759615386
C           -3.36726011560862       -1.00446624657640        0.23474974079154
C           -0.66059456807722       -1.53454957490061       -1.03365371761756
C            0.68350319376258       -1.81944439122784       -1.20785146772600
C            1.62533497537949       -1.00282662212943       -0.63464240709236
S            3.37592035503345       -1.04860537983111       -0.71063087572185
O            3.91877800904970       -2.28571614307101       -0.20492244941425
O            3.88188048934295       -0.63994479792559       -2.00328988469509
H            5.92717218993603       -0.36012442791120       -0.77547495654593
H            5.86442785478757       -1.11524821649267        0.81359592460924
H            6.94383937748096        0.26422285867822        0.53388147278073
H            5.94358597140946        1.53657901231149        2.43343229752671
H            4.88867756236558        0.15265550531129        2.77362980677030
H            4.18813095821323        1.75716966050461        2.52653669983173
H            5.97268836449710        2.55389554683008        0.07542987517023
H            4.22490347066386        2.80422107690764        0.22009394951178
H            4.87758765143783        1.89144113768628       -1.15233705417440
H           -0.38212917274398        1.28410659446921        0.91587207020718
H           -1.36804624900417        2.41409232620734       -0.93668782124742
H           -2.84088237420715        4.38223805173567       -1.15196864853865
H           -5.24105302972983        4.21783711784089       -0.68285789886901
H           -6.25855629455371        2.06493632535580       -0.01326876592721
H           -6.72370662494119       -0.57872410311000        0.67213377681872
H           -6.50276695330919       -2.98141443361684        1.21659265558370
H           -4.31375937613180       -4.08227174845248        1.18500540064952
H           -2.27042332228475       -2.82678735774020        0.59266432986307
H           -1.41866868776085       -2.10711220329217       -1.53939278622133
H            0.99780578140608       -2.66362245129225       -1.80207525617486

          :  Hamiltonian                  GFN2-xTB          :
         :: gradient norm              0.000080463674 Eh/a0 ::
         :: HOMO-LUMO gap              0.421620955977 eV    ::
         :: SCC energy               -81.954560083919 Eh    ::
         :: -> dispersion             -0.065344372890 Eh    ::
         :: -> Gsolv                  -0.046751265203 Eh    ::
         :: repulsion energy           1.203501885772 Eh    ::

    * Orbital Energies and Occupations

         #    Occupation            Energy/Eh            Energy/eV
      -------------------------------------------------------------
         1        2.0000           -0.7771095             -21.1462
       ...           ...                  ...                  ...
        62        2.0000           -0.4435969             -12.0709
        63        2.0000           -0.4429578             -12.0535
        64        2.0000           -0.4426375             -12.0448
        65        2.0000           -0.4411384             -12.0040
        66        2.0000           -0.4332553             -11.7895
        67        2.0000           -0.4322273             -11.7615
        68        2.0000           -0.4215083             -11.4698
        69        2.0000           -0.4179203             -11.3722
        70        2.0000           -0.4074408             -11.0870
        71        2.0000           -0.4039012             -10.9907
        72        1.9694           -0.3950141             -10.7489
        73        1.0306           -0.3884505             -10.5703
        74        0.9997           -0.2869005              -7.8070 (HOMO)
        75        0.0003           -0.2714058              -7.3853 (LUMO)
        76                         -0.2538998              -6.9090
        77                         -0.2522544              -6.8642
        78                         -0.2221869              -6.0460
        79                         -0.2131533              -5.8002
        80                         -0.1897342              -5.1629
        81                         -0.1371581              -3.7323
        82                         -0.1248259              -3.3967
        83                         -0.1167454              -3.1768
        84                         -0.1046545              -2.8478
        85                         -0.0900875              -2.4514
       ...                                ...                  ...
       141                          1.2056133              32.8064
      -------------------------------------------------------------
                  HL-Gap            0.0154948 Eh            0.4216 eV

     #   Z          covCN         q      C6AA      α(0)
     1   6 C        3.766    -0.124    22.910     6.822
     2   6 C        3.864     0.104    18.827     6.170
     3   6 C        3.759    -0.117    22.790     6.806
     4   6 C        3.758    -0.114    22.728     6.797
     5   7 N        2.758    -0.279    27.186     7.744
     6   6 C        2.926     0.243    22.953     7.857
     7   8 O        0.857    -0.481    23.372     6.482
     8   6 C        3.150    -0.060    29.190     8.837
     9   6 C        2.913    -0.034    28.836     8.806
    10   6 C        2.909     0.051    26.848     8.496
    11   7 N        2.802     0.039    20.555     6.734
    12   6 C        3.069     0.045    26.914     8.507
    13   6 C        2.909    -0.028    28.698     8.784
    14   6 C        2.921    -0.024    28.606     8.771
    15   6 C        2.920    -0.019    28.476     8.751
    16   6 C        2.911    -0.020    28.504     8.755
    17   6 C        3.061    -0.001    27.983     8.675
    18   6 C        3.060    -0.000    27.977     8.674
    19   6 C        2.911    -0.020    28.496     8.753
    20   6 C        2.920    -0.019    28.472     8.750
    21   6 C        2.921    -0.024    28.609     8.771
    22   6 C        2.909    -0.029    28.715     8.787
    23   6 C        3.070     0.046    26.904     8.505
    24   6 C        2.919    -0.066    29.636     8.927
    25   6 C        2.919    -0.017    28.439     8.745
    26   6 C        2.982    -0.119    31.012     9.135
    27  16 S        3.983     1.108   103.609    17.132
    28   8 O        0.860    -0.586    25.782     6.808
    29   8 O        0.860    -0.602    26.170     6.859
    30   1 H        0.925     0.046     2.377     2.411
    31   1 H        0.925     0.050     2.314     2.379
    32   1 H        0.925     0.060     2.197     2.318
    33   1 H        0.925     0.056     2.247     2.344
    34   1 H        0.925     0.043     2.410     2.427
    35   1 H        0.925     0.070     2.088     2.260
    36   1 H        0.925     0.055     2.256     2.349
    37   1 H        0.925     0.056     2.245     2.343
    38   1 H        0.925     0.039     2.469     2.457
    39   1 H        0.926     0.065     2.140     2.288
    40   1 H        0.926     0.056     2.247     2.344
    41   1 H        0.926     0.057     2.232     2.336
    42   1 H        0.926     0.061     2.184     2.311
    43   1 H        0.926     0.065     2.146     2.291
    44   1 H        0.926     0.064     2.153     2.295
    45   1 H        0.926     0.061     2.183     2.310
    46   1 H        0.926     0.059     2.209     2.324
    47   1 H        0.926     0.062     2.179     2.308
    48   1 H        0.926     0.066     2.130     2.282
    49   1 H        0.926     0.053     2.287     2.365

molecular dipole:
                 x           y           z       tot (Debye)
 q only:       -6.414       0.349       0.360
   full:       -6.007       0.268       0.219      15.293

 projected vibrational frequencies (cm⁻¹)
eigval :       -0.00    -0.00    -0.00     0.00     0.00     0.00
eigval :       24.15    25.57    39.51    40.33    55.27    82.30
eigval :       98.31   125.26   129.77   140.04   142.68   160.04
eigval :      196.37   211.13   216.83   240.14   250.92   258.51
eigval :      266.82   270.98   287.47   291.37   306.04   345.51
eigval :      351.02   352.50   372.99   376.48   393.97   401.87
eigval :      412.66   420.01   431.95   460.87   481.17   491.67
eigval :      506.11   509.02   524.95   537.86   542.78   550.81
eigval :      577.38   583.83   613.43   629.65   653.37   654.50
eigval :      672.60   710.34   720.02   736.27   752.93   769.64
eigval :      772.70   826.88   844.42   865.96   867.60   870.98
eigval :      878.48   893.85   906.96   908.37   918.53   926.96
eigval :      934.05   951.01   955.89   964.09   976.19  1004.04
eigval :     1009.81  1029.90  1043.60  1060.87  1063.89  1076.59
eigval :     1087.50  1097.08  1117.25  1141.35  1158.19  1167.52
eigval :     1175.51  1190.80  1196.94  1212.13  1214.24  1214.64
eigval :     1225.39  1236.16  1243.56  1255.30  1274.73  1291.70
eigval :     1302.75  1335.67  1356.87  1368.71  1382.54  1389.36
eigval :     1391.06  1397.65  1412.58  1414.15  1445.95  1455.33
eigval :     1463.24  1466.59  1477.65  1481.48  1483.43  1490.27
eigval :     1500.85  1505.10  1550.53  1551.85  1553.38  1567.75
eigval :     1586.15  3026.74  3032.04  3034.00  3036.08  3039.17
eigval :     3040.47  3044.16  3045.35  3051.94  3089.69  3091.29
eigval :     3091.73  3096.39  3098.09  3098.86  3104.57  3106.08
eigval :     3109.00  3109.71  3121.74

   temp. (K)  partition function   enthalpy   heat capacity  entropy
                                   cal/mol     cal/K/mol   cal/K/mol   J/K/mol
 298.15  VIB  0.461E+10            14298.939     92.427     85.720
         ROT  0.191E+08              888.752      2.981     36.296
         INT  0.879E+17            15187.692     95.408    122.016
         TR   0.787E+28             1481.254      4.968     43.864
         TOT                       16668.9455   100.3757   165.8794   694.0392

       T/K    H(0)-H(T)+PV         H(T)/Eh          T*S/Eh         G(T)/Eh
   ------------------------------------------------------------------------
    298.15    0.265637E-01    0.396191E+00    0.788146E-01    0.317376E+00
   ------------------------------------------------------------------------

         :::::::::::::::::::::::::::::::::::::::::::::::::::::
         ::                  THERMODYNAMIC                  ::
         :::::::::::::::::::::::::::::::::::::::::::::::::::::
         :: total free energy         -80.433682062733 Eh   ::
         ::.................................................::
         :: total energy              -80.751058196504 Eh   ::
         :: zero point energy           0.369627113694 Eh   ::
         :: G(RRHO) w/o ZPVE           -0.052250979924 Eh   ::
         :: G(RRHO) contrib.            0.317376133771 Eh   ::
         :::::::::::::::::::::::::::::::::::::::::::::::::::::

           -------------------------------------------------
          | TOTAL ENERGY              -80.751058196504 Eh   |
          | TOTAL ENTHALPY            -80.354867427277 Eh   |
          | TOTAL FREE ENERGY         -80.433682062733 Eh   |
          | GRADIENT NORM               0.000080590965 Eh/α |
          | HOMO-LUMO GAP               0.421634037271 eV   |
           -------------------------------------------------

 * finished run on 2025/08/23 at 09:10:44.999
