   * xtb version 6.7.1 (edcfbbe) compiled by 'albert@albert-system' on 2024-07-22

   ID    Z sym.   atoms
    1    6 C      1-5, 7-13, 15-18, 20-26, 28-32, 34-46, 48-54, 56-60, 62, 63
    2    7 N      6, 14, 19, 27, 33, 47, 55, 61
    3    1 H      64-97

          program call               : xtb data2507/toluene/CzDCbTrz/CzDCbTrz_toluene_S0_finalOpt.xtbopt.xyz --gfn 2 --uhf 2 --gbsa toluene --ohess vtight --parallel 40 --molden --ceasefiles --namespace data2507/toluene/CzDCbTrz/CzDCbTrz_toluene_T1_preOpt
      * Solvation model:               GBSA
        Solvent                        toluene
        Solvent mass                       9.2140E+01 g/mol
          :  Hamiltonian                  GFN2-xTB          :
 * total energy  :  -158.6204528 Eh     change        0.7203579E-07 Eh
 * total energy  :  -158.6231736 Eh     change       -0.2720790E-02 Eh
 * total energy  :  -158.6247896 Eh     change       -0.1615953E-02 Eh
 * total energy  :  -158.6249417 Eh     change       -0.1521559E-03 Eh
 * total energy  :  -158.6250617 Eh     change       -0.1200103E-03 Eh
 * total energy  :  -158.6250850 Eh     change       -0.2330327E-04 Eh
 * total energy  :  -158.6250993 Eh     change       -0.1427744E-04 Eh
 * total energy  :  -158.6251076 Eh     change       -0.8323852E-05 Eh
 * total energy  :  -158.6251208 Eh     change       -0.1316815E-04 Eh
 * total energy  :  -158.6251342 Eh     change       -0.1340779E-04 Eh
 * total energy  :  -158.6252715 Eh     change       -0.2519880E-06 Eh
 * total energy  :  -158.6252716 Eh     change       -0.1139611E-06 Eh
 * total energy  :  -158.6252715 Eh     change        0.3294443E-07 Eh
 * total energy  :  -158.6252717 Eh     change       -0.1659710E-06 Eh
 * total energy  :  -158.6252719 Eh     change       -0.2165044E-06 Eh
 * total energy  :  -158.6252721 Eh     change       -0.1648828E-06 Eh
 * total energy  :  -158.6252722 Eh     change       -0.1118750E-06 Eh
 * total energy  :  -158.6252723 Eh     change       -0.1101091E-06 Eh
 * total energy  :  -158.6252723 Eh     change       -0.2334531E-08 Eh
   *** GEOMETRY OPTIMIZATION CONVERGED AFTER 44 ITERATIONS ***

 final structure:
================
97
 xtb: 6.7.1 (edcfbbe)
C            7.24168236344380        4.77091378398199       -0.39926926529857
C            7.92195517745239        3.56268541532671       -0.39093006799100
C            7.22411728053714        2.37384958283742       -0.30185320132603
C            5.83143194744460        2.38188049105572       -0.22134592509377
C            5.09229361341029        1.12601769196390       -0.12024883657699
N            5.79963756233874       -0.01522935162202       -0.01189514707187
C            5.08695448853915       -1.15295122236175        0.09821044157937
C            5.82021035158903       -2.41251204311361        0.19637326906161
C            5.13651870125571       -3.62910316480110        0.20495788934602
C            5.83424545418137       -4.81742512771123        0.28999947735399
C            7.21939038989961       -4.80844344454603        0.36888597497155
C            7.90533018719415       -3.60341799906786        0.36183244247122
C            7.21299783593940       -2.41117841533434        0.27539348845328
N            3.77896978198853       -1.18298925263954        0.12119867016288
C            3.10963522136293       -0.00848617656589       -0.00731618908750
C            1.69401331119148       -0.00471360822535       -0.00383918293882
C            0.96345451285036       -1.19092439596830        0.23042043117808
C           -0.41049634791896       -1.18863600622717        0.24086108060810
N           -1.10302745122574       -2.38944886038755        0.49250337720501
C           -2.11499800066349       -2.58310988744079        1.41460689497695
C           -2.53586219981737       -1.75417183573032        2.44459359200871
C           -3.57827252310654       -2.19132357733529        3.23879336919474
C           -4.18097213969022       -3.43150414597831        3.03325183744911
C           -3.73408637554823       -4.28410284606158        2.04370669013706
C           -2.68771549668133       -3.86246292474116        1.23235160446092
C           -1.95943555781950       -4.47751660766449        0.16067017370005
N           -2.09598733732348       -5.66828084419750       -0.39829239686704
C           -1.27871870054533       -5.97116860204998       -1.38808271608057
C           -0.29954305056929       -5.10730073399352       -1.87875252782341
C           -0.13348363999976       -3.85624136923331       -1.30819441460186
C           -0.97876613042850       -3.53428357064152       -0.25687838293083
C           -1.13610475962516        0.00308716092607        0.00335012368776
N           -2.53669426977726        0.00701712397619        0.00682260915360
C           -3.34790087477774       -0.76877767801724       -0.79519672853432
C           -2.99828014275177       -1.65944778454417       -1.80157050477152
C           -4.01739631317955       -2.31302709136827       -2.46815291846044
C           -5.35359080237447       -2.07468902335276       -2.15728987619712
C           -5.70846630585236       -1.15469910709690       -1.18524108683637
C           -4.70266610416513       -0.49047570849471       -0.50151003437547
C           -4.69720650886427        0.51814978279432        0.52478735128119
C           -5.69571851156823        1.18877812687608        1.21293485879163
C           -5.33069438713085        2.10636918027471        2.18348807831270
C           -3.99165794339664        2.33603653353014        2.48859410166558
C           -2.97967741644645        1.67609067940513        1.81742892182465
C           -3.33942300419928        0.78784184130940        0.81247841464499
C           -0.40514406222400        1.19081238163859       -0.23778310142547
N           -1.09227559081030        2.39547374700496       -0.48578459618481
C           -2.10773295700346        2.59491866959567       -1.40280259947221
C           -2.53813040128733        1.76863559046878       -2.43098585989650
C           -3.58196441814233        2.21178666676293       -3.21997850794575
C           -4.17685832168299        3.45517949013583       -3.01109534756259
C           -3.72058425774283        4.30493141785396       -2.02338760768871
C           -2.67257067431716        3.87730567305902       -1.21731542951991
C           -1.93558848783235        4.48808239379723       -0.14915088329308
N           -2.06291060113373        5.67939803363886        0.41083422609630
C           -1.23894864413026        5.97757777964680        1.39650477029274
C           -0.26197156625850        5.10829929516844        1.88197016687788
C           -0.10564295655736        3.85649057537666        1.31031172607010
C           -0.95800264652976        3.53940923658252        0.26323796828136
C            0.96882043744953        1.18551416633096       -0.23439091651134
N            3.78442423362026        1.16251237328601       -0.13887591209583
C            5.15346878136476        3.60167223549678       -0.23116923746929
C            5.85667604083502        4.78655462623609       -0.31896265672066
H            7.78918881267456        5.69918668031117       -0.46753860719619
H            9.00020222548086        3.54898652504758       -0.45390097736338
H            7.73823799626818        1.42490457681573       -0.29500382616986
H            4.05889139759978       -3.62025238314192        0.14155441009132
H            5.29867647143260       -5.75553124919362        0.29470059378330
H            7.76260027872968       -5.73938900534129        0.43501653320675
H            8.98369334066068       -3.59485836237357        0.42373126780292
H            7.73158683816075       -1.46466486457003        0.26955092023259
H            1.50792994689293       -2.09822600840606        0.43734162469327
H           -2.05650216412304       -0.80600869608580        2.63090452827899
H           -3.92896635686508       -1.55747081884406        4.03941714953675
H           -4.99729433122210       -3.73257508734583        3.67190956371092
H           -4.17175174838940       -5.25849741565294        1.89466614118654
H           -1.40941657503675       -6.95617523913647       -1.81469022066582
H            0.32991256293013       -5.42105223522555       -2.69643751160028
H            0.62015049937099       -3.16862855219754       -1.66519426908360
H           -1.96580240574279       -1.82883384364560       -2.06807241975419
H           -3.76936280074346       -3.01865570349489       -3.24691555999463
H           -6.12256970695597       -2.60759205197249       -2.69559444251529
H           -6.74551006127104       -0.95405283318008       -0.96550716427001
H           -6.73497447624792        0.99481081548512        0.99772300190978
H           -6.09387612982197        2.64414174478024        2.72518864665156
H           -3.73575890225636        3.03982333129171        3.26647810056905
H           -1.94494967270478        1.83879343349114        2.07937789327719
H           -2.06488138293492        0.81790523851086       -2.61986141018304
H           -3.94005178426930        1.58014623743332       -4.01907416426885
H           -4.99453648426028        3.76097535023715       -3.64576036488365
H           -4.15211205393972        5.28168261277945       -1.87193136145030
H           -1.36214992337514        6.96316012819749        1.82401842785534
H            0.37333441684429        5.41842205874180        2.69650876054841
H            0.64605514190787        3.16469649380450        1.66328598597502
H            1.51722262154534        2.08983676234067       -0.44398262065696
H            4.07587860536525        3.59797732520694       -0.16661319452131
H            5.32550603481564        5.72715221494520       -0.32471107239005

          :  Hamiltonian                  GFN2-xTB          :
         :: gradient norm              0.000064921433 Eh/a0 ::
         :: HOMO-LUMO gap              0.299863978675 eV    ::
         :: SCC energy              -161.485878413879 Eh    ::
         :: -> dispersion             -0.160250891106 Eh    ::
         :: -> Gsolv                  -0.068101619041 Eh    ::
         :: repulsion energy           2.860606128933 Eh    ::

    * Orbital Energies and Occupations

         #    Occupation            Energy/Eh            Energy/eV
      -------------------------------------------------------------
         1        2.0000           -0.6964558             -18.9515
       ...           ...                  ...                  ...
       136        2.0000           -0.4100299             -11.1575
       137        2.0000           -0.4088521             -11.1254
       138        2.0000           -0.4000932             -10.8871
       139        2.0000           -0.3992909             -10.8653
       140        2.0000           -0.3934285             -10.7057
       141        1.9991           -0.3845154             -10.4632
       142        1.9980           -0.3837643             -10.4428
       143        1.9971           -0.3834234             -10.4335
       144        1.9559           -0.3807845             -10.3617
       145        1.8572           -0.3795636             -10.3285
       146        1.6981           -0.3786573             -10.3038
       147        1.4946           -0.3778405             -10.2816
       148        0.9970           -0.2967262              -8.0743 (HOMO)
       149        0.0030           -0.2857057              -7.7744 (LUMO)
       150                         -0.2726006              -7.4178
       151                         -0.2722471              -7.4082
       152                         -0.2601436              -7.0789
       153                         -0.2527696              -6.8782
       154                         -0.2508297              -6.8254
       155                         -0.2452160              -6.6727
       156                         -0.2439029              -6.6369
       157                         -0.2360406              -6.4230
       158                         -0.2318189              -6.3081
       159                         -0.2318155              -6.3080
       ...                                ...                  ...
       286                          0.7316082              19.9081
      -------------------------------------------------------------
                  HL-Gap            0.0110204 Eh            0.2999 eV

     #   Z          covCN         q      C6AA      α(0)
     1   6 C        2.920    -0.027    28.664     8.780
     2   6 C        2.918    -0.029    28.713     8.787
     3   6 C        2.924    -0.028    28.706     8.786
     4   6 C        2.983    -0.008    28.218     8.714
     5   6 C        2.934     0.208    23.597     7.967
     6   7 N        1.844    -0.329    29.378     8.033
     7   6 C        2.934     0.208    23.597     7.967
     8   6 C        2.983    -0.008    28.218     8.714
     9   6 C        2.923    -0.029    28.727     8.789
    10   6 C        2.918    -0.029    28.723     8.789
    11   6 C        2.920    -0.027    28.664     8.780
    12   6 C        2.918    -0.029    28.713     8.787
    13   6 C        2.924    -0.028    28.706     8.786
    14   7 N        1.845    -0.296    28.521     7.915
    15   6 C        2.939     0.167    24.406     8.102
    16   6 C        2.976    -0.018    28.459     8.751
    17   6 C        2.923    -0.059    29.466     8.902
    18   6 C        2.906     0.049    26.898     8.504
    19   7 N        2.799    -0.044    22.088     6.980
    20   6 C        3.084     0.049    26.808     8.488
    21   6 C        2.910    -0.048    29.193     8.860
    22   6 C        2.924    -0.029    28.725     8.789
    23   6 C        2.920    -0.036    28.903     8.816
    24   6 C        2.912    -0.027    28.664     8.779
    25   6 C        3.063    -0.024    28.534     8.760
    26   6 C        3.068     0.073    26.301     8.409
    27   7 N        1.833    -0.223    26.703     7.658
    28   6 C        2.916     0.049    26.891     8.504
    29   6 C        2.921    -0.044    29.098     8.846
    30   6 C        2.914    -0.034    28.857     8.809
    31   6 C        3.076     0.043    26.965     8.514
    32   6 C        2.910     0.013    27.729     8.635
    33   7 N        2.799    -0.022    21.673     6.914
    34   6 C        3.077     0.048    26.845     8.495
    35   6 C        2.910    -0.044    29.082     8.843
    36   6 C        2.923    -0.031    28.777     8.797
    37   6 C        2.920    -0.032    28.809     8.802
    38   6 C        2.912    -0.028    28.703     8.785
    39   6 C        3.067    -0.013    28.267     8.718
    40   6 C        3.067    -0.013    28.267     8.718
    41   6 C        2.912    -0.028    28.703     8.785
    42   6 C        2.920    -0.032    28.809     8.802
    43   6 C        2.923    -0.031    28.777     8.797
    44   6 C        2.910    -0.044    29.082     8.843
    45   6 C        3.077     0.048    26.845     8.495
    46   6 C        2.906     0.049    26.898     8.504
    47   7 N        2.799    -0.044    22.088     6.980
    48   6 C        3.084     0.049    26.808     8.488
    49   6 C        2.910    -0.048    29.193     8.860
    50   6 C        2.924    -0.029    28.724     8.789
    51   6 C        2.921    -0.036    28.903     8.816
    52   6 C        2.912    -0.027    28.664     8.779
    53   6 C        3.063    -0.024    28.534     8.760
    54   6 C        3.068     0.073    26.301     8.409
    55   7 N        1.833    -0.223    26.703     7.658
    56   6 C        2.916     0.049    26.891     8.504
    57   6 C        2.921    -0.044    29.098     8.846
    58   6 C        2.914    -0.034    28.857     8.809
    59   6 C        3.076     0.043    26.965     8.514
    60   6 C        2.923    -0.059    29.466     8.902
    61   7 N        1.845    -0.296    28.520     7.915
    62   6 C        2.923    -0.029    28.727     8.789
    63   6 C        2.918    -0.029    28.723     8.789
    64   1 H        0.926     0.046     2.374     2.409
    65   1 H        0.926     0.044     2.399     2.422
    66   1 H        0.926     0.045     2.381     2.413
    67   1 H        0.926     0.042     2.427     2.436
    68   1 H        0.926     0.043     2.406     2.425
    69   1 H        0.926     0.046     2.374     2.409
    70   1 H        0.926     0.044     2.399     2.422
    71   1 H        0.926     0.045     2.381     2.413
    72   1 H        0.926     0.050     2.317     2.380
    73   1 H        0.926     0.032     2.559     2.502
    74   1 H        0.926     0.043     2.403     2.424
    75   1 H        0.926     0.046     2.374     2.409
    76   1 H        0.926     0.051     2.302     2.372
    77   1 H        0.925     0.046     2.371     2.408
    78   1 H        0.926     0.048     2.341     2.392
    79   1 H        0.926     0.039     2.457     2.451
    80   1 H        0.926     0.026     2.648     2.545
    81   1 H        0.926     0.040     2.450     2.448
    82   1 H        0.926     0.046     2.368     2.406
    83   1 H        0.926     0.049     2.334     2.389
    84   1 H        0.926     0.049     2.334     2.389
    85   1 H        0.926     0.046     2.368     2.406
    86   1 H        0.926     0.040     2.450     2.448
    87   1 H        0.926     0.026     2.648     2.545
    88   1 H        0.926     0.032     2.559     2.502
    89   1 H        0.926     0.043     2.403     2.424
    90   1 H        0.926     0.046     2.374     2.409
    91   1 H        0.926     0.051     2.302     2.372
    92   1 H        0.925     0.046     2.371     2.408
    93   1 H        0.926     0.048     2.341     2.392
    94   1 H        0.926     0.039     2.457     2.451
    95   1 H        0.926     0.050     2.317     2.380
    96   1 H        0.926     0.042     2.427     2.436
    97   1 H        0.926     0.043     2.406     2.426

molecular dipole:
                 x           y           z       tot (Debye)
 q only:       -2.050       0.006       0.005
   full:       -1.233       0.003       0.003       3.135

 projected vibrational frequencies (cm⁻¹)
eigval :       -0.00    -0.00    -0.00    -0.00    -0.00     0.00
eigval :       14.05    15.57    18.86    22.62    23.91    24.98
eigval :       27.21    42.43    42.87    43.49    51.40    54.07
eigval :       55.57    61.55    70.58    93.90   101.71   105.65
eigval :      108.44   110.83   120.25   120.81   124.99   142.52
eigval :      150.31   152.72   165.09   174.44   179.13   181.94
eigval :      192.86   212.97   213.82   229.71   234.00   247.85
eigval :      253.30   265.38   271.90   273.73   279.72   288.97
eigval :      320.69   346.99   354.04   367.01   368.70   369.56
eigval :      373.27   392.89   400.45   400.73   405.26   412.27
eigval :      413.79   419.64   423.22   425.73   433.34   435.53
eigval :      437.55   463.56   488.00   494.05   502.17   514.59
eigval :      520.31   521.13   535.58   538.39   540.64   542.73
eigval :      544.75   547.34   556.90   560.20   567.50   571.23
eigval :      583.35   584.78   587.04   588.17   588.91   610.49
eigval :      610.69   622.10   630.82   638.16   644.45   659.80
eigval :      664.98   667.81   672.98   679.43   681.08   683.00
eigval :      694.84   704.26   709.82   720.70   721.61   741.71
eigval :      754.78   760.05   765.58   766.24   768.59   778.13
eigval :      779.29   780.12   780.32   787.26   789.54   808.84
eigval :      822.10   839.26   858.71   872.56   874.16   874.45
eigval :      875.12   878.21   878.95   891.94   893.47   894.67
eigval :      896.04   896.58   903.13   903.99   904.54   905.07
eigval :      909.68   909.86   910.41   913.70   916.17   918.84
eigval :      923.47   924.13   926.91   927.21   927.86   928.48
eigval :      930.33   930.39   938.44   977.21   985.72   990.35
eigval :     1008.77  1018.63  1020.76  1035.86  1062.23  1063.72
eigval :     1063.97  1066.66  1070.09  1073.99  1075.28  1086.63
eigval :     1087.60  1092.72  1108.21  1109.90  1117.07  1136.81
eigval :     1139.10  1139.57  1140.81  1143.73  1159.79  1169.44
eigval :     1172.33  1173.85  1175.21  1176.29  1176.59  1177.08
eigval :     1177.58  1183.87  1186.84  1190.59  1204.32  1217.47
eigval :     1225.96  1229.52  1231.45  1235.44  1265.38  1266.22
eigval :     1272.15  1278.19  1278.83  1287.19  1288.14  1290.03
eigval :     1290.26  1294.06  1301.77  1321.05  1327.24  1328.32
eigval :     1329.03  1331.17  1336.95  1338.07  1339.72  1348.03
eigval :     1350.60  1362.01  1377.61  1381.19  1393.10  1404.53
eigval :     1409.85  1414.08  1418.29  1421.63  1424.84  1432.41
eigval :     1436.39  1438.42  1456.59  1462.65  1463.73  1464.57
eigval :     1469.56  1474.90  1480.97  1482.34  1482.48  1496.09
eigval :     1541.66  1544.60  1546.31  1563.08  1573.82  1574.62
eigval :     1575.31  1576.42  1576.55  1579.23  1581.61  1582.37
eigval :     1585.51  1592.45  1597.36  1597.56  1601.05  3065.63
eigval :     3065.68  3068.16  3068.34  3074.76  3074.93  3078.10
eigval :     3078.35  3080.52  3080.65  3083.73  3083.93  3086.64
eigval :     3087.09  3088.51  3088.85  3092.06  3092.32  3092.52
eigval :     3093.57  3094.67  3094.89  3097.98  3099.03  3100.29
eigval :     3100.37  3100.68  3101.39  3101.44  3102.08  3106.01
eigval :     3106.44  3108.41  3109.62

   temp. (K)  partition function   enthalpy   heat capacity  entropy
                                   cal/mol     cal/K/mol   cal/K/mol   J/K/mol
 298.15  VIB  0.133E+23            28765.358    181.733    178.133
         ROT  0.680E+08              888.752      2.981     38.822
         INT  0.908E+30            29654.110    184.714    216.955
         TR   0.222E+29             1481.254      4.968     45.921
         TOT                       31135.3644   189.6817   262.8763  1099.8745

       T/K    H(0)-H(T)+PV         H(T)/Eh          T*S/Eh         G(T)/Eh
   ------------------------------------------------------------------------
    298.15    0.496174E-01    0.772733E+00    0.124901E+00    0.647832E+00
   ------------------------------------------------------------------------

         :::::::::::::::::::::::::::::::::::::::::::::::::::::
         ::                  THERMODYNAMIC                  ::
         :::::::::::::::::::::::::::::::::::::::::::::::::::::
         :: total free energy        -157.977440052142 Eh   ::
         ::.................................................::
         :: total energy             -158.625272316221 Eh   ::
         :: zero point energy           0.723115921320 Eh   ::
         :: G(RRHO) w/o ZPVE           -0.075283657241 Eh   ::
         :: G(RRHO) contrib.            0.647832264079 Eh   ::
         :::::::::::::::::::::::::::::::::::::::::::::::::::::

           -------------------------------------------------
          | TOTAL ENERGY             -158.625272316221 Eh   |
          | TOTAL ENTHALPY           -157.852539033467 Eh   |
          | TOTAL FREE ENERGY        -157.977440052142 Eh   |
          | GRADIENT NORM               0.000037444561 Eh/α |
          | HOMO-LUMO GAP               0.299880637982 eV   |
           -------------------------------------------------

 * finished run on 2025/07/16 at 17:49:43.807
