   * xtb version 6.7.1 (edcfbbe) compiled by 'albert@albert-system' on 2024-07-22

   ID    Z sym.   atoms
    1    6 C      1-5, 7-13, 15-18, 20-26, 28-32, 34-46, 48-54, 56-60, 62, 63
    2    7 N      6, 14, 19, 27, 33, 47, 55, 61
    3    1 H      64-97

          program call               : xtb data2507/toluene/CzDCbTrz/CzDCbTrz_toluene_T1_crest.xyz --gfn 2 --uhf 2 --gbsa toluene --ohess vtight --parallel 40 --molden --ceasefiles --namespace data2507/toluene/CzDCbTrz/CzDCbTrz_toluene_T1_finalOpt
      * Solvation model:               GBSA
        Solvent                        toluene
        Solvent mass                       9.2140E+01 g/mol
          :  Hamiltonian                  GFN2-xTB          :
 * total energy  :  -158.6248646 Eh     change        0.1664725E-07 Eh
 * total energy  :  -158.6249662 Eh     change       -0.1015669E-03 Eh
 * total energy  :  -158.6250194 Eh     change       -0.5314193E-04 Eh
 * total energy  :  -158.6250430 Eh     change       -0.2366752E-04 Eh
 * total energy  :  -158.6250662 Eh     change       -0.2318053E-04 Eh
 * total energy  :  -158.6251201 Eh     change       -0.5388229E-04 Eh
 * total energy  :  -158.6251663 Eh     change       -0.4625756E-04 Eh
 * total energy  :  -158.6252105 Eh     change       -0.4418870E-04 Eh
 * total energy  :  -158.6252375 Eh     change       -0.2696139E-04 Eh
 * total energy  :  -158.6252517 Eh     change       -0.1420695E-04 Eh
 * total energy  :  -158.6254239 Eh     change       -0.6569915E-06 Eh
 * total energy  :  -158.6254245 Eh     change       -0.5830564E-06 Eh
 * total energy  :  -158.6254249 Eh     change       -0.3877516E-06 Eh
 * total energy  :  -158.6254251 Eh     change       -0.2089660E-06 Eh
 * total energy  :  -158.6254253 Eh     change       -0.1402859E-06 Eh
 * total energy  :  -158.6254254 Eh     change       -0.1121382E-06 Eh
 * total energy  :  -158.6254255 Eh     change       -0.1419378E-06 Eh
 * total energy  :  -158.6254257 Eh     change       -0.1421708E-06 Eh
 * total energy  :  -158.6254258 Eh     change       -0.9131361E-07 Eh
   *** GEOMETRY OPTIMIZATION CONVERGED AFTER 64 ITERATIONS ***

 final structure:
================
97
 xtb: 6.7.1 (edcfbbe)
C            7.20503820556196        4.83521100633795        0.26424287058606
C            7.89508852835124        3.63247813639469        0.26335837433941
C            7.20664266445854        2.43745261465202        0.18508789781205
C            5.81367057884387        2.43399388072035        0.10846658724415
C            5.08438593170399        1.17156022745527        0.02269407100783
N            5.79933385130689        0.03497979112462       -0.08501178294441
C            5.09522603888687       -1.10996091979182       -0.17703603743715
C            5.83667170227825       -2.36381999963266       -0.28025919384951
C            5.16157775684783       -3.58537923584597       -0.28046727965318
C            5.86730411196609       -4.76846289714228       -0.37197503622446
C            7.25151254066507       -4.74926731325410       -0.46501076893197
C            7.92873880712381       -3.53925583400373       -0.46587199364225
C            7.22865052394896       -2.35203445995684       -0.37345479048233
N            3.78776591726135       -1.14931325665733       -0.17776112659461
C            3.10836947271857        0.01918389323679       -0.05099313411093
C            1.69304460007441        0.01010367313005       -0.02752217254033
C            0.97092241907120       -1.18935881011105       -0.21559773017239
C           -0.40285544073909       -1.19990458009258       -0.19487152003839
N           -1.09402423070855       -2.41135353003586       -0.39892866544977
C           -0.95615314020018       -3.54748975195120        0.37882900736474
C           -0.07365300978768       -3.79925819342977        1.42084630143877
C           -0.16213355496507       -5.02252238784298        2.05751121292010
C           -1.10553169880714       -5.97702791602805        1.67790765356243
C           -1.99356477437484       -5.73003240420966        0.65014438172837
C           -1.92225770989079       -4.50609318035083       -0.00425667888209
C           -2.66778340939758       -3.91635164063443       -1.07852543074308
N           -3.67139671105443       -4.39849598595733       -1.79242928279030
C           -4.15040950808071       -3.63440056398511       -2.75524699297997
C           -3.63992036068050       -2.37674591484143       -3.07460558365618
C           -2.58370953416418       -1.85510335835487       -2.34718660289643
C           -2.10921259861982       -2.62605661876231       -1.29738682840597
C           -1.13299109291047       -0.00878414871430        0.02117737722905
N           -2.53564608742475       -0.01736213302082        0.04366155158420
C           -3.35956801035683        0.72435615514161       -0.77749554225742
C           -3.02474861494272        1.57946205985276       -1.81929053845902
C           -4.05464229388755        2.20216133250064       -2.49863696190067
C           -5.38634207873108        1.96901461587672       -2.16488116015081
C           -5.72626452332655        1.08768245581552       -1.15287488756695
C           -4.70973951796919        0.45424660834614       -0.45489567931738
C           -4.68758912859303       -0.51084184143734        0.61195145933786
C           -5.67469027081560       -1.15461747972244        1.34193943552508
C           -5.29353732121651       -2.03360051729222        2.34120749627348
C           -3.94946335121017       -2.25405170740481        2.63120807373207
C           -2.94825690730716       -1.62031438295564        1.91991874878315
C           -3.32500182843330       -0.76752954242540        0.89058784477149
C           -0.41166853523432        1.19189706172932        0.21301683311055
N           -1.11194698341187        2.39358120155447        0.44234255386856
C           -1.01830867826963        3.53160401413982       -0.33928380288852
C           -0.17528039951342        3.79732480909624       -1.41012265067516
C           -0.30507665866870        5.01859947798936       -2.04354509459357
C           -1.25101606865063        5.95761000285538       -1.63290069100159
C           -2.09979702914413        5.69681100525017       -0.57578473074400
C           -1.98643384267500        4.47466123065874        0.07595593448932
C           -2.68602152684114        3.87349276242589        1.17451275369836
N           -3.67281776371630        4.33981995817379        1.92153836479766
C           -4.10729616390035        3.56846323914405        2.89956479697385
C           -3.56651934131806        2.31917971211410        3.20138436509710
C           -2.52699107740886        1.81420964525015        2.43901658408855
C           -2.10001078618557        2.59231283528808        1.37418746257067
C            0.96201749170245        1.19981876396932        0.18610277603953
N            3.77696014491708        1.19614044983042        0.05567295458973
C            5.12561678486591        3.64825182756706        0.11034173574449
C            5.81976295318235        4.83923869127452        0.18701129083081
H            7.74533645027119        5.76825852923497        0.32426846480993
H            8.97354743453956        3.62783745180791        0.32378701366882
H            7.72845354913901        1.49268724076209        0.18438502574464
H            4.08469129930028       -3.58470954303231       -0.20547724786624
H            5.33854388186537       -5.71035603035539       -0.37049759928780
H            7.80089232744092       -5.67620452182038       -0.53621703819193
H            9.00632052213446       -3.52290177644034       -0.53869040307644
H            7.74031939880412       -1.40174098848621       -0.37389194158948
H            1.51913485982600       -2.09753743761030       -0.40721541841511
H            0.65647108987305       -3.06387312672935        1.72474191781640
H            0.51571015269660       -5.24277193287254        2.86881177212704
H           -1.14020780633406       -6.91991876978244        2.20218593680005
H           -2.73272273081754       -6.45680804402444        0.35244897760282
H           -4.97325495618813       -4.05505089141969       -3.31659528989361
H           -4.06169923816747       -1.81930331977168       -3.89564390261654
H           -2.14475715436783       -0.90184356412125       -2.60099990844347
H           -1.99597544131842        1.74914682238546       -2.09884164022523
H           -3.81797824019599        2.88053854651443       -3.30432858411017
H           -6.16417001958090        2.47680863333531       -2.71463714083748
H           -6.75995216491903        0.89302455844431       -0.91202300281383
H           -6.71746132897998       -0.96978764561213        1.13497615241220
H           -6.04814014091370       -2.54965553989454        2.91510050889698
H           -3.68020116561561       -2.93114255819830        3.42771586825616
H           -1.90936690874407       -1.78014716457972        2.16588142512313
H            0.55639617847298        3.07400210080024       -1.73820917424209
H            0.34191565165511        5.24954582596861       -2.87674016976239
H           -1.31879102083334        6.89943688844389       -2.15583735909172
H           -2.84065538106455        6.41133792348127       -0.25363408139821
H           -4.91765219250661        3.97600658055086        3.48809039665434
H           -3.95179776230919        1.75536454714390        4.03589378291162
H           -2.06446700381812        0.86830166163793        2.67824132728219
H            1.50441932772469        2.11509211209212        0.35961752616734
H            4.04798521360496        3.63584538219476        0.04818986659833
H            5.28102757191998        5.77546405592664        0.18667998287782

          :  Hamiltonian                  GFN2-xTB          :
         :: gradient norm              0.000049368067 Eh/a0 ::
         :: HOMO-LUMO gap              0.299734341157 eV    ::
         :: SCC energy              -161.485941579141 Eh    ::
         :: -> dispersion             -0.159942237209 Eh    ::
         :: -> Gsolv                  -0.067649519106 Eh    ::
         :: repulsion energy           2.860515828516 Eh    ::

    * Orbital Energies and Occupations

         #    Occupation            Energy/Eh            Energy/eV
      -------------------------------------------------------------
         1        2.0000           -0.6969466             -18.9649
       ...           ...                  ...                  ...
       136        2.0000           -0.4100602             -11.1583
       137        2.0000           -0.4088575             -11.1256
       138        2.0000           -0.4003901             -10.8952
       139        2.0000           -0.3997375             -10.8774
       140        2.0000           -0.3941509             -10.7254
       141        1.9960           -0.3841175             -10.4524
       142        1.9914           -0.3833848             -10.4324
       143        1.9786           -0.3825049             -10.4085
       144        1.9507           -0.3816822             -10.3861
       145        1.8581           -0.3805812             -10.3561
       146        1.6580           -0.3794929             -10.3265
       147        1.5671           -0.3791276             -10.3166
       148        0.9970           -0.2971466              -8.0858 (HOMO)
       149        0.0030           -0.2861314              -7.7860 (LUMO)
       150                         -0.2724932              -7.4149
       151                         -0.2720891              -7.4039
       152                         -0.2607935              -7.0966
       153                         -0.2531302              -6.8880
       154                         -0.2513646              -6.8400
       155                         -0.2450320              -6.6677
       156                         -0.2429708              -6.6116
       157                         -0.2366731              -6.4402
       158                         -0.2315098              -6.2997
       159                         -0.2314833              -6.2990
       ...                                ...                  ...
       286                          0.7299730              19.8636
      -------------------------------------------------------------
                  HL-Gap            0.0110152 Eh            0.2997 eV

     #   Z          covCN         q      C6AA      α(0)
     1   6 C        2.920    -0.026    28.656     8.778
     2   6 C        2.918    -0.028    28.709     8.786
     3   6 C        2.924    -0.028    28.701     8.786
     4   6 C        2.983    -0.008    28.207     8.712
     5   6 C        2.933     0.208    23.612     7.969
     6   7 N        1.844    -0.325    29.275     8.019
     7   6 C        2.933     0.208    23.614     7.969
     8   6 C        2.983    -0.008    28.208     8.712
     9   6 C        2.923    -0.029    28.720     8.788
    10   6 C        2.918    -0.029    28.715     8.787
    11   6 C        2.920    -0.026    28.657     8.779
    12   6 C        2.918    -0.028    28.709     8.786
    13   6 C        2.924    -0.028    28.702     8.786
    14   7 N        1.845    -0.290    28.370     7.894
    15   6 C        2.937     0.166    24.428     8.106
    16   6 C        2.976    -0.018    28.451     8.749
    17   6 C        2.923    -0.058    29.453     8.900
    18   6 C        2.906     0.049    26.908     8.506
    19   7 N        2.799    -0.044    22.094     6.981
    20   6 C        3.085     0.050    26.793     8.485
    21   6 C        2.909    -0.048    29.184     8.858
    22   6 C        2.924    -0.029    28.719     8.788
    23   6 C        2.920    -0.036    28.894     8.815
    24   6 C        2.911    -0.026    28.652     8.777
    25   6 C        3.063    -0.023    28.511     8.756
    26   6 C        3.068     0.072    26.325     8.413
    27   7 N        1.833    -0.226    26.779     7.669
    28   6 C        2.917     0.050    26.887     8.503
    29   6 C        2.921    -0.045    29.117     8.849
    30   6 C        2.915    -0.035    28.865     8.810
    31   6 C        3.075     0.043    26.953     8.512
    32   6 C        2.911     0.012    27.747     8.638
    33   7 N        2.799    -0.030    21.825     6.939
    34   6 C        3.077     0.047    26.867     8.498
    35   6 C        2.910    -0.046    29.135     8.851
    36   6 C        2.923    -0.032    28.788     8.799
    37   6 C        2.920    -0.034    28.838     8.806
    38   6 C        2.912    -0.030    28.742     8.791
    39   6 C        3.066    -0.016    28.349     8.731
    40   6 C        3.066    -0.016    28.348     8.731
    41   6 C        2.912    -0.030    28.742     8.791
    42   6 C        2.920    -0.034    28.838     8.806
    43   6 C        2.923    -0.032    28.788     8.799
    44   6 C        2.910    -0.046    29.135     8.851
    45   6 C        3.077     0.047    26.867     8.498
    46   6 C        2.906     0.049    26.908     8.506
    47   7 N        2.799    -0.044    22.094     6.981
    48   6 C        3.084     0.050    26.792     8.485
    49   6 C        2.909    -0.048    29.183     8.858
    50   6 C        2.924    -0.029    28.718     8.788
    51   6 C        2.920    -0.036    28.893     8.815
    52   6 C        2.911    -0.026    28.652     8.777
    53   6 C        3.063    -0.023    28.510     8.756
    54   6 C        3.068     0.072    26.325     8.413
    55   7 N        1.833    -0.226    26.779     7.669
    56   6 C        2.917     0.050    26.887     8.503
    57   6 C        2.921    -0.045    29.117     8.849
    58   6 C        2.915    -0.035    28.864     8.810
    59   6 C        3.075     0.043    26.953     8.512
    60   6 C        2.923    -0.058    29.453     8.900
    61   7 N        1.845    -0.290    28.377     7.895
    62   6 C        2.923    -0.029    28.720     8.788
    63   6 C        2.918    -0.029    28.715     8.787
    64   1 H        0.926     0.046     2.369     2.407
    65   1 H        0.926     0.044     2.395     2.420
    66   1 H        0.926     0.046     2.376     2.410
    67   1 H        0.926     0.043     2.407     2.426
    68   1 H        0.926     0.044     2.392     2.419
    69   1 H        0.926     0.046     2.370     2.407
    70   1 H        0.926     0.044     2.395     2.420
    71   1 H        0.926     0.046     2.375     2.410
    72   1 H        0.926     0.052     2.290     2.367
    73   1 H        0.926     0.035     2.513     2.479
    74   1 H        0.926     0.045     2.389     2.417
    75   1 H        0.926     0.046     2.374     2.410
    76   1 H        0.926     0.051     2.306     2.375
    77   1 H        0.925     0.045     2.381     2.413
    78   1 H        0.926     0.047     2.352     2.398
    79   1 H        0.926     0.037     2.488     2.467
    80   1 H        0.926     0.030     2.591     2.517
    81   1 H        0.926     0.042     2.417     2.431
    82   1 H        0.926     0.045     2.383     2.414
    83   1 H        0.926     0.046     2.377     2.411
    84   1 H        0.926     0.046     2.376     2.411
    85   1 H        0.926     0.045     2.383     2.414
    86   1 H        0.926     0.042     2.417     2.431
    87   1 H        0.926     0.030     2.591     2.517
    88   1 H        0.926     0.035     2.512     2.478
    89   1 H        0.926     0.045     2.389     2.417
    90   1 H        0.926     0.046     2.374     2.409
    91   1 H        0.926     0.051     2.306     2.375
    92   1 H        0.925     0.045     2.381     2.413
    93   1 H        0.926     0.047     2.352     2.398
    94   1 H        0.926     0.037     2.488     2.467
    95   1 H        0.926     0.052     2.290     2.366
    96   1 H        0.926     0.043     2.407     2.426
    97   1 H        0.926     0.044     2.392     2.419

molecular dipole:
                 x           y           z       tot (Debye)
 q only:       -1.273      -0.003       0.024
   full:       -0.850      -0.000       0.017       2.162

 projected vibrational frequencies (cm⁻¹)
eigval :       -0.00    -0.00    -0.00     0.00     0.00     0.00
eigval :       13.20    13.97    17.77    21.09    22.30    23.09
eigval :       25.49    39.21    42.21    43.69    47.33    53.94
eigval :       54.54    60.21    67.91    93.23   101.39   105.79
eigval :      107.22   108.36   120.92   121.45   122.56   141.18
eigval :      148.60   148.86   165.00   172.42   180.38   182.00
eigval :      191.63   213.10   214.83   231.16   231.59   248.67
eigval :      252.23   265.19   270.00   272.13   275.74   289.80
eigval :      318.36   345.40   350.96   365.65   368.83   370.09
eigval :      373.69   390.52   398.15   399.30   404.36   412.54
eigval :      413.99   420.19   425.13   425.61   432.60   437.87
eigval :      438.26   461.49   487.06   491.93   500.46   514.57
eigval :      520.02   521.22   535.27   537.39   538.77   539.68
eigval :      543.70   546.03   556.58   559.53   567.57   569.39
eigval :      582.66   584.18   587.13   588.10   588.73   609.00
eigval :      609.83   622.18   630.02   638.79   643.62   659.36
eigval :      663.92   667.42   672.66   680.07   681.23   682.48
eigval :      692.90   704.03   709.51   720.25   720.84   744.23
eigval :      754.60   759.36   765.34   766.36   769.32   770.96
eigval :      774.99   775.54   777.64   780.97   781.71   805.67
eigval :      824.54   840.78   857.49   872.10   873.91   874.97
eigval :      875.68   876.63   878.08   891.49   893.37   894.10
eigval :      895.56   896.65   900.60   902.89   903.29   904.67
eigval :      905.22   906.27   906.60   907.81   910.56   919.42
eigval :      920.20   925.54   926.44   927.02   927.07   928.87
eigval :      930.61   930.99   937.80   976.84   984.91   989.61
eigval :     1008.34  1019.05  1020.24  1034.10  1060.27  1063.00
eigval :     1064.23  1067.43  1070.58  1073.51  1075.23  1084.33
eigval :     1085.57  1092.03  1108.30  1109.98  1116.51  1136.43
eigval :     1136.94  1139.40  1139.65  1143.45  1159.14  1168.45
eigval :     1173.25  1173.45  1174.60  1176.19  1176.43  1177.09
eigval :     1177.15  1183.23  1187.42  1191.05  1202.81  1217.25
eigval :     1227.27  1229.64  1229.83  1235.08  1264.71  1266.19
eigval :     1272.56  1277.23  1279.93  1285.87  1287.02  1289.68
eigval :     1290.46  1293.07  1301.75  1319.92  1328.16  1328.73
eigval :     1329.35  1331.51  1331.66  1335.07  1339.53  1347.52
eigval :     1347.66  1360.75  1378.36  1381.90  1393.66  1405.76
eigval :     1410.17  1411.31  1415.75  1424.47  1425.76  1431.89
eigval :     1435.98  1438.77  1457.30  1461.95  1463.12  1463.95
eigval :     1470.39  1474.67  1480.74  1481.51  1481.59  1493.86
eigval :     1542.99  1543.36  1549.38  1562.23  1573.51  1574.22
eigval :     1576.14  1576.36  1576.94  1578.61  1580.82  1582.07
eigval :     1585.19  1591.76  1593.04  1593.99  1600.85  3066.15
eigval :     3066.54  3075.22  3075.62  3078.49  3078.52  3079.18
eigval :     3079.37  3079.53  3079.81  3083.61  3083.80  3086.27
eigval :     3086.45  3088.02  3088.64  3088.66  3089.23  3093.91
eigval :     3094.45  3094.75  3094.86  3095.38  3095.46  3097.86
eigval :     3099.19  3101.25  3102.05  3102.34  3103.19  3105.74
eigval :     3106.36  3110.90  3112.11

   temp. (K)  partition function   enthalpy   heat capacity  entropy
                                   cal/mol     cal/K/mol   cal/K/mol   J/K/mol
 298.15  VIB  0.306E+23            28848.145    181.674    179.017
         ROT  0.681E+08              888.752      2.981     38.823
         INT  0.208E+31            29736.898    184.655    217.840
         TR   0.222E+29             1481.254      4.968     45.921
         TOT                       31218.1514   189.6235   263.7617  1103.5788

       T/K    H(0)-H(T)+PV         H(T)/Eh          T*S/Eh         G(T)/Eh
   ------------------------------------------------------------------------
    298.15    0.497493E-01    0.772455E+00    0.125322E+00    0.647133E+00
   ------------------------------------------------------------------------

         :::::::::::::::::::::::::::::::::::::::::::::::::::::
         ::                  THERMODYNAMIC                  ::
         :::::::::::::::::::::::::::::::::::::::::::::::::::::
         :: total free energy        -157.978292253861 Eh   ::
         ::.................................................::
         :: total energy             -158.625425751119 Eh   ::
         :: zero point energy           0.722705880634 Eh   ::
         :: G(RRHO) w/o ZPVE           -0.075572383377 Eh   ::
         :: G(RRHO) contrib.            0.647133497257 Eh   ::
         :::::::::::::::::::::::::::::::::::::::::::::::::::::

           -------------------------------------------------
          | TOTAL ENERGY             -158.625425751119 Eh   |
          | TOTAL ENTHALPY           -157.852970579494 Eh   |
          | TOTAL FREE ENERGY        -157.978292253861 Eh   |
          | GRADIENT NORM               0.000046439751 Eh/α |
          | HOMO-LUMO GAP               0.299737807924 eV   |
           -------------------------------------------------

 * finished run on 2025/07/16 at 18:01:35.243
