   * xtb version 6.7.1 (edcfbbe) compiled by 'albert@albert-system' on 2024-07-22

   ID    Z sym.   atoms
    1    6 C      1-5, 7-13, 15-18, 20-26, 28-32, 34-46, 48-54, 56-60, 62, 63
    2    7 N      6, 14, 19, 27, 33, 47, 55, 61
    3    1 H      64-97

          program call               : xtb data2507/toluene/CzDCbTrz/CzDCbTrz_toluene_S0_crest.xyz --gfn 2 --gbsa toluene --ohess vtight --parallel 40 --molden --ceasefiles --namespace data2507/toluene/CzDCbTrz/CzDCbTrz_toluene_S0_finalOpt
      * Solvation model:               GBSA
        Solvent                        toluene
        Solvent mass                       9.2140E+01 g/mol
          :  Hamiltonian                  GFN2-xTB          :
 * total energy  :  -158.7017525 Eh     change       -0.5591886E-08 Eh
 * total energy  :  -158.7018147 Eh     change       -0.6219894E-04 Eh
 * total energy  :  -158.7018470 Eh     change       -0.3228000E-04 Eh
 * total energy  :  -158.7018630 Eh     change       -0.1596895E-04 Eh
 * total energy  :  -158.7018842 Eh     change       -0.2127504E-04 Eh
 * total energy  :  -158.7019161 Eh     change       -0.3186711E-04 Eh
 * total energy  :  -158.7019535 Eh     change       -0.3742010E-04 Eh
 * total energy  :  -158.7019809 Eh     change       -0.2740111E-04 Eh
 * total energy  :  -158.7019937 Eh     change       -0.1276552E-04 Eh
 * total energy  :  -158.7020006 Eh     change       -0.6949402E-05 Eh
 * total energy  :  -158.7020165 Eh     change       -0.2843782E-05 Eh
 * total energy  :  -158.7020185 Eh     change       -0.1993749E-05 Eh
 * total energy  :  -158.7020197 Eh     change       -0.1264991E-05 Eh
 * total energy  :  -158.7020206 Eh     change       -0.8426854E-06 Eh
 * total energy  :  -158.7020212 Eh     change       -0.6213110E-06 Eh
 * total energy  :  -158.7020216 Eh     change       -0.4325918E-06 Eh
 * total energy  :  -158.7020220 Eh     change       -0.3761264E-06 Eh
 * total energy  :  -158.7020225 Eh     change       -0.4529334E-06 Eh
 * total energy  :  -158.7020225 Eh     change       -0.8670327E-08 Eh
   *** GEOMETRY OPTIMIZATION CONVERGED AFTER 22 ITERATIONS ***

 final structure:
================
97
 xtb: 6.7.1 (edcfbbe)
C            7.20389043034835        4.78195344863147       -0.17466664947403
C            7.89372890334713        3.57983682898231       -0.22493810876692
C            7.20466624008087        2.38319897250763       -0.18277555910212
C            5.81285588366692        2.38077092358527       -0.09130714404120
C            5.08092479180605        1.11668553360430       -0.04677168042858
N            5.78008305496987       -0.01433059721057       -0.00653194413175
C            5.07604769839453       -1.14233453774189        0.03337359159693
C            5.80258079308125       -2.40950831919154        0.07839334219278
C            5.10939898325408       -3.61915285602157        0.03032374586304
C            5.79955524894473       -4.81510801262926        0.07230253867287
C            7.18342136570284       -4.81648473304540        0.16400542000499
C            7.87836454066236       -3.61726378597750        0.21307649616173
C            7.19437712827698       -2.41775752573015        0.16979745420911
N            3.74347417803974       -1.18512036856991        0.03375693331659
C            3.12814947569453       -0.00863174455618       -0.00648574006244
C            1.66403563814196       -0.00524293390499       -0.00512628548166
C            0.96222091757650       -1.17985554632766        0.24098777462292
C           -0.42439318337064       -1.18580382154776        0.24898077406733
N           -1.10043262129194       -2.38766928794923        0.50179064354443
C           -2.13138852319559       -2.58913869542674        1.40603167726540
C           -2.58823059611616       -1.75637168235317        2.41589658806740
C           -3.63572591974546       -2.20598118267462        3.19719277306381
C           -4.20524646717100       -3.46223084238014        2.99895390770537
C           -3.71885644142466       -4.31813286145135        2.03127071001956
C           -2.66713717602167       -3.88436561657211        1.23401745397253
C           -1.90532270110851       -4.50094675636972        0.18464846939085
N           -2.01714698374061       -5.70721365593030       -0.35197826516230
C           -1.17069577042898       -6.00166476729702       -1.32243543339337
C           -0.19750050420774       -5.12943846487954       -1.80779182988908
C           -0.06978969591728       -3.86227125139768       -1.26141197201003
C           -0.94013117534534       -3.54567366953216       -0.23063494710905
C           -1.13916937312506        0.00201699306848        0.00102758570188
N           -2.53438012476406        0.00697524809943        0.00647891209020
C           -3.35346715072112       -0.79504171570999       -0.77142063401503
C           -3.01214804782162       -1.70604860421955       -1.75852565640053
C           -4.03684704442526       -2.36930296432336       -2.40741436079517
C           -5.37080865472409       -2.11648910124936       -2.10041516205642
C           -5.71581332523173       -1.17324764451653       -1.15190653708977
C           -4.70266176189504       -0.49944240918861       -0.48393663275016
C           -4.69356226998952        0.53580854923822        0.51350088994899
C           -5.69438878705808        1.21994912771035        1.18954093412433
C           -5.33216802147196        2.15866447333606        2.13613387085642
C           -3.99332716360674        2.39673346246915        2.43357788602392
C           -2.98071693690691        1.72322123567680        1.77634073426846
C           -3.33926286156173        0.81710416321532        0.79082646168637
C           -0.41917654463270        1.18584862744974       -0.25137584492730
N           -1.09048761503207        2.39058366433168       -0.50301892345297
C           -2.12459380911022        2.59477415307363       -1.40307625992662
C           -2.58897367260097        1.76225893957726       -2.40970629116767
C           -3.63757223202901        2.21506787137640       -3.18766852417432
C           -4.20101971498528        3.47401337524362       -2.98919209521775
C           -3.70721563424579        4.32941603838860       -2.02482289059362
C           -2.65406753356203        3.89256607988463       -1.23114950509850
C           -1.88475183086855        4.50794387722801       -0.18655875493069
N           -1.98861623865583        5.71595530372399        0.34773849355743
C           -1.13594261648765        6.00900548329035        1.31315985594657
C           -0.16407138413919        5.13371170709470        1.79563021704625
C           -0.04475631790381        3.86467062379194        1.25172041157090
C           -0.92173424565364        3.54939374474304        0.22618772094633
C            0.96734961605375        1.17284059367739       -0.24935866992824
N            3.74856095117479        1.16517932548442       -0.04719428768409
C            5.12481776626095        3.59330732251240       -0.04219863733849
C            5.82002709624246        4.78636596724269       -0.08303996215413
H            7.74474449911338        5.71598173070452       -0.20699925555351
H            8.97109182585940        3.57734890100873       -0.29714239004830
H            7.72399796537539        1.43852411722120       -0.22247215722329
H            4.03302498724544       -3.60063696552396       -0.04197164120180
H            5.25858461873630       -5.74894590421740        0.03408572855972
H            7.72030522762495       -5.75276424753092        0.19735312547081
H            8.95572743197794       -3.61926181964300        0.28531073028388
H            7.71771395958424       -1.47525837979375        0.20865933326383
H            1.50840112261199       -2.08407161681627        0.45676542599305
H           -2.13771207796479       -0.79327729034839        2.59841106920452
H           -4.01599418390766       -1.56763969207551        3.98061249283831
H           -5.02606502681835       -3.77329771690120        3.62702013595680
H           -4.12861538614968       -5.30545618562532        1.88845481209786
H           -1.27798392921825       -6.99261407515017       -1.74297001549507
H            0.45122581283574       -5.44236478053519       -2.61094260784913
H            0.66682267543200       -3.16132064201572       -1.62873379229353
H           -1.98237298262600       -1.88903344216254       -2.02805315160659
H           -3.79333431251869       -3.09467596200093       -3.16969136342231
H           -6.14362815900145       -2.65715316373496       -2.62562675291205
H           -6.75050340637983       -0.95706532957410       -0.93505690291930
H           -6.73295413538575        1.01501732821835        0.98043303695432
H           -6.09518131789988        2.70715948160665        2.66753099374214
H           -3.73637692171575        3.11840259680321        3.19496527056771
H           -1.94696660777852        1.89441979757162        2.03839139767808
H           -2.14316626438446        0.79700013702248       -2.59239982653771
H           -4.02356087200974        1.57715512624350       -3.96862807111684
H           -5.02294151712061        3.78755404985522       -3.61457682452129
H           -4.11222814676888        5.31869238198006       -1.88200239406292
H           -1.23675304770765        7.00142312200988        1.73183264282137
H            0.49013584213546        5.44573132210360        2.59467837804526
H            0.69067808069662        3.16140579840596        1.61696486401931
H            1.51731592437360        2.07410913458441       -0.46782432597763
H            4.04838135877769        3.57928716050586        0.03005968180960
H            5.28301444215130        5.72244311343752       -0.04386538302636

          :  Hamiltonian                  GFN2-xTB          :
         :: gradient norm              0.000068046559 Eh/a0 ::
         :: HOMO-LUMO gap              1.824813288890 eV    ::
         :: SCC energy              -161.568801797072 Eh    ::
         :: -> dispersion             -0.160837544232 Eh    ::
         :: -> Gsolv                  -0.067073897991 Eh    ::
         :: repulsion energy           2.866779328197 Eh    ::

    * Orbital Energies and Occupations

         #    Occupation            Energy/Eh            Energy/eV
      -------------------------------------------------------------
         1        2.0000           -0.7066559             -19.2291
       ...           ...                  ...                  ...
       135        2.0000           -0.4191712             -11.4062
       136        2.0000           -0.4188602             -11.3978
       137        2.0000           -0.4141380             -11.2693
       138        2.0000           -0.3976775             -10.8214
       139        2.0000           -0.3971720             -10.8076
       140        2.0000           -0.3916089             -10.6562
       141        2.0000           -0.3900051             -10.6126
       142        2.0000           -0.3884503             -10.5703
       143        2.0000           -0.3838570             -10.4453
       144        2.0000           -0.3834777             -10.4350
       145        2.0000           -0.3786254             -10.3029
       146        2.0000           -0.3757007             -10.2233
       147        2.0000           -0.3741785             -10.1819 (HOMO)
       148                         -0.3071178              -8.3571 (LUMO)
       149                         -0.3017677              -8.2115
       150                         -0.2710395              -7.3754
       151                         -0.2698263              -7.3423
       152                         -0.2640896              -7.1862
       153                         -0.2639459              -7.1823
       154                         -0.2541049              -6.9145
       155                         -0.2431261              -6.6158
       156                         -0.2428355              -6.6079
       157                         -0.2387364              -6.4963
       158                         -0.2387291              -6.4961
       ...                                ...                  ...
       286                          0.7367526              20.0481
      -------------------------------------------------------------
                  HL-Gap            0.0670607 Eh            1.8248 eV

     #   Z          covCN         q      C6AA      α(0)
     1   6 C        2.920    -0.020    28.517     8.757
     2   6 C        2.918    -0.026    28.652     8.778
     3   6 C        2.923    -0.025    28.625     8.774
     4   6 C        2.983    -0.010    28.253     8.719
     5   6 C        2.979     0.215    23.460     7.945
     6   7 N        1.844    -0.314    29.001     7.981
     7   6 C        2.979     0.215    23.460     7.945
     8   6 C        2.983    -0.010    28.253     8.719
     9   6 C        2.923    -0.025    28.633     8.775
    10   6 C        2.918    -0.027    28.665     8.780
    11   6 C        2.920    -0.020    28.517     8.757
    12   6 C        2.918    -0.026    28.652     8.778
    13   6 C        2.923    -0.025    28.625     8.774
    14   7 N        1.844    -0.321    29.168     8.004
    15   6 C        2.985     0.216    23.442     7.942
    16   6 C        2.981    -0.008    28.222     8.714
    17   6 C        2.926    -0.047    29.159     8.855
    18   6 C        2.910     0.055    26.776     8.485
    19   7 N        2.798    -0.050    22.203     6.998
    20   6 C        3.078     0.049    26.821     8.491
    21   6 C        2.910    -0.049    29.223     8.864
    22   6 C        2.924    -0.029    28.732     8.790
    23   6 C        2.921    -0.037    28.917     8.818
    24   6 C        2.912    -0.027    28.682     8.782
    25   6 C        3.063    -0.023    28.522     8.758
    26   6 C        3.071     0.075    26.255     8.402
    27   7 N        1.832    -0.247    27.299     7.743
    28   6 C        2.922     0.050    26.874     8.501
    29   6 C        2.922    -0.047    29.158     8.855
    30   6 C        2.914    -0.037    28.924     8.819
    31   6 C        3.072     0.039    27.045     8.527
    32   6 C        2.911     0.048    26.927     8.509
    33   7 N        2.801    -0.046    22.121     6.985
    34   6 C        3.071     0.049    26.830     8.493
    35   6 C        2.910    -0.050    29.245     8.868
    36   6 C        2.924    -0.033    28.812     8.803
    37   6 C        2.920    -0.038    28.952     8.824
    38   6 C        2.913    -0.032    28.789     8.798
    39   6 C        3.068    -0.016    28.328     8.727
    40   6 C        3.068    -0.016    28.328     8.727
    41   6 C        2.913    -0.032    28.789     8.798
    42   6 C        2.920    -0.038    28.952     8.824
    43   6 C        2.924    -0.033    28.813     8.803
    44   6 C        2.910    -0.050    29.246     8.868
    45   6 C        3.072     0.049    26.830     8.493
    46   6 C        2.910     0.055    26.775     8.485
    47   7 N        2.798    -0.050    22.203     6.998
    48   6 C        3.078     0.049    26.822     8.491
    49   6 C        2.910    -0.049    29.223     8.864
    50   6 C        2.924    -0.029    28.732     8.790
    51   6 C        2.921    -0.037    28.917     8.818
    52   6 C        2.912    -0.027    28.682     8.782
    53   6 C        3.063    -0.023    28.522     8.758
    54   6 C        3.071     0.075    26.255     8.402
    55   7 N        1.832    -0.247    27.299     7.743
    56   6 C        2.922     0.050    26.874     8.501
    57   6 C        2.922    -0.047    29.158     8.855
    58   6 C        2.914    -0.037    28.923     8.819
    59   6 C        3.072     0.039    27.045     8.527
    60   6 C        2.926    -0.047    29.159     8.855
    61   7 N        1.844    -0.321    29.168     8.004
    62   6 C        2.923    -0.025    28.633     8.775
    63   6 C        2.918    -0.027    28.665     8.780
    64   1 H        0.926     0.053     2.284     2.363
    65   1 H        0.926     0.051     2.310     2.377
    66   1 H        0.926     0.053     2.283     2.363
    67   1 H        0.926     0.048     2.342     2.393
    68   1 H        0.926     0.049     2.331     2.388
    69   1 H        0.926     0.053     2.284     2.363
    70   1 H        0.926     0.051     2.310     2.377
    71   1 H        0.926     0.053     2.283     2.363
    72   1 H        0.926     0.068     2.106     2.270
    73   1 H        0.926     0.028     2.617     2.530
    74   1 H        0.926     0.042     2.419     2.432
    75   1 H        0.926     0.045     2.385     2.415
    76   1 H        0.926     0.051     2.305     2.374
    77   1 H        0.925     0.039     2.461     2.453
    78   1 H        0.926     0.043     2.403     2.424
    79   1 H        0.926     0.032     2.564     2.504
    80   1 H        0.926     0.016     2.788     2.611
    81   1 H        0.926     0.034     2.527     2.486
    82   1 H        0.926     0.040     2.452     2.448
    83   1 H        0.926     0.043     2.410     2.427
    84   1 H        0.926     0.043     2.410     2.427
    85   1 H        0.926     0.040     2.452     2.449
    86   1 H        0.926     0.034     2.527     2.486
    87   1 H        0.926     0.016     2.788     2.611
    88   1 H        0.926     0.028     2.617     2.530
    89   1 H        0.926     0.042     2.419     2.432
    90   1 H        0.926     0.045     2.385     2.415
    91   1 H        0.926     0.051     2.305     2.374
    92   1 H        0.925     0.039     2.461     2.453
    93   1 H        0.926     0.043     2.403     2.424
    94   1 H        0.926     0.032     2.564     2.504
    95   1 H        0.926     0.068     2.106     2.270
    96   1 H        0.926     0.048     2.343     2.393
    97   1 H        0.926     0.049     2.331     2.388

molecular dipole:
                 x           y           z       tot (Debye)
 q only:        0.818      -0.001       0.002
   full:        1.596      -0.003       0.000       4.057

 projected vibrational frequencies (cm⁻¹)
eigval :       -0.00    -0.00     0.00     0.00     0.00     0.00
eigval :       10.19    14.33    19.34    22.44    23.02    24.21
eigval :       28.09    41.32    45.38    45.94    49.21    55.02
eigval :       56.97    61.50    70.01    91.75    93.27   104.48
eigval :      107.54   109.45   122.20   122.76   126.51   143.97
eigval :      152.24   152.38   165.77   176.38   183.24   185.76
eigval :      186.75   197.77   222.27   231.10   240.22   240.68
eigval :      261.54   268.16   276.56   277.89   281.40   294.48
eigval :      331.28   345.61   359.20   367.49   368.14   375.83
eigval :      386.52   401.30   401.54   407.00   408.01   414.45
eigval :      421.78   425.38   426.84   437.19   438.01   441.41
eigval :      442.80   481.72   498.70   510.33   510.92   519.07
eigval :      521.52   523.27   536.65   542.91   543.23   545.76
eigval :      550.15   551.98   563.84   576.38   587.02   587.17
eigval :      592.25   595.89   596.00   611.71   623.30   623.57
eigval :      630.50   639.58   648.88   651.55   656.38   673.37
eigval :      675.65   681.98   682.16   684.31   687.99   700.29
eigval :      707.00   724.25   724.87   730.53   748.45   753.41
eigval :      756.55   762.42   770.67   776.91   779.71   780.09
eigval :      782.74   782.89   796.60   800.16   800.51   846.66
eigval :      858.90   867.04   875.38   877.11   877.18   879.31
eigval :      879.91   880.13   889.11   895.58   900.26   901.30
eigval :      905.16   906.55   907.64   909.06   909.80   910.04
eigval :      912.54   913.75   918.37   919.38   924.83   925.03
eigval :      927.02   927.38   928.27   931.00   931.95   935.02
eigval :      935.20   957.36   989.13   997.90  1011.45  1023.38
eigval :     1024.90  1046.93  1050.47  1066.23  1066.40  1070.60
eigval :     1073.98  1074.29  1075.30  1087.22  1090.09  1090.40
eigval :     1103.30  1108.31  1111.85  1120.90  1142.06  1142.80
eigval :     1147.77  1149.94  1151.72  1165.34  1172.36  1173.46
eigval :     1175.13  1176.02  1176.87  1178.34  1179.62  1181.81
eigval :     1189.21  1196.14  1200.08  1206.19  1211.39  1225.96
eigval :     1228.81  1234.37  1237.13  1246.76  1267.59  1268.65
eigval :     1285.16  1286.18  1292.13  1295.37  1296.25  1296.96
eigval :     1305.66  1314.68  1322.62  1328.46  1329.80  1333.98
eigval :     1336.85  1348.63  1354.48  1356.03  1358.26  1362.04
eigval :     1367.25  1370.15  1380.18  1383.76  1409.83  1417.34
eigval :     1420.85  1427.18  1427.57  1428.75  1429.92  1436.81
eigval :     1462.31  1465.13  1468.12  1472.69  1473.73  1474.33
eigval :     1483.57  1483.73  1485.83  1504.51  1512.37  1542.26
eigval :     1555.02  1555.21  1562.72  1577.71  1579.60  1580.27
eigval :     1581.22  1582.33  1586.43  1587.31  1591.77  1592.20
eigval :     1592.77  1600.00  1607.02  1607.50  1613.99  3060.87
eigval :     3060.96  3063.41  3063.48  3074.94  3075.22  3079.57
eigval :     3079.62  3082.37  3082.60  3083.05  3083.22  3084.45
eigval :     3084.59  3088.83  3089.99  3091.43  3091.44  3093.59
eigval :     3093.84  3097.09  3097.25  3098.09  3099.36  3099.43
eigval :     3100.72  3103.58  3103.85  3105.26  3106.84  3107.32
eigval :     3107.40  3115.28  3115.88

   temp. (K)  partition function   enthalpy   heat capacity  entropy
                                   cal/mol     cal/K/mol   cal/K/mol   J/K/mol
 298.15  VIB  0.147E+23            28426.552    179.212    176.864
         ROT  0.678E+08              888.752      2.981     38.815
         INT  0.998E+30            29315.305    182.193    215.679
         TR   0.222E+29             1481.254      4.968     45.921
         TOT                       30796.5588   187.1607   261.6007  1094.5372

       T/K    H(0)-H(T)+PV         H(T)/Eh          T*S/Eh         G(T)/Eh
   ------------------------------------------------------------------------
    298.15    0.490774E-01    0.777381E+00    0.124295E+00    0.653086E+00
   ------------------------------------------------------------------------

         :::::::::::::::::::::::::::::::::::::::::::::::::::::
         ::                  THERMODYNAMIC                  ::
         :::::::::::::::::::::::::::::::::::::::::::::::::::::
         :: total free energy        -158.048936298301 Eh   ::
         ::.................................................::
         :: total energy             -158.702022470302 Eh   ::
         :: zero point energy           0.728303653198 Eh   ::
         :: G(RRHO) w/o ZPVE           -0.075217481197 Eh   ::
         :: G(RRHO) contrib.            0.653086172001 Eh   ::
         :::::::::::::::::::::::::::::::::::::::::::::::::::::

           -------------------------------------------------
          | TOTAL ENERGY             -158.702022470302 Eh   |
          | TOTAL ENTHALPY           -157.924641376787 Eh   |
          | TOTAL FREE ENERGY        -158.048936298301 Eh   |
          | GRADIENT NORM               0.000068024537 Eh/α |
          | HOMO-LUMO GAP               1.824813277156 eV   |
           -------------------------------------------------

 * finished run on 2025/07/16 at 17:49:29.040
