   * xtb version 6.7.1 (edcfbbe) compiled by 'albert@albert-system' on 2024-07-22

   ID    Z sym.   atoms
    1    6 C      1-5, 7-13, 15-18, 20-26, 28-32, 34-46, 48-54, 56-60, 62, 63
    2    7 N      6, 14, 19, 27, 33, 47, 55, 61
    3    1 H      64-97

          program call               : xtb data2507/toluene/CzDCbTrz/CzDCbTrz.xyz --gfn 2 --gbsa toluene --ohess vtight --parallel 40 --molden --ceasefiles --namespace data2507/toluene/CzDCbTrz/CzDCbTrz_toluene_S0_preOpt
      * Solvation model:               GBSA
        Solvent                        toluene
        Solvent mass                       9.2140E+01 g/mol
          :  Hamiltonian                  GFN2-xTB          :
 * total energy  :  -158.6698380 Eh     change       -0.2353630E-08 Eh
 * total energy  :  -158.6901352 Eh     change       -0.2029721E-01 Eh
 * total energy  :  -158.6960295 Eh     change       -0.5894304E-02 Eh
 * total energy  :  -158.6979643 Eh     change       -0.1934781E-02 Eh
 * total energy  :  -158.6991864 Eh     change       -0.1222103E-02 Eh
 * total energy  :  -158.6995755 Eh     change       -0.3890942E-03 Eh
 * total energy  :  -158.6997592 Eh     change       -0.1837331E-03 Eh
 * total energy  :  -158.6999209 Eh     change       -0.1616554E-03 Eh
 * total energy  :  -158.7000775 Eh     change       -0.1566463E-03 Eh
 * total energy  :  -158.7002455 Eh     change       -0.1679993E-03 Eh
 * total energy  :  -158.7019726 Eh     change       -0.2364104E-05 Eh
 * total energy  :  -158.7019738 Eh     change       -0.1196219E-05 Eh
 * total energy  :  -158.7019735 Eh     change        0.3020093E-06 Eh
 * total energy  :  -158.7019744 Eh     change       -0.9278251E-06 Eh
 * total energy  :  -158.7019749 Eh     change       -0.4946205E-06 Eh
 * total energy  :  -158.7019757 Eh     change       -0.7364689E-06 Eh
 * total energy  :  -158.7019765 Eh     change       -0.7894425E-06 Eh
 * total energy  :  -158.7019770 Eh     change       -0.5477654E-06 Eh
 * total energy  :  -158.7019770 Eh     change       -0.1028332E-07 Eh
   *** GEOMETRY OPTIMIZATION CONVERGED AFTER 44 ITERATIONS ***

 final structure:
================
97
 xtb: 6.7.1 (edcfbbe)
C            7.18298243271167        4.78630492156532       -0.18809320800486
C            7.87315466609173        3.58445291926952       -0.24006838405404
C            7.18453597210864        2.38758460771649       -0.19732245657928
C            5.79286652976953        2.38463951076528       -0.10348016194542
C            5.06161312789645        1.12013903615809       -0.05904311660378
N            5.76160676180006       -0.01054772009707       -0.02431557505046
C            5.05834518926348       -1.13911971829015        0.01284266906604
C            5.78591164547545       -2.40581430693085        0.05496641643238
C            5.09384931836729       -3.61597587288439        0.00416432294268
C            5.78507978176495       -4.81137861957543        0.04451160335927
C            7.16887109597604       -4.81166312965590        0.13732942310290
C            7.86270638785740       -3.61191344124527        0.18914554752248
C            7.17765021250477       -2.41296629404688        0.14746404379650
N            3.72585096445961       -1.18282579237722        0.01339784601546
C            3.10949405474115       -0.00655102898291       -0.01848023543036
C            1.64541004600151       -0.00417132160580       -0.01298502552506
C            0.94459832672227       -1.18647434955925        0.19620054114770
C           -0.44201734749370       -1.19409929345432        0.20634153046346
N           -1.11454306053896       -2.40615373478466        0.41624703908846
C           -2.14352501907290       -2.64586667860300        1.31342307827461
C           -2.60738635492674       -1.85133123636752        2.35052590707241
C           -3.65217744743055       -2.33500006686081        3.11499529552565
C           -4.21155125440044       -3.58845338849220        2.87469290876059
C           -3.71779617546668       -4.40747997034444        1.87923734563518
C           -2.66967486019146       -3.93850003639538        1.09742739144397
C           -1.90435225410036       -4.51317378023058        0.02718179445601
N           -2.00824957687446       -5.70109133672276       -0.55041995178896
C           -1.16084636544526       -5.95608733484523       -1.53112299760556
C           -0.19470533181745       -5.06057764140359       -1.98725004476473
C           -0.07524752516938       -3.81214652054446       -1.39759119704184
C           -0.94642233337556       -3.53728051122839       -0.35557263490871
C           -1.15854104272150        0.00105631020618        0.00205072979551
N           -2.55368767784348        0.00468471832086        0.01188714100875
C           -3.37446348582845       -0.77159477839651       -0.79007399434959
C           -3.03558802772344       -1.64820242960244       -1.80870439823506
C           -4.06186994208142       -2.29059313275488       -2.47588135398527
C           -5.39507677791902       -2.05002075747841       -2.15599892840295
C           -5.73778639610647       -1.13955590710593       -1.17517795666594
C           -4.72301907269953       -0.48752324346670       -0.48832279737959
C           -4.71178169649040        0.51315614071093        0.54373295038811
C           -5.71133118583959        1.17271835306542        1.24558141117392
C           -5.34728123414421        2.07976129107355        2.22188350901782
C           -4.00775699520086        2.30932760411652        2.52294756844932
C           -2.99634353791829        1.65951145416687        1.84043939239686
C           -3.35690646470624        0.78676774731825        0.82593102191008
C           -0.43968671641457        1.19334874893162       -0.21110388170317
N           -1.11011363214566        2.40758307737261       -0.41486055509810
C           -2.14846275932650        2.64943740020410       -1.30063737205778
C           -2.62649391542742        1.85505107254358       -2.33141656686349
C           -3.67814512733498        2.34122357698612       -3.08483458099909
C           -4.23060171008875        3.59686877480634       -2.84002445511254
C           -3.72301921366411        4.41557475051241       -1.85128387514823
C           -2.66771910217266        3.94417138344646       -1.08068042102699
C           -1.88804435707579        4.51799871016589       -0.02038806355455
N           -1.98102350450547        5.70736657724396        0.55609000753416
C           -1.12130365668977        5.96120805399016        1.52631450228889
C           -0.15306711810937        5.06313059104045        1.97284230643778
C           -0.04493130263300        3.81317450328099        1.38425784109901
C           -0.92917848112373        3.53941966523354        0.35301090664860
C            0.94688569638591        1.18060739019611       -0.21581558982577
N            3.72927077732463        1.16784107909104       -0.05395465971280
C            5.10450348506168        3.59690622452171       -0.05263077100679
C            5.79927475712987        4.79021172986624       -0.09414057951229
H            7.72347140660938        5.72052976228843       -0.22099141813979
H            8.95039749671428        3.58236416999287       -0.31412375793550
H            7.70409968949747        1.44309558133269       -0.23841086968603
H            4.01749151598709       -3.59834154204270       -0.06880734875868
H            5.24501517769862       -5.74564617485613        0.00413570387079
H            7.70656716101204       -5.74752024301677        0.16940632323817
H            8.94000621267086       -3.61308675863615        0.26233041633986
H            7.70007540238796       -1.47005835758123        0.18863629672411
H            1.49178641239414       -2.09693755435663        0.38061877083763
H           -2.16455736741550       -0.89156455274147        2.56625596751806
H           -4.03839885913378       -1.72583930976341        3.91845409101064
H           -5.03028708782448       -3.92685899733251        3.49126287929693
H           -4.11929299914864       -5.39278596042474        1.70293350134986
H           -1.26146709443873       -6.93276964812856       -1.98533105347404
H            0.45518306387326       -5.34083677263383       -2.80141765392695
H            0.65628046213539       -3.09421730983318       -1.74144384136076
H           -2.00660787929970       -1.82072836340807       -2.08808644890224
H           -3.82008808048940       -2.98945055609452       -3.26307326088279
H           -6.16903087074601       -2.57393630739330       -2.69630825409661
H           -6.77191818013028       -0.93201819970114       -0.94746120506647
H           -6.75026522548626        0.97343823750527        1.03286643772261
H           -6.10918722101588        2.60938971600910        2.77362533749337
H           -3.74922516778702        3.00516783329379        3.30749157545391
H           -1.96202173594866        1.82311951125550        2.10518737674284
H           -2.18915009479209        0.89357498025834       -2.55079099565820
H           -4.07542202785696        1.73240071236406       -3.88313688099260
H           -5.05491717516264        3.93725122961925       -3.44800466256424
H           -4.11908143147189        5.40252619353059       -1.67195452252585
H           -1.21314774339146        6.93909635808880        1.97978797408346
H            0.50724027021029        5.34260651590387        2.77885659410154
H            0.68801816383153        3.09331218731071        1.72096799978968
H            1.49550799346810        2.08896732369303       -0.40622201399962
H            4.02816009890020        3.58255367671571        0.02121063633903
H            5.26202552494379        5.72610706922809       -0.05385489626619

          :  Hamiltonian                  GFN2-xTB          :
         :: gradient norm              0.000068817773 Eh/a0 ::
         :: HOMO-LUMO gap              1.823859749314 eV    ::
         :: SCC energy              -161.568700261552 Eh    ::
         :: -> dispersion             -0.160719905876 Eh    ::
         :: -> Gsolv                  -0.067070918926 Eh    ::
         :: repulsion energy           2.866723234781 Eh    ::

    * Orbital Energies and Occupations

         #    Occupation            Energy/Eh            Energy/eV
      -------------------------------------------------------------
         1        2.0000           -0.7066093             -19.2278
       ...           ...                  ...                  ...
       135        2.0000           -0.4191530             -11.4057
       136        2.0000           -0.4188408             -11.3972
       137        2.0000           -0.4141573             -11.2698
       138        2.0000           -0.3976643             -10.8210
       139        2.0000           -0.3971744             -10.8077
       140        2.0000           -0.3915483             -10.6546
       141        2.0000           -0.3899922             -10.6122
       142        2.0000           -0.3884535             -10.5704
       143        2.0000           -0.3838881             -10.4461
       144        2.0000           -0.3834774             -10.4350
       145        2.0000           -0.3786608             -10.3039
       146        2.0000           -0.3757424             -10.2245
       147        2.0000           -0.3742130             -10.1829 (HOMO)
       148                         -0.3071874              -8.3590 (LUMO)
       149                         -0.3017343              -8.2106
       150                         -0.2710337              -7.3752
       151                         -0.2698457              -7.3429
       152                         -0.2640627              -7.1855
       153                         -0.2639317              -7.1819
       154                         -0.2541278              -6.9152
       155                         -0.2430897              -6.6148
       156                         -0.2428709              -6.6089
       157                         -0.2387236              -6.4960
       158                         -0.2387168              -6.4958
       ...                                ...                  ...
       286                          0.7367048              20.0468
      -------------------------------------------------------------
                  HL-Gap            0.0670256 Eh            1.8239 eV

     #   Z          covCN         q      C6AA      α(0)
     1   6 C        2.920    -0.020    28.517     8.757
     2   6 C        2.918    -0.026    28.652     8.778
     3   6 C        2.923    -0.025    28.626     8.774
     4   6 C        2.983    -0.010    28.253     8.719
     5   6 C        2.979     0.215    23.460     7.945
     6   7 N        1.844    -0.315    29.002     7.981
     7   6 C        2.979     0.215    23.460     7.945
     8   6 C        2.983    -0.010    28.253     8.719
     9   6 C        2.923    -0.025    28.633     8.775
    10   6 C        2.918    -0.027    28.665     8.780
    11   6 C        2.920    -0.020    28.517     8.757
    12   6 C        2.918    -0.026    28.652     8.778
    13   6 C        2.923    -0.025    28.626     8.774
    14   7 N        1.844    -0.321    29.169     8.004
    15   6 C        2.985     0.216    23.443     7.942
    16   6 C        2.981    -0.009    28.225     8.715
    17   6 C        2.926    -0.047    29.160     8.856
    18   6 C        2.910     0.055    26.777     8.485
    19   7 N        2.798    -0.050    22.200     6.998
    20   6 C        3.077     0.049    26.822     8.491
    21   6 C        2.910    -0.049    29.223     8.864
    22   6 C        2.924    -0.029    28.731     8.790
    23   6 C        2.921    -0.037    28.917     8.818
    24   6 C        2.912    -0.027    28.682     8.782
    25   6 C        3.063    -0.023    28.521     8.758
    26   6 C        3.071     0.075    26.255     8.402
    27   7 N        1.832    -0.247    27.298     7.742
    28   6 C        2.922     0.050    26.873     8.501
    29   6 C        2.922    -0.047    29.158     8.855
    30   6 C        2.914    -0.037    28.924     8.819
    31   6 C        3.072     0.039    27.046     8.527
    32   6 C        2.911     0.048    26.929     8.509
    33   7 N        2.800    -0.046    22.120     6.985
    34   6 C        3.071     0.049    26.830     8.493
    35   6 C        2.910    -0.050    29.245     8.868
    36   6 C        2.924    -0.033    28.812     8.803
    37   6 C        2.920    -0.038    28.952     8.824
    38   6 C        2.913    -0.032    28.789     8.798
    39   6 C        3.068    -0.015    28.327     8.727
    40   6 C        3.068    -0.015    28.327     8.727
    41   6 C        2.913    -0.032    28.789     8.798
    42   6 C        2.920    -0.038    28.952     8.824
    43   6 C        2.924    -0.033    28.813     8.803
    44   6 C        2.910    -0.050    29.246     8.868
    45   6 C        3.072     0.049    26.830     8.493
    46   6 C        2.910     0.055    26.776     8.485
    47   7 N        2.798    -0.050    22.200     6.998
    48   6 C        3.077     0.049    26.822     8.491
    49   6 C        2.910    -0.049    29.222     8.864
    50   6 C        2.924    -0.029    28.731     8.790
    51   6 C        2.921    -0.037    28.916     8.818
    52   6 C        2.912    -0.027    28.682     8.782
    53   6 C        3.063    -0.023    28.521     8.758
    54   6 C        3.071     0.075    26.255     8.402
    55   7 N        1.832    -0.247    27.298     7.742
    56   6 C        2.922     0.050    26.873     8.501
    57   6 C        2.922    -0.047    29.158     8.855
    58   6 C        2.914    -0.037    28.923     8.819
    59   6 C        3.072     0.039    27.046     8.527
    60   6 C        2.926    -0.047    29.161     8.856
    61   7 N        1.844    -0.321    29.169     8.004
    62   6 C        2.923    -0.025    28.633     8.775
    63   6 C        2.918    -0.027    28.665     8.780
    64   1 H        0.926     0.053     2.284     2.363
    65   1 H        0.926     0.051     2.310     2.377
    66   1 H        0.926     0.053     2.282     2.363
    67   1 H        0.926     0.048     2.344     2.394
    68   1 H        0.926     0.049     2.332     2.388
    69   1 H        0.926     0.053     2.284     2.363
    70   1 H        0.926     0.051     2.310     2.377
    71   1 H        0.926     0.053     2.283     2.363
    72   1 H        0.926     0.068     2.105     2.269
    73   1 H        0.926     0.028     2.616     2.529
    74   1 H        0.926     0.042     2.418     2.432
    75   1 H        0.926     0.045     2.385     2.415
    76   1 H        0.926     0.051     2.304     2.374
    77   1 H        0.925     0.039     2.461     2.453
    78   1 H        0.926     0.043     2.404     2.425
    79   1 H        0.926     0.031     2.566     2.505
    80   1 H        0.926     0.016     2.788     2.611
    81   1 H        0.926     0.034     2.527     2.486
    82   1 H        0.926     0.040     2.452     2.449
    83   1 H        0.926     0.043     2.409     2.427
    84   1 H        0.926     0.043     2.409     2.427
    85   1 H        0.926     0.040     2.452     2.449
    86   1 H        0.926     0.034     2.527     2.486
    87   1 H        0.926     0.016     2.788     2.611
    88   1 H        0.926     0.028     2.616     2.529
    89   1 H        0.926     0.042     2.418     2.432
    90   1 H        0.926     0.045     2.385     2.415
    91   1 H        0.926     0.051     2.304     2.374
    92   1 H        0.925     0.039     2.461     2.453
    93   1 H        0.926     0.043     2.404     2.425
    94   1 H        0.926     0.031     2.566     2.505
    95   1 H        0.926     0.068     2.105     2.269
    96   1 H        0.926     0.048     2.344     2.394
    97   1 H        0.926     0.049     2.332     2.388

molecular dipole:
                 x           y           z       tot (Debye)
 q only:        0.802      -0.001       0.000
   full:        1.578      -0.002      -0.004       4.010

 projected vibrational frequencies (cm⁻¹)
eigval :       -0.00    -0.00    -0.00    -0.00     0.00     0.00
eigval :       10.18    15.07    19.43    22.14    23.25    23.44
eigval :       27.24    41.46    45.76    46.07    47.66    55.24
eigval :       57.01    61.54    69.65    91.89    94.04   104.13
eigval :      108.38   108.50   121.55   122.54   125.20   144.09
eigval :      152.64   153.37   166.08   176.00   183.18   185.75
eigval :      187.14   197.77   222.36   231.01   240.56   241.07
eigval :      261.51   268.38   275.68   277.92   281.02   294.50
eigval :      331.19   345.54   358.97   367.57   368.23   376.45
eigval :      386.60   401.65   401.94   406.68   407.88   413.73
eigval :      422.11   425.36   426.85   437.41   437.85   441.49
eigval :      442.52   481.79   498.57   510.60   511.02   518.91
eigval :      521.67   523.72   536.88   542.58   543.13   544.95
eigval :      550.12   552.02   564.17   576.15   587.03   587.18
eigval :      592.12   595.80   595.93   611.72   623.25   623.57
eigval :      630.37   639.33   649.01   651.62   656.39   672.85
eigval :      675.64   682.13   682.45   684.38   687.90   699.91
eigval :      706.80   724.49   725.16   730.58   748.32   753.47
eigval :      756.55   762.46   769.80   776.84   781.24   781.73
eigval :      782.13   783.12   796.52   800.06   800.54   846.70
eigval :      858.81   867.41   875.39   877.11   877.21   879.35
eigval :      879.63   879.87   889.40   895.52   899.53   900.41
eigval :      904.43   906.38   907.63   909.02   910.51   910.62
eigval :      912.64   913.86   918.43   919.32   923.07   925.90
eigval :      928.21   928.34   928.37   930.98   931.90   934.87
eigval :      935.01   957.37   989.12   997.93  1011.48  1023.28
eigval :     1024.84  1046.84  1050.50  1065.90  1066.06  1070.74
eigval :     1074.16  1074.26  1075.29  1087.48  1090.48  1090.71
eigval :     1103.36  1108.28  1111.83  1120.88  1141.92  1142.90
eigval :     1147.68  1149.64  1151.79  1165.29  1171.94  1173.41
eigval :     1175.28  1176.04  1176.82  1177.99  1179.64  1182.11
eigval :     1189.40  1196.03  1200.10  1206.05  1211.31  1225.46
eigval :     1228.50  1234.56  1237.26  1246.86  1267.56  1268.63
eigval :     1285.24  1286.28  1291.86  1295.02  1295.99  1296.84
eigval :     1305.68  1314.90  1322.57  1328.44  1329.76  1334.05
eigval :     1336.91  1348.76  1354.37  1355.96  1358.22  1362.05
eigval :     1367.26  1370.10  1380.24  1383.81  1409.67  1417.13
eigval :     1420.86  1427.11  1427.62  1428.63  1429.91  1436.57
eigval :     1462.31  1465.08  1467.97  1472.70  1473.72  1474.31
eigval :     1483.56  1483.72  1485.88  1504.51  1512.30  1542.43
eigval :     1555.02  1555.22  1562.72  1577.74  1579.57  1580.26
eigval :     1581.17  1582.31  1586.37  1587.27  1591.77  1592.16
eigval :     1592.75  1599.92  1607.07  1607.55  1613.92  3060.15
eigval :     3060.19  3063.40  3063.53  3074.96  3075.57  3079.54
eigval :     3079.59  3082.49  3082.67  3083.18  3083.33  3084.42
eigval :     3084.56  3088.88  3089.95  3090.62  3090.66  3093.55
eigval :     3093.80  3097.67  3097.72  3098.08  3099.00  3099.14
eigval :     3100.72  3103.44  3103.75  3105.23  3106.81  3106.96
eigval :     3107.14  3115.92  3116.50

   temp. (K)  partition function   enthalpy   heat capacity  entropy
                                   cal/mol     cal/K/mol   cal/K/mol   J/K/mol
 298.15  VIB  0.151E+23            28429.055    179.183    176.864
         ROT  0.678E+08              888.752      2.981     38.816
         INT  0.102E+31            29317.807    182.163    215.680
         TR   0.222E+29             1481.254      4.968     45.921
         TOT                       30799.0609   187.1315   261.6013  1094.5400

       T/K    H(0)-H(T)+PV         H(T)/Eh          T*S/Eh         G(T)/Eh
   ------------------------------------------------------------------------
    298.15    0.490814E-01    0.777373E+00    0.124295E+00    0.653078E+00
   ------------------------------------------------------------------------

         :::::::::::::::::::::::::::::::::::::::::::::::::::::
         ::                  THERMODYNAMIC                  ::
         :::::::::::::::::::::::::::::::::::::::::::::::::::::
         :: total free energy        -158.048899163199 Eh   ::
         ::.................................................::
         :: total energy             -158.701977028356 Eh   ::
         :: zero point energy           0.728291675340 Eh   ::
         :: G(RRHO) w/o ZPVE           -0.075213810183 Eh   ::
         :: G(RRHO) contrib.            0.653077865157 Eh   ::
         :::::::::::::::::::::::::::::::::::::::::::::::::::::

           -------------------------------------------------
          | TOTAL ENERGY             -158.701977028356 Eh   |
          | TOTAL ENTHALPY           -157.924603925357 Eh   |
          | TOTAL FREE ENERGY        -158.048899163199 Eh   |
          | GRADIENT NORM               0.000068793045 Eh/α |
          | HOMO-LUMO GAP               1.823859914136 eV   |
           -------------------------------------------------

 * finished run on 2025/07/16 at 17:43:34.333
