   * xtb version 6.7.1 (edcfbbe) compiled by 'albert@albert-system' on 2024-07-22

   ID    Z sym.   atoms
    1    7 N      1, 5, 19, 34, 36, 57
    2    6 C      2-4, 6-18, 20-33, 35, 37-44, 46-56, 58-69
    3   16 S      45
    4    1 H      70-103

          program call               : xtb data2507/toluene/BTCz3CzTPN/BTCz3CzTPN.xyz --gfn 2 --gbsa toluene --ohess vtight --parallel 40 --molden --ceasefiles --namespace data2507/toluene/BTCz3CzTPN/BTCz3CzTPN_toluene_S0_preOpt
      * Solvation model:               GBSA
        Solvent                        toluene
        Solvent mass                       9.2140E+01 g/mol
          :  Hamiltonian                  GFN2-xTB          :
 * total energy  :  -171.0288649 Eh     change       -0.2953215E-08 Eh
 * total energy  :  -171.0564936 Eh     change       -0.2762878E-01 Eh
 * total energy  :  -171.0646248 Eh     change       -0.8131202E-02 Eh
 * total energy  :  -171.0670017 Eh     change       -0.2376860E-02 Eh
 * total energy  :  -171.0688660 Eh     change       -0.1864271E-02 Eh
 * total energy  :  -171.0701491 Eh     change       -0.1283110E-02 Eh
 * total energy  :  -171.0710225 Eh     change       -0.8734691E-03 Eh
 * total energy  :  -171.0717253 Eh     change       -0.7027283E-03 Eh
 * total energy  :  -171.0721578 Eh     change       -0.4325117E-03 Eh
 * total energy  :  -171.0725244 Eh     change       -0.3666163E-03 Eh
 * total energy  :  -171.0765288 Eh     change       -0.5634139E-06 Eh
 * total energy  :  -171.0765294 Eh     change       -0.5348645E-06 Eh
 * total energy  :  -171.0765298 Eh     change       -0.4723584E-06 Eh
 * total energy  :  -171.0765300 Eh     change       -0.1590120E-06 Eh
 * total energy  :  -171.0765304 Eh     change       -0.3755167E-06 Eh
 * total energy  :  -171.0765305 Eh     change       -0.1083986E-06 Eh
 * total energy  :  -171.0765307 Eh     change       -0.1868194E-06 Eh
 * total energy  :  -171.0765308 Eh     change       -0.1318299E-06 Eh
 * total energy  :  -171.0765309 Eh     change       -0.8547994E-07 Eh
   *** GEOMETRY OPTIMIZATION CONVERGED AFTER 73 ITERATIONS ***

 final structure:
================
103
 xtb: 6.7.1 (edcfbbe)
N           -2.05799101366879       -3.12193417184370       -2.51675541129813
C           -1.70804408994425       -2.37733258784528       -1.71805734053846
C           -1.25732336558874       -1.41245639861577       -0.78797802604515
C           -2.13824999482498       -0.39179768653805       -0.39137683355960
N           -3.46451867473642       -0.41751337134210       -0.80967333492299
C           -4.38094664778154       -1.43088829574499       -0.55487660408273
C           -4.19675218686856       -2.64953026279344        0.07638327973142
C           -5.29865627058342       -3.46953259435632        0.23616483405039
C           -6.55890579561949       -3.08160197940685       -0.20863094535828
C           -6.75196931898412       -1.85596254815302       -0.81595539437760
C           -5.65809468985734       -1.01912597953456       -0.98949480296959
C           -5.50197287399280        0.29749774010524       -1.54765018339369
C           -6.37940495082095        1.19250185771903       -2.14386423099194
C           -5.88019301027310        2.38875350863576       -2.62251652891859
C           -4.52211274360404        2.68198209936450       -2.54366234266352
C           -3.63029001382294        1.80428243512627       -1.95489974590553
C           -4.13720923272904        0.62990150807836       -1.42414593066183
C           -1.65042204356823        0.65911417504170        0.40588443982373
N           -2.48867281317005        1.68207971261226        0.83695238525589
C           -2.31524879352362        3.03799184846818        0.58697412810717
C           -1.27670170789413        3.69151953671671       -0.05482286675336
C           -1.36959580698295        5.06283693064817       -0.20650588617301
C           -2.47560581924105        5.76818978297548        0.25794586150703
C           -3.52541625189725        5.11700817175349        0.87609775753280
C           -3.45106390128046        3.74069078117143        1.04059138567250
C           -4.34487483685869        2.76476454617079        1.60439625809100
C           -5.58810810750407        2.84852340476991        2.21579391846880
C           -6.16929592023313        1.68982712155900        2.69422248721424
C           -5.51302733152793        0.46627850568499        2.59965706709618
C           -4.27360052368623        0.36028328562273        1.99562449562244
C           -3.71443476842796        1.51111213685160        1.46579592207688
C           -0.29836846940476        0.65151574115055        0.78867330908759
C            0.15627785213496        1.61880107033283        1.71444222769317
N            0.51282822054211        2.36664309493807        2.50715754292439
C            0.58085826308577       -0.37004567157990        0.39317797404254
N            1.90777543653983       -0.34910166426422        0.81639167575796
C            2.56845373285727       -1.39858730027928        1.43882421202149
C            2.05162507635586       -2.56489565461381        1.97770370502326
C            2.93680177067615       -3.44565449278950        2.57156275465660
C            4.29844133032639       -3.16515855531112        2.64587664463358
C            4.80991063044692       -1.97883611834916        2.15716222917299
C            3.93734351442966       -1.08049761352796        1.55752893507245
C            4.10146617738109        0.22590813606918        0.98821550904617
C            5.18541109226608        1.07124874006582        0.79075607749669
S            6.84180468889156        0.77069203517728        1.24156051505959
C            7.32407220088142        2.32685131192672        0.59188530662819
C            8.61011074905517        2.84041099080383        0.59076114187390
C            8.81908202964216        4.08871647814269        0.03561711143174
C            7.76020695591444        4.80996308322008       -0.50841084218554
C            6.47956668026292        4.29616635721198       -0.50510169059532
C            6.24257511745892        3.04010334162183        0.04841987280362
C            5.00385712865883        2.31356821499550        0.16100531965605
C            3.73285194849109        2.69448586904345       -0.27776349286204
C            2.64450322335862        1.87006113274760       -0.09391376632521
C            2.83088480006695        0.65128397568550        0.55033756165461
C            0.09508489525875       -1.41960852096939       -0.40536422440993
N            0.93661235552076       -2.44016276914683       -0.83590131573161
C            2.16945564444508       -2.26311102858130       -1.44932533576274
C            2.72466697998279       -1.11152128781139       -1.98184554916263
C            3.97420940941300       -1.21015124391352       -2.56611728030304
C            4.64443269027965       -2.42751661888392       -2.63928344768344
C            4.06670586408152       -3.58806950343455       -2.16111130235353
C            2.81324438061422       -3.51175977275446       -1.57001282394868
C            1.91995971566653       -4.49173257094072       -1.01235669286268
C            2.00379518560439       -5.86639167393988       -0.83891710087305
C            0.95073357940284       -6.52311241868361       -0.23225827929144
C           -0.16785889015787       -5.82471101442786        0.21215990321278
C           -0.26993674650770       -4.45500985246719        0.05182585053058
C            0.77198753299429       -3.79623757686669       -0.57876349989287
H           -3.22803834744571       -2.95884421852200        0.44045789387772
H           -5.17549325690064       -4.42767289600037        0.71825183624397
H           -7.39538218530327       -3.74928492901783       -0.06845630842342
H           -7.73182823259613       -1.54767214619329       -1.14584550278095
H           -7.42676965604889        0.95075573483741       -2.23644649913352
H           -6.54677698766762        3.10145901384899       -3.08391401205209
H           -4.15225414441052        3.60992346510848       -2.95294913820315
H           -2.57488705708694        2.02953741145857       -1.92574627597086
H           -0.41776602908566        3.15662510675927       -0.43287936051952
H           -0.56726616081924        5.59323353737616       -0.69708383606419
H           -2.51186082200581        6.83868594102861        0.12431545141715
H           -4.39046633150851        5.66136110302125        1.22152442930142
H           -6.08219000151991        3.80190317923330        2.31997187020150
H           -7.13850540858649        1.73246299627339        3.16749697343936
H           -5.97480564687106       -0.41969953808495        3.00855756765562
H           -3.76135073786860       -0.58905373680498        1.95386679025877
H            0.99433912481357       -2.78124151520543        1.94963976342465
H            2.55949487507346       -4.36709690357421        2.98836154752165
H            4.95888759288171       -3.88092455369871        3.11093835497055
H            5.85960505696042       -1.74362060445184        2.24143213845463
H            9.42442639579652        2.27430899477712        1.01574229818829
H            9.81419244470029        4.50720875375140        0.02493805501028
H            7.94467857511465        5.78374897180002       -0.93701490509523
H            5.66144773977700        4.86006940376424       -0.92665418545589
H            3.60571913481412        3.64580603703040       -0.76996051721869
H            1.67109989555560        2.17037773304103       -0.45067235207747
H            2.20137618804294       -0.16743078839969       -1.95743531738051
H            4.43314937292568       -0.32365953846819       -2.97757358001612
H            5.62192488374059       -2.46374761798336       -3.09577421063520
H            4.57176580065753       -4.53717517342416       -2.24999393042018
H            2.87851692807641       -6.40498067229095       -1.16864219436462
H            0.99407037400638       -7.59251681177302       -0.09233001980893
H           -0.97285553485266       -6.35921034600419        0.69374156421344
H           -1.13893008985953       -3.92564525557678        0.41392106456192

          :  Hamiltonian                  GFN2-xTB          :
         :: gradient norm              0.000076149024 Eh/a0 ::
         :: HOMO-LUMO gap              1.440681111625 eV    ::
         :: SCC energy              -174.311432580634 Eh    ::
         :: -> dispersion             -0.191349486376 Eh    ::
         :: -> Gsolv                  -0.067102145185 Eh    ::
         :: repulsion energy           3.234901688668 Eh    ::

    * Orbital Energies and Occupations

         #    Occupation            Energy/Eh            Energy/eV
      -------------------------------------------------------------
         1        2.0000           -0.7307562             -19.8849
       ...           ...                  ...                  ...
       147        2.0000           -0.4197401             -11.4217
       148        2.0000           -0.4192914             -11.4095
       149        2.0000           -0.4184100             -11.3855
       150        2.0000           -0.4093397             -11.1387
       151        2.0000           -0.4013531             -10.9214
       152        2.0000           -0.3951088             -10.7515
       153        2.0000           -0.3932004             -10.6995
       154        2.0000           -0.3914644             -10.6523
       155        2.0000           -0.3879409             -10.5564
       156        2.0000           -0.3857361             -10.4964
       157        2.0000           -0.3821333             -10.3984
       158        2.0000           -0.3778792             -10.2826
       159        2.0000           -0.3756854             -10.2229 (HOMO)
       160                         -0.3227417              -8.7822 (LUMO)
       161                         -0.2862607              -7.7895
       162                         -0.2640116              -7.1841
       163                         -0.2598863              -7.0719
       164                         -0.2592007              -7.0532
       165                         -0.2582094              -7.0262
       166                         -0.2574071              -7.0044
       167                         -0.2491791              -6.7805
       168                         -0.2397256              -6.5233
       169                         -0.2385046              -6.4900
       170                         -0.2370263              -6.4498
       ...                                ...                  ...
       315                          1.1427271              31.0952
      -------------------------------------------------------------
                  HL-Gap            0.0529437 Eh            1.4407 eV

     #   Z          covCN         q      C6AA      α(0)
     1   7 N        0.911    -0.246    26.420     7.434
     2   6 C        1.914     0.132    27.869     8.526
     3   6 C        2.974    -0.012    28.300     8.726
     4   6 C        2.916     0.058    26.691     8.472
     5   7 N        2.800    -0.055    22.304     7.014
     6   6 C        3.065     0.049    26.830     8.494
     7   6 C        2.911    -0.047    29.164     8.855
     8   6 C        2.924    -0.031    28.769     8.796
     9   6 C        2.920    -0.037    28.917     8.818
    10   6 C        2.913    -0.031    28.763     8.794
    11   6 C        3.067    -0.013    28.275     8.719
    12   6 C        3.065    -0.014    28.294     8.722
    13   6 C        2.913    -0.031    28.780     8.797
    14   6 C        2.920    -0.037    28.919     8.819
    15   6 C        2.925    -0.031    28.785     8.798
    16   6 C        2.910    -0.049    29.224     8.864
    17   6 C        3.068     0.048    26.855     8.497
    18   6 C        2.916     0.058    26.700     8.473
    19   7 N        2.800    -0.055    22.306     7.015
    20   6 C        3.065     0.049    26.830     8.494
    21   6 C        2.911    -0.047    29.166     8.856
    22   6 C        2.924    -0.031    28.772     8.796
    23   6 C        2.920    -0.037    28.920     8.819
    24   6 C        2.913    -0.031    28.764     8.795
    25   6 C        3.067    -0.013    28.275     8.719
    26   6 C        3.065    -0.014    28.296     8.723
    27   6 C        2.913    -0.031    28.780     8.797
    28   6 C        2.920    -0.037    28.918     8.818
    29   6 C        2.925    -0.031    28.783     8.798
    30   6 C        2.910    -0.049    29.224     8.864
    31   6 C        3.068     0.048    26.855     8.497
    32   6 C        2.974    -0.011    28.293     8.725
    33   6 C        1.914     0.132    27.871     8.526
    34   7 N        0.911    -0.247    26.436     7.436
    35   6 C        2.917     0.057    26.713     8.475
    36   7 N        2.803    -0.053    22.264     7.008
    37   6 C        3.072     0.048    26.849     8.496
    38   6 C        2.910    -0.049    29.214     8.863
    39   6 C        2.925    -0.031    28.770     8.796
    40   6 C        2.921    -0.036    28.884     8.813
    41   6 C        2.913    -0.031    28.762     8.794
    42   6 C        3.065    -0.012    28.252     8.716
    43   6 C        3.086    -0.024    28.505     8.752
    44   6 C        2.996     0.034    27.225     8.559
    45  16 S        2.209    -0.089   144.759    20.250
    46   6 C        3.004     0.037    27.158     8.548
    47   6 C        2.935    -0.038    28.951     8.824
    48   6 C        2.923    -0.030    28.759     8.794
    49   6 C        2.918    -0.034    28.844     8.807
    50   6 C        2.917    -0.033    28.825     8.804
    51   6 C        3.105    -0.003    27.954     8.663
    52   6 C        3.104    -0.012    28.171     8.697
    53   6 C        2.921    -0.035    28.874     8.812
    54   6 C        2.910    -0.053    29.317     8.878
    55   6 C        3.065     0.048    26.849     8.497
    56   6 C        2.916     0.058    26.688     8.471
    57   7 N        2.800    -0.056    22.318     7.017
    58   6 C        3.068     0.048    26.853     8.497
    59   6 C        2.910    -0.050    29.234     8.866
    60   6 C        2.925    -0.031    28.781     8.798
    61   6 C        2.920    -0.037    28.909     8.817
    62   6 C        2.913    -0.031    28.774     8.796
    63   6 C        3.065    -0.014    28.293     8.722
    64   6 C        3.067    -0.013    28.274     8.719
    65   6 C        2.913    -0.030    28.761     8.794
    66   6 C        2.920    -0.037    28.915     8.818
    67   6 C        2.924    -0.031    28.767     8.796
    68   6 C        2.911    -0.047    29.164     8.855
    69   6 C        3.065     0.049    26.830     8.494
    70   1 H        0.926     0.013     2.847     2.639
    71   1 H        0.926     0.041     2.434     2.440
    72   1 H        0.926     0.043     2.403     2.424
    73   1 H        0.926     0.046     2.373     2.409
    74   1 H        0.926     0.045     2.379     2.412
    75   1 H        0.926     0.043     2.411     2.428
    76   1 H        0.926     0.039     2.458     2.452
    77   1 H        0.926     0.018     2.757     2.597
    78   1 H        0.926     0.012     2.860     2.645
    79   1 H        0.926     0.041     2.441     2.443
    80   1 H        0.926     0.043     2.405     2.425
    81   1 H        0.926     0.046     2.373     2.409
    82   1 H        0.926     0.045     2.380     2.413
    83   1 H        0.926     0.043     2.410     2.428
    84   1 H        0.926     0.040     2.454     2.450
    85   1 H        0.926     0.019     2.752     2.594
    86   1 H        0.926     0.020     2.728     2.583
    87   1 H        0.926     0.042     2.427     2.436
    88   1 H        0.926     0.045     2.385     2.415
    89   1 H        0.926     0.048     2.340     2.392
    90   1 H        0.926     0.044     2.400     2.423
    91   1 H        0.926     0.043     2.409     2.427
    92   1 H        0.926     0.041     2.436     2.440
    93   1 H        0.926     0.040     2.443     2.444
    94   1 H        0.926     0.047     2.351     2.398
    95   1 H        0.926     0.017     2.776     2.605
    96   1 H        0.926     0.018     2.769     2.602
    97   1 H        0.926     0.037     2.485     2.465
    98   1 H        0.926     0.043     2.415     2.430
    99   1 H        0.926     0.046     2.375     2.410
   100   1 H        0.926     0.046     2.371     2.408
   101   1 H        0.926     0.044     2.399     2.422
   102   1 H        0.926     0.041     2.429     2.437
   103   1 H        0.926     0.013     2.840     2.635

molecular dipole:
                 x           y           z       tot (Debye)
 q only:       -0.247       0.187      -0.141
   full:       -0.361       0.355      -0.228       1.412

 projected vibrational frequencies (cm⁻¹)
eigval :       -0.00    -0.00    -0.00     0.00     0.00     0.00
eigval :        7.74    12.11    21.38    26.04    27.59    29.07
eigval :       32.15    34.84    43.03    51.67    57.02    57.94
eigval :       62.88    72.79    81.68    88.65   100.27   106.92
eigval :      108.22   112.33   115.99   118.69   121.81   128.89
eigval :      130.09   136.58   139.37   142.25   149.64   157.80
eigval :      162.48   185.60   186.70   200.22   211.51   213.71
eigval :      230.09   241.95   258.00   265.07   271.51   273.34
eigval :      274.95   276.44   288.55   290.33   313.81   334.98
eigval :      353.66   360.54   374.30   384.45   395.27   395.78
eigval :      397.69   399.19   401.78   407.00   411.48   416.86
eigval :      418.15   419.52   423.92   431.66   434.87   439.04
eigval :      443.06   445.04   460.25   480.40   488.09   495.03
eigval :      506.66   511.98   516.41   517.87   521.79   524.93
eigval :      528.01   533.95   538.11   541.80   542.31   542.79
eigval :      543.74   564.08   569.92   576.13   579.24   586.41
eigval :      590.86   594.15   594.68   599.51   618.25   629.91
eigval :      643.83   649.57   657.26   660.19   667.76   670.69
eigval :      672.07   672.68   686.31   687.82   695.89   700.54
eigval :      704.93   705.24   706.71   713.76   727.48   741.50
eigval :      751.64   754.66   757.60   762.64   765.57   767.13
eigval :      771.66   778.01   780.59   781.45   782.30   783.13
eigval :      805.90   812.30   836.34   853.44   859.98   862.96
eigval :      869.34   870.87   875.35   875.67   875.79   876.14
eigval :      887.83   890.72   893.25   895.65   898.16   898.93
eigval :      899.56   904.15   904.51   904.59   905.47   905.51
eigval :      919.80   921.26   921.87   923.36   924.77   925.15
eigval :      925.36   926.52   926.97   975.60  1002.73  1009.87
eigval :     1012.17  1014.07  1028.06  1046.59  1068.20  1069.26
eigval :     1070.37  1071.05  1072.15  1073.32  1074.10  1074.88
eigval :     1077.00  1083.16  1117.62  1122.88  1143.48  1147.63
eigval :     1148.31  1148.75  1151.08  1152.97  1158.79  1164.45
eigval :     1175.90  1176.29  1177.97  1178.00  1178.80  1179.28
eigval :     1180.25  1181.86  1195.92  1214.86  1217.81  1227.90
eigval :     1229.07  1230.94  1232.31  1235.73  1245.72  1258.01
eigval :     1264.55  1271.76  1282.37  1288.77  1290.73  1291.44
eigval :     1292.51  1294.88  1297.21  1302.29  1316.41  1336.88
eigval :     1347.61  1350.53  1356.15  1356.41  1357.06  1357.99
eigval :     1359.18  1359.63  1360.20  1378.01  1391.60  1404.37
eigval :     1407.86  1410.55  1416.40  1420.27  1422.31  1425.09
eigval :     1425.76  1426.62  1438.41  1443.73  1454.36  1459.15
eigval :     1470.58  1470.78  1471.68  1480.78  1484.17  1484.46
eigval :     1484.73  1495.70  1497.22  1560.22  1569.55  1576.83
eigval :     1577.63  1577.80  1578.04  1585.73  1591.92  1592.13
eigval :     1592.77  1594.80  1599.88  1600.19  1600.33  1607.81
eigval :     1611.36  1611.67  1612.92  2360.72  2361.52  3070.41
eigval :     3071.04  3073.04  3077.44  3079.16  3079.66  3080.08
eigval :     3080.18  3082.23  3084.66  3084.70  3085.00  3085.23
eigval :     3085.68  3086.11  3086.36  3086.69  3092.06  3092.40
eigval :     3092.47  3093.17  3093.26  3093.45  3093.81  3094.01
eigval :     3100.14  3100.47  3101.04  3101.13  3102.13  3102.67
eigval :     3102.82  3103.16  3103.30

   temp. (K)  partition function   enthalpy   heat capacity  entropy
                                   cal/mol     cal/K/mol   cal/K/mol   J/K/mol
 298.15  VIB  0.287E+24            31378.183    199.873    193.729
         ROT  0.155E+09              888.752      2.981     40.463
         INT  0.445E+32            32266.935    202.854    234.192
         TR   0.259E+29             1481.254      4.968     46.230
         TOT                       33748.1891   207.8222   280.4218  1173.2849

       T/K    H(0)-H(T)+PV         H(T)/Eh          T*S/Eh         G(T)/Eh
   ------------------------------------------------------------------------
    298.15    0.537812E-01    0.812822E+00    0.133237E+00    0.679585E+00
   ------------------------------------------------------------------------

         :::::::::::::::::::::::::::::::::::::::::::::::::::::
         ::                  THERMODYNAMIC                  ::
         :::::::::::::::::::::::::::::::::::::::::::::::::::::
         :: total free energy        -170.396946004214 Eh   ::
         ::.................................................::
         :: total energy             -171.076530889933 Eh   ::
         :: zero point energy           0.759041181984 Eh   ::
         :: G(RRHO) w/o ZPVE           -0.079456296265 Eh   ::
         :: G(RRHO) contrib.            0.679584885719 Eh   ::
         :::::::::::::::::::::::::::::::::::::::::::::::::::::

           -------------------------------------------------
          | TOTAL ENERGY             -171.076530889933 Eh   |
          | TOTAL ENTHALPY           -170.263708545340 Eh   |
          | TOTAL FREE ENERGY        -170.396946004214 Eh   |
          | GRADIENT NORM               0.000075923761 Eh/α |
          | HOMO-LUMO GAP               1.440671731841 eV   |
           -------------------------------------------------

 * finished run on 2025/07/16 at 20:07:49.737
