   * xtb version 6.7.1 (edcfbbe) compiled by 'albert@albert-system' on 2024-07-22

   ID    Z sym.   atoms
    1    7 N      1, 5, 19, 34, 36, 57
    2    6 C      2-4, 6-18, 20-33, 35, 37-44, 46-56, 58-69
    3   16 S      45
    4    1 H      70-103

          program call               : xtb data2507/toluene/BTCz3CzTPN/BTCz3CzTPN_toluene_S0_crest.xyz --gfn 2 --gbsa toluene --ohess vtight --parallel 40 --molden --ceasefiles --namespace data2507/toluene/BTCz3CzTPN/BTCz3CzTPN_toluene_S0_finalOpt
      * Solvation model:               GBSA
        Solvent                        toluene
        Solvent mass                       9.2140E+01 g/mol
          :  Hamiltonian                  GFN2-xTB          :
 * total energy  :  -171.0750664 Eh     change       -0.1274236E-07 Eh
 * total energy  :  -171.0752351 Eh     change       -0.1686769E-03 Eh
 * total energy  :  -171.0753881 Eh     change       -0.1529362E-03 Eh
 * total energy  :  -171.0754619 Eh     change       -0.7383920E-04 Eh
 * total energy  :  -171.0755543 Eh     change       -0.9242781E-04 Eh
 * total energy  :  -171.0756535 Eh     change       -0.9919461E-04 Eh
 * total energy  :  -171.0757662 Eh     change       -0.1127198E-03 Eh
 * total energy  :  -171.0758244 Eh     change       -0.5816197E-04 Eh
 * total energy  :  -171.0759023 Eh     change       -0.7788399E-04 Eh
 * total energy  :  -171.0760247 Eh     change       -0.1224138E-03 Eh
 * total energy  :  -171.0765552 Eh     change       -0.5598807E-07 Eh
 * total energy  :  -171.0765554 Eh     change       -0.1613791E-06 Eh
 * total energy  :  -171.0765557 Eh     change       -0.3201674E-06 Eh
 * total energy  :  -171.0765560 Eh     change       -0.2902328E-06 Eh
 * total energy  :  -171.0765563 Eh     change       -0.2875603E-06 Eh
 * total energy  :  -171.0765565 Eh     change       -0.2375407E-06 Eh
 * total energy  :  -171.0765567 Eh     change       -0.1458985E-06 Eh
 * total energy  :  -171.0765567 Eh     change       -0.5016494E-07 Eh
 * total energy  :  -171.0765568 Eh     change       -0.6468238E-07 Eh
   *** GEOMETRY OPTIMIZATION CONVERGED AFTER 86 ITERATIONS ***

 final structure:
================
103
 xtb: 6.7.1 (edcfbbe)
N           -1.23972601052307       -3.18959687691900        2.54016083286453
C           -1.16713517968760       -2.31762202243402        1.79909597756823
C           -1.08391510420783       -1.19625599038389        0.94185824065386
C           -2.27014385852968       -0.64464653450223        0.42849206242316
N           -3.48809169091116       -1.27476079579393        0.66138895332735
C           -4.62359405592590       -0.66946414465975        1.18252373897902
C           -4.75957019681433        0.57505303264356        1.77466723355228
C           -6.01139569795158        0.93248712506531        2.24114454080039
C           -7.09547703165727        0.06566119158271        2.14094110782805
C           -6.94969145334710       -1.19721638869232        1.59952148482812
C           -5.70188991085052       -1.57632813459470        1.12439631567849
C           -5.18893244878590       -2.79127080647496        0.54992594837218
C           -5.76686713742637       -4.01342389510306        0.23495961469581
C           -4.97830118698565       -4.99035194419485       -0.34131710917199
C           -3.63480364608143       -4.75521881326635       -0.61760054717021
C           -3.04058219068929       -3.54391279108324       -0.31461610926935
C           -3.82072270158625       -2.57097918332447        0.28720304254231
C           -2.20487016967338        0.55888601859272       -0.29573374194485
N           -3.34976691943144        1.12952267881916       -0.84194470100232
C           -4.27840417969328        0.47252628324441       -1.63746090291218
C           -4.19336958337517       -0.77352315458687       -2.23581937397444
C           -5.26094213083948       -1.18987009816729       -3.00995880761165
C           -6.37505949051448       -0.37844362059675       -3.20217122512427
C           -6.43789693238935        0.88705169733404       -2.65086013337166
C           -5.37816991882397        1.32443632385057       -1.86842788923635
C           -5.09432583440572        2.55876044472729       -1.18639546297276
C           -5.79589845771619        3.74717367004172       -1.03690527259865
C           -5.23543155423685        4.75658359832904       -0.27842060749132
C           -3.99991973197094        4.58653639017180        0.33902244525383
C           -3.28638130691624        3.40959198897255        0.20581507774687
C           -3.83280386564310        2.40463684992887       -0.57452135633105
C           -0.95473397043459        1.17163499015198       -0.48753792152974
C           -0.86829343127514        2.29074633007632       -1.34762603154561
N           -0.79129646037993        3.15960761569353       -2.09194835615317
C            0.23031178815775        0.62056990072501        0.02716753188944
N            1.44930912158188        1.25439797442327       -0.20138932537889
C            1.79155181918314        2.53562152066419        0.21489717109481
C            1.00511899672260        3.52046529157222        0.78782353285488
C            1.61180926300159        4.71418810391169        1.13328751672286
C            2.97311392153895        4.92065410304634        0.92837753594284
C            3.76840736153799        3.93219815702206        0.38291164128344
C            3.17665496790273        2.72788637064587        0.02579447892031
C            3.68596502360264        1.51043907344249       -0.53692560776340
C            4.93942196366829        1.06859559691653       -0.93901682139934
S            6.44398513083709        1.94117651119735       -0.82903871672608
C            7.30790414888301        0.58445212114126       -1.52838494742793
C            8.66987593131984        0.53053092053835       -1.77306577805006
C            9.19195986493916       -0.62049817079190       -2.33239138898728
C            8.36672472203410       -1.69898157944518       -2.63818389196405
C            7.00999198553098       -1.64254909435761       -2.39310824696702
C            6.45878618646458       -0.49235072107507       -1.83332952047743
C            5.08651290431449       -0.21209777325066       -1.49784121157693
C            3.96612670205059       -1.02495863406737       -1.68958898596295
C            2.71460834195834       -0.60971437571164       -1.29111830092976
C            2.59311839537302        0.63211251218767       -0.67590787473553
C            0.16621804862225       -0.58384900059566        0.75015036704629
N            1.31281154700630       -1.16042397131756        1.28865323141873
C            1.80852357160372       -2.42269627778042        0.98187190435948
C            1.24678249190177       -3.43000097322483        0.21576861616810
C            1.97514234320716       -4.59203211339970        0.03782756682442
C            3.24058780023892       -4.74471205817613        0.59627751133237
C            3.81548358240157       -3.73261785873320        1.34036381839240
C            3.09859202197678       -2.56021779813600        1.53586570033008
C            3.38881203542426       -1.33030042129594        2.22301975267471
C            4.47512249126801       -0.88151073791838        2.96132003127320
C            4.41121488587593        0.37403441969074        3.53477970058876
C            3.27127497138177        1.16253143245988        3.40992333413948
C            2.17800780013816        0.73528794452872        2.67874917265706
C            2.26312608003041       -0.49805996508602        2.05432433152933
H           -3.92039045967347        1.24535026957595        1.88411071231363
H           -6.14467529590015        1.90275305265590        2.69529589839725
H           -8.05872158410780        0.38229432863503        2.51104566117927
H           -7.78268150065775       -1.88125758668895        1.55235582380129
H           -6.81238827916909       -4.18947391884891        0.43452111492899
H           -5.40709745515989       -5.94933505619219       -0.58957051384626
H           -3.04232747049952       -5.53062809918029       -1.07960161959768
H           -2.00025761936523       -3.37173768955043       -0.54861627074652
H           -3.32215757911676       -1.40017628605002       -2.11812707971117
H           -5.22311397562777       -2.16292208668785       -3.47602364891695
H           -7.19155485409565       -0.73983102247182       -3.80868359043467
H           -7.28722574160472        1.52833274167351       -2.82797227926694
H           -6.76106164600077        3.87265529098747       -1.50235809917506
H           -5.76269220842163        5.69014249563112       -0.15340948296081
H           -3.58880183503576        5.38602089568069        0.93686862645055
H           -2.33558539489317        3.28719856164737        0.70368231099182
H           -0.04971564799402        3.37204666884364        0.96446397201790
H            1.01464947796194        5.49904322763520        1.57249261813656
H            3.41070133167938        5.86668769980988        1.20821762885697
H            4.82708292695600        4.08126598710551        0.23728702495859
H            9.30190956781049        1.37108686999741       -1.53155838546590
H           10.25099956546568       -0.68256796235064       -2.53258710186884
H            8.79517793211679       -2.58965474884641       -3.07307213735961
H            6.37307662868521       -2.48103238993444       -2.63052469913127
H            4.08496027801392       -1.98823891478585       -2.15943043747551
H            1.85092292849467       -1.23294279097422       -1.46453183528913
H            0.27203519971633       -3.32161072865644       -0.23639352794338
H            1.55159071092269       -5.39325854979548       -0.54896633674605
H            3.77942267977192       -5.66639907111241        0.43700544271485
H            4.80334012886661       -3.84359564012292        1.75973414036781
H            5.34611550684042       -1.50583081680741        3.08706742100850
H            5.24813309431448        0.74516027325123        4.10651413235804
H            3.23414510414188        2.12564987184331        3.89592894298766
H            1.28847846707758        1.34374685536258        2.61102124530843

          :  Hamiltonian                  GFN2-xTB          :
         :: gradient norm              0.000113447974 Eh/a0 ::
         :: HOMO-LUMO gap              1.434808186616 eV    ::
         :: SCC energy              -174.311060022385 Eh    ::
         :: -> dispersion             -0.192470521943 Eh    ::
         :: -> Gsolv                  -0.066617234741 Eh    ::
         :: repulsion energy           3.234503213390 Eh    ::

    * Orbital Energies and Occupations

         #    Occupation            Energy/Eh            Energy/eV
      -------------------------------------------------------------
         1        2.0000           -0.7307269             -19.8841
       ...           ...                  ...                  ...
       147        2.0000           -0.4196409             -11.4190
       148        2.0000           -0.4195480             -11.4165
       149        2.0000           -0.4182052             -11.3799
       150        2.0000           -0.4097907             -11.1510
       151        2.0000           -0.4019387             -10.9373
       152        2.0000           -0.3948969             -10.7457
       153        2.0000           -0.3932332             -10.7004
       154        2.0000           -0.3913668             -10.6496
       155        2.0000           -0.3879463             -10.5566
       156        2.0000           -0.3859590             -10.5025
       157        2.0000           -0.3817917             -10.3891
       158        2.0000           -0.3785589             -10.3011
       159        2.0000           -0.3752827             -10.2120 (HOMO)
       160                         -0.3225547              -8.7772 (LUMO)
       161                         -0.2864168              -7.7938
       162                         -0.2638826              -7.1806
       163                         -0.2601478              -7.0790
       164                         -0.2590193              -7.0483
       165                         -0.2585947              -7.0367
       166                         -0.2571792              -6.9982
       167                         -0.2487863              -6.7698
       168                         -0.2395485              -6.5184
       169                         -0.2385760              -6.4920
       170                         -0.2374301              -6.4608
       ...                                ...                  ...
       315                          1.1427610              31.0961
      -------------------------------------------------------------
                  HL-Gap            0.0527281 Eh            1.4348 eV

     #   Z          covCN         q      C6AA      α(0)
     1   7 N        0.911    -0.247    26.427     7.435
     2   6 C        1.914     0.132    27.866     8.525
     3   6 C        2.974    -0.012    28.298     8.726
     4   6 C        2.916     0.058    26.694     8.472
     5   7 N        2.800    -0.055    22.303     7.014
     6   6 C        3.068     0.048    26.856     8.498
     7   6 C        2.910    -0.049    29.225     8.865
     8   6 C        2.925    -0.031    28.784     8.798
     9   6 C        2.920    -0.037    28.919     8.819
    10   6 C        2.913    -0.031    28.780     8.797
    11   6 C        3.066    -0.014    28.296     8.723
    12   6 C        3.067    -0.013    28.276     8.719
    13   6 C        2.913    -0.031    28.764     8.795
    14   6 C        2.920    -0.037    28.919     8.819
    15   6 C        2.924    -0.031    28.772     8.796
    16   6 C        2.911    -0.047    29.163     8.855
    17   6 C        3.065     0.049    26.830     8.494
    18   6 C        2.916     0.058    26.698     8.473
    19   7 N        2.800    -0.055    22.305     7.014
    20   6 C        3.068     0.048    26.856     8.498
    21   6 C        2.910    -0.049    29.226     8.865
    22   6 C        2.925    -0.031    28.785     8.798
    23   6 C        2.920    -0.037    28.920     8.819
    24   6 C        2.913    -0.031    28.780     8.797
    25   6 C        3.065    -0.014    28.296     8.723
    26   6 C        3.067    -0.013    28.277     8.720
    27   6 C        2.913    -0.031    28.764     8.795
    28   6 C        2.920    -0.037    28.919     8.819
    29   6 C        2.924    -0.031    28.770     8.796
    30   6 C        2.911    -0.047    29.164     8.855
    31   6 C        3.065     0.049    26.830     8.494
    32   6 C        2.974    -0.011    28.291     8.725
    33   6 C        1.914     0.132    27.876     8.527
    34   7 N        0.911    -0.246    26.413     7.433
    35   6 C        2.917     0.058    26.710     8.475
    36   7 N        2.802    -0.054    22.284     7.011
    37   6 C        3.069     0.049    26.824     8.492
    38   6 C        2.911    -0.047    29.155     8.854
    39   6 C        2.924    -0.030    28.756     8.794
    40   6 C        2.921    -0.035    28.882     8.813
    41   6 C        2.913    -0.030    28.746     8.792
    42   6 C        3.067    -0.011    28.226     8.712
    43   6 C        3.083    -0.025    28.528     8.756
    44   6 C        2.997     0.033    27.244     8.562
    45  16 S        2.208    -0.089   144.764    20.250
    46   6 C        3.004     0.037    27.156     8.548
    47   6 C        2.934    -0.038    28.952     8.824
    48   6 C        2.923    -0.030    28.759     8.794
    49   6 C        2.918    -0.034    28.841     8.807
    50   6 C        2.917    -0.033    28.820     8.803
    51   6 C        3.106    -0.003    27.954     8.663
    52   6 C        3.104    -0.012    28.172     8.697
    53   6 C        2.921    -0.036    28.886     8.814
    54   6 C        2.910    -0.055    29.371     8.887
    55   6 C        3.070     0.048    26.862     8.498
    56   6 C        2.916     0.058    26.691     8.472
    57   7 N        2.799    -0.058    22.350     7.022
    58   6 C        3.065     0.050    26.824     8.493
    59   6 C        2.911    -0.047    29.171     8.856
    60   6 C        2.924    -0.031    28.773     8.797
    61   6 C        2.920    -0.037    28.921     8.819
    62   6 C        2.913    -0.031    28.764     8.795
    63   6 C        3.067    -0.014    28.283     8.720
    64   6 C        3.065    -0.015    28.312     8.725
    65   6 C        2.913    -0.031    28.779     8.797
    66   6 C        2.920    -0.036    28.906     8.817
    67   6 C        2.925    -0.031    28.776     8.797
    68   6 C        2.910    -0.049    29.224     8.864
    69   6 C        3.068     0.048    26.850     8.497
    70   1 H        0.926     0.019     2.752     2.594
    71   1 H        0.926     0.039     2.455     2.450
    72   1 H        0.926     0.043     2.411     2.428
    73   1 H        0.926     0.045     2.381     2.413
    74   1 H        0.926     0.046     2.374     2.409
    75   1 H        0.926     0.043     2.405     2.425
    76   1 H        0.926     0.041     2.437     2.441
    77   1 H        0.926     0.012     2.854     2.642
    78   1 H        0.926     0.018     2.756     2.596
    79   1 H        0.926     0.039     2.458     2.452
    80   1 H        0.926     0.043     2.412     2.429
    81   1 H        0.926     0.045     2.381     2.413
    82   1 H        0.926     0.046     2.374     2.410
    83   1 H        0.926     0.043     2.404     2.425
    84   1 H        0.926     0.041     2.435     2.440
    85   1 H        0.926     0.012     2.853     2.641
    86   1 H        0.926     0.015     2.808     2.621
    87   1 H        0.926     0.043     2.406     2.426
    88   1 H        0.926     0.045     2.377     2.411
    89   1 H        0.926     0.049     2.333     2.389
    90   1 H        0.926     0.044     2.399     2.422
    91   1 H        0.926     0.043     2.406     2.426
    92   1 H        0.926     0.041     2.433     2.439
    93   1 H        0.926     0.041     2.441     2.443
    94   1 H        0.926     0.046     2.372     2.408
    95   1 H        0.926     0.023     2.689     2.564
    96   1 H        0.926     0.013     2.839     2.635
    97   1 H        0.926     0.041     2.431     2.438
    98   1 H        0.926     0.044     2.403     2.424
    99   1 H        0.926     0.045     2.384     2.415
   100   1 H        0.926     0.044     2.397     2.421
   101   1 H        0.926     0.043     2.411     2.428
   102   1 H        0.926     0.040     2.452     2.449
   103   1 H        0.926     0.018     2.757     2.596

molecular dipole:
                 x           y           z       tot (Debye)
 q only:       -0.122      -0.299      -0.091
   full:       -0.197      -0.490      -0.153       1.398

 projected vibrational frequencies (cm⁻¹)
eigval :       -0.00    -0.00    -0.00     0.00     0.00     0.00
eigval :       11.56    12.52    18.65    24.97    27.12    28.11
eigval :       30.20    37.88    45.32    50.99    54.74    61.43
eigval :       62.82    72.78    80.40    91.78   102.71   104.56
eigval :      108.69   111.55   114.73   119.13   121.85   128.36
eigval :      130.15   132.05   135.30   147.34   151.33   158.20
eigval :      163.61   180.99   185.07   199.68   217.88   219.47
eigval :      221.17   245.20   258.93   263.78   272.60   272.88
eigval :      274.37   277.64   286.98   290.75   318.59   336.49
eigval :      353.18   360.18   374.44   385.50   394.47   396.95
eigval :      397.96   399.24   402.23   404.80   409.16   417.33
eigval :      417.46   421.08   423.86   431.40   435.13   438.77
eigval :      443.73   445.26   460.47   481.10   491.38   495.70
eigval :      506.92   512.92   516.52   517.95   521.65   523.09
eigval :      527.54   533.30   538.42   540.67   541.37   542.39
eigval :      544.79   562.48   569.56   576.24   580.23   587.87
eigval :      591.41   594.24   595.73   598.92   619.36   633.34
eigval :      634.76   653.78   656.98   661.16   667.97   670.63
eigval :      670.84   672.88   686.91   688.91   694.04   700.86
eigval :      704.72   705.80   706.61   712.77   727.67   748.07
eigval :      752.82   755.11   760.63   763.37   765.88   767.62
eigval :      771.53   771.88   778.39   778.96   780.73   780.92
eigval :      805.43   822.93   836.33   857.89   859.58   867.52
eigval :      867.76   868.59   869.12   873.96   874.42   876.68
eigval :      891.38   893.37   897.62   899.47   899.71   900.83
eigval :      900.91   902.59   903.62   904.27   904.69   904.72
eigval :      918.14   920.18   920.30   922.28   922.37   923.22
eigval :      924.58   925.09   930.67   978.11   996.31  1010.95
eigval :     1012.46  1014.00  1029.77  1047.15  1068.48  1069.91
eigval :     1070.18  1070.54  1072.18  1073.37  1074.11  1074.36
eigval :     1077.50  1083.07  1117.12  1123.48  1143.59  1147.02
eigval :     1148.85  1150.05  1151.46  1152.10  1158.42  1163.94
eigval :     1175.43  1175.50  1176.62  1177.91  1179.19  1179.53
eigval :     1180.87  1181.09  1196.67  1214.70  1217.63  1228.15
eigval :     1229.91  1231.46  1232.55  1234.47  1245.87  1258.13
eigval :     1263.64  1271.30  1282.00  1287.20  1290.53  1291.75
eigval :     1292.40  1294.91  1297.16  1301.79  1316.97  1336.97
eigval :     1346.77  1350.39  1356.11  1356.51  1356.58  1357.82
eigval :     1358.91  1359.60  1360.29  1376.19  1393.49  1404.34
eigval :     1407.72  1410.93  1416.24  1419.93  1422.14  1425.33
eigval :     1425.95  1427.24  1437.47  1445.33  1452.11  1459.31
eigval :     1470.47  1470.81  1471.75  1480.58  1484.21  1484.47
eigval :     1484.79  1495.20  1496.92  1560.73  1569.87  1576.36
eigval :     1577.53  1577.82  1578.02  1585.24  1591.68  1592.13
eigval :     1592.67  1594.63  1599.86  1600.13  1600.40  1607.71
eigval :     1611.45  1611.71  1613.09  2360.45  2361.31  3070.65
eigval :     3071.15  3073.50  3075.76  3079.06  3080.02  3080.11
eigval :     3080.82  3083.76  3084.32  3084.35  3085.63  3086.01
eigval :     3086.07  3086.52  3086.73  3088.76  3091.29  3092.25
eigval :     3092.31  3092.60  3093.12  3093.40  3094.10  3094.28
eigval :     3099.89  3100.47  3100.67  3100.82  3102.66  3103.13
eigval :     3103.21  3103.39  3106.35

   temp. (K)  partition function   enthalpy   heat capacity  entropy
                                   cal/mol     cal/K/mol   cal/K/mol   J/K/mol
 298.15  VIB  0.217E+24            31368.101    199.881    193.428
         ROT  0.147E+09              888.752      2.981     40.359
         INT  0.320E+32            32256.854    202.861    233.787
         TR   0.259E+29             1481.254      4.968     46.230
         TOT                       33738.1077   207.8296   280.0174  1171.5927

       T/K    H(0)-H(T)+PV         H(T)/Eh          T*S/Eh         G(T)/Eh
   ------------------------------------------------------------------------
    298.15    0.537651E-01    0.812853E+00    0.133045E+00    0.679808E+00
   ------------------------------------------------------------------------

         :::::::::::::::::::::::::::::::::::::::::::::::::::::
         ::                  THERMODYNAMIC                  ::
         :::::::::::::::::::::::::::::::::::::::::::::::::::::
         :: total free energy        -170.396749158523 Eh   ::
         ::.................................................::
         :: total energy             -171.076556808797 Eh   ::
         :: zero point energy           0.759087845408 Eh   ::
         :: G(RRHO) w/o ZPVE           -0.079280195134 Eh   ::
         :: G(RRHO) contrib.            0.679807650274 Eh   ::
         :::::::::::::::::::::::::::::::::::::::::::::::::::::

           -------------------------------------------------
          | TOTAL ENERGY             -171.076556808797 Eh   |
          | TOTAL ENTHALPY           -170.263703866417 Eh   |
          | TOTAL FREE ENERGY        -170.396749158523 Eh   |
          | GRADIENT NORM               0.000113377488 Eh/α |
          | HOMO-LUMO GAP               1.434804332585 eV   |
           -------------------------------------------------

 * finished run on 2025/07/16 at 20:15:17.430
