   * xtb version 6.7.1 (edcfbbe) compiled by 'albert@albert-system' on 2024-07-22

   ID    Z sym.   atoms
    1    7 N      1, 5, 19, 34, 36, 57
    2    6 C      2-4, 6-18, 20-33, 35, 37-44, 46-56, 58-69
    3   16 S      45
    4    1 H      70-103

          program call               : xtb data2507/toluene/BTCz3CzTPN/BTCz3CzTPN_toluene_T1_crest.xyz --gfn 2 --uhf 2 --gbsa toluene --ohess vtight --parallel 40 --molden --ceasefiles --namespace data2507/toluene/BTCz3CzTPN/BTCz3CzTPN_toluene_T1_finalOpt
      * Solvation model:               GBSA
        Solvent                        toluene
        Solvent mass                       9.2140E+01 g/mol
          :  Hamiltonian                  GFN2-xTB          :
 * total energy  :  -171.0078482 Eh     change       -0.1828056E-08 Eh
 * total energy  :  -171.0080660 Eh     change       -0.2178399E-03 Eh
 * total energy  :  -171.0082311 Eh     change       -0.1650383E-03 Eh
 * total energy  :  -171.0083052 Eh     change       -0.7409180E-04 Eh
 * total energy  :  -171.0084023 Eh     change       -0.9711353E-04 Eh
 * total energy  :  -171.0085009 Eh     change       -0.9857337E-04 Eh
 * total energy  :  -171.0085863 Eh     change       -0.8549400E-04 Eh
 * total energy  :  -171.0086725 Eh     change       -0.8619197E-04 Eh
 * total energy  :  -171.0087759 Eh     change       -0.1033327E-03 Eh
 * total energy  :  -171.0088853 Eh     change       -0.1094512E-03 Eh
 * total energy  :  -171.0095193 Eh     change       -0.3881886E-06 Eh
 * total energy  :  -171.0095197 Eh     change       -0.3745688E-06 Eh
 * total energy  :  -171.0095202 Eh     change       -0.5351923E-06 Eh
 * total energy  :  -171.0095210 Eh     change       -0.7379232E-06 Eh
 * total energy  :  -171.0095216 Eh     change       -0.6900998E-06 Eh
 * total energy  :  -171.0095221 Eh     change       -0.5024064E-06 Eh
 * total energy  :  -171.0095223 Eh     change       -0.1794030E-06 Eh
 * total energy  :  -171.0095227 Eh     change       -0.3667324E-06 Eh
 * total energy  :  -171.0095228 Eh     change       -0.5814150E-07 Eh
   *** GEOMETRY OPTIMIZATION CONVERGED AFTER 70 ITERATIONS ***

 final structure:
================
103
 xtb: 6.7.1 (edcfbbe)
N           -1.24481320869029       -3.18539801899766        2.58168532680160
C           -1.17032789435414       -2.28979800164102        1.84994912776020
C           -1.08074256203439       -1.21420828187965        0.98176846769374
C           -2.26335475836124       -0.63047091259431        0.42247805760031
N           -3.49626179070882       -1.25021368112201        0.66236435134746
C           -4.61198631490431       -0.64496856561857        1.20721208398113
C           -4.73550271149611        0.60691379031243        1.79177570653632
C           -5.97824179663007        0.97240940758885        2.27601903553735
C           -7.06710582912648        0.10945312882616        2.19774625642136
C           -6.93594129466914       -1.15966591024366        1.66000991308491
C           -5.69895537823687       -1.54730814888542        1.16960169287325
C           -5.19643138069741       -2.76595704151850        0.59100156166668
C           -5.77444847288426       -3.98915408274994        0.29034123892614
C           -4.98818080657907       -4.96842358968665       -0.29154494422597
C           -3.64779470875773       -4.73282238748731       -0.58573428308755
C           -3.05295501146953       -3.51861631452667       -0.30036193287780
C           -3.83015570801743       -2.54055619345493        0.30472982678477
C           -2.19686177832265        0.54233301330311       -0.30163767842905
N           -3.34927467934476        1.08539533832493       -0.88350016615253
C           -4.22786354789766        0.41437442687503       -1.71154125985427
C           -4.10275581359806       -0.83802781819352       -2.29459645258618
C           -5.13570367625868       -1.27978303571451       -3.10100415911285
C           -6.25662764527164       -0.48980118757830       -3.33741563811827
C           -6.36152094641370        0.78150844951841       -2.79879127814089
C           -5.33779245334224        1.24444116346431       -1.98731137952299
C           -5.09591877440009        2.48774570087139       -1.30296560928759
C           -5.81336828436495        3.66749442780733       -1.18471465678323
C           -5.28630862837230        4.68905817329088       -0.41357683823786
C           -4.06894641680102        4.53745684906207        0.24492978431146
C           -3.34012914817415        3.36752623948442        0.14601899379946
C           -3.85224499538855        2.34807507575506       -0.64467629033758
C           -0.94404528617886        1.20404880300975       -0.51071417612876
C           -0.85098792333364        2.27540592636732       -1.38330179670531
N           -0.76948306037317        3.16632218030368       -2.12024693123355
C            0.23656537151997        0.62110923557447        0.05070797417843
N            1.47271817115113        1.24076202689035       -0.18117353935015
C            1.81913882234907        2.51896283348248        0.20547762432108
C            1.03997430145921        3.51280612159533        0.78204492003063
C            1.65049140927462        4.71059014564260        1.09763253083033
C            3.00885274096835        4.91732929031668        0.86190296006427
C            3.79740612642513        3.92517012556417        0.31036317197804
C            3.20223334678430        2.71605658855187       -0.01993477411734
C            3.69669767337489        1.49313535217133       -0.58260692182853
C            4.93696015241717        1.04336747607359       -1.01117690510625
S            6.44424454623744        1.90827294617473       -0.94807618911534
C            7.28665690267461        0.54242762468299       -1.66334456546608
C            8.63979197776018        0.48268817801370       -1.94447563539186
C            9.14274305867672       -0.67533567995105       -2.51215079835513
C            8.30620172281950       -1.75181052260855       -2.78869511440351
C            6.95592454697012       -1.68912513372150       -2.50628159476921
C            6.42503740029034       -0.53333566719363       -1.93748863472337
C            5.06443112834979       -0.24679953794897       -1.56621729807948
C            3.93715069189786       -1.05797740297640       -1.71923188889938
C            2.69829674374035       -0.63491911562025       -1.28896311494685
C            2.59354849153302        0.61692108344403       -0.68582445472387
C            0.17043550782109       -0.55225089803902        0.77538634627510
N            1.32487956694971       -1.09477285857390        1.35530243346562
C            1.84500308974288       -2.34628806814028        1.09336430804432
C            1.33036784902373       -3.37100484159899        0.31129094063145
C            2.07626373319776       -4.52774989454904        0.18791972463560
C            3.31371447322630       -4.66088185213900        0.81251017882261
C            3.84295070217170       -3.63391249867899        1.57436956622928
C            3.10778030636810       -2.46769752276546        1.71850359320897
C            3.34406675503547       -1.22613213823137        2.40739012656563
C            4.38054871131699       -0.74948606175696        3.19491975328920
C            4.26374679728739        0.51344075755740        3.74997518305307
C            3.11995768047074        1.28145645593563        3.55364803867113
C            2.07567069127410        0.82740593528448        2.76890939021585
C            2.21153692972176       -0.41561816950994        2.16860865052874
H           -3.88936571133692        1.27083109795742        1.88227205416253
H           -6.10128689555019        1.94571368187397        2.72630480562069
H           -8.02344354886784        0.43172945493487        2.58052969349411
H           -7.77462375271009       -1.83765882958327        1.62827800575125
H           -6.81632017165911       -4.16974987386466        0.50473835152609
H           -5.41822209683742       -5.92999775555947       -0.52746471651920
H           -3.06027700482809       -5.51214108408761       -1.04736037687137
H           -2.01505678064359       -3.34288921640987       -0.53862079879942
H           -3.22324181806565       -1.44404020371305       -2.13958007228804
H           -5.06580015201551       -2.25570785082839       -3.55699797868765
H           -7.04652418402492       -0.87011761392606       -3.96705898242858
H           -7.21775503507225        1.40330200044474       -3.00912213469154
H           -6.76377087183325        3.78250118665866       -1.68225078303593
H           -5.82720073925589        5.61787028008568       -0.31387500569187
H           -3.68608262837026        5.34777566874337        0.84686962130386
H           -2.40091056335481        3.25643623271393        0.66609449132130
H           -0.01105571153065        3.36082021626898        0.97285292641724
H            1.06231473391404        5.50178618332456        1.53744730396102
H            3.44911485954021        5.86818654583308        1.12053033189910
H            4.85165620908399        4.07896814055960        0.13940087746562
H            9.28191853643796        1.32156195766263       -1.72587073686054
H           10.19552705751009       -0.74167277100387       -2.74084522191086
H            8.71866976065089       -2.64644247926710       -3.23032757216076
H            6.30986253717460       -2.52629128510499       -2.72129250112960
H            4.04026978098705       -2.02578154139407       -2.18305382970785
H            1.82642523343311       -1.25399189580449       -1.43159621946711
H            0.37490203951842       -3.27487902765826       -0.18118368666015
H            1.69090372024664       -5.34236896264860       -0.40666234644411
H            3.86762492385492       -5.57983365824736        0.69431913998665
H            4.80803795268800       -3.73422886219558        2.04632619884466
H            5.25539018056559       -1.35493649963480        3.37468540929109
H            5.06257230887389        0.90429114122462        4.36160828558802
H            3.04130784336858        2.24949315563430        4.02461422898854
H            1.17917523650710        1.41549307580569        2.64369004723114

          :  Hamiltonian                  GFN2-xTB          :
         :: gradient norm              0.000108385992 Eh/a0 ::
         :: HOMO-LUMO gap              0.711861644974 eV    ::
         :: SCC energy              -174.223957580326 Eh    ::
         :: -> dispersion             -0.190462899838 Eh    ::
         :: -> Gsolv                  -0.074614061845 Eh    ::
         :: repulsion energy           3.214434825285 Eh    ::

    * Orbital Energies and Occupations

         #    Occupation            Energy/Eh            Energy/eV
      -------------------------------------------------------------
         1        2.0000           -0.7367106             -20.0469
       ...           ...                  ...                  ...
       148        2.0000           -0.4139614             -11.2645
       149        2.0000           -0.4123517             -11.2207
       150        2.0000           -0.4104223             -11.1682
       151        2.0000           -0.4033391             -10.9754
       152        2.0000           -0.3958144             -10.7707
       153        2.0000           -0.3945676             -10.7367
       154        2.0000           -0.3927421             -10.6871
       155        1.9998           -0.3851679             -10.4810
       156        1.9995           -0.3840684             -10.4510
       157        1.9760           -0.3803605             -10.3501
       158        1.7791           -0.3780363             -10.2869
       159        1.2455           -0.3757725             -10.2253
       160        1.0000           -0.2956279              -8.0444 (HOMO)
       161        0.0000           -0.2694671              -7.3326 (LUMO)
       162                         -0.2631238              -7.1600
       163                         -0.2625708              -7.1449
       164                         -0.2602962              -7.0830
       165                         -0.2594810              -7.0608
       166                         -0.2525505              -6.8722
       167                         -0.2407761              -6.5519
       168                         -0.2391137              -6.5066
       169                         -0.2379018              -6.4736
       170                         -0.2348713              -6.3912
       171                         -0.2298977              -6.2558
       ...                                ...                  ...
       315                          1.1648958              31.6984
      -------------------------------------------------------------
                  HL-Gap            0.0261607 Eh            0.7119 eV

     #   Z          covCN         q      C6AA      α(0)
     1   7 N        0.911    -0.356    29.158     7.810
     2   6 C        1.909     0.109    28.397     8.606
     3   6 C        2.965    -0.055    29.352     8.887
     4   6 C        2.911     0.042    27.067     8.531
     5   7 N        2.803    -0.036    21.943     6.957
     6   6 C        3.075     0.050    26.803     8.488
     7   6 C        2.910    -0.045    29.118     8.848
     8   6 C        2.923    -0.031    28.780     8.798
     9   6 C        2.920    -0.034    28.843     8.807
    10   6 C        2.913    -0.029    28.732     8.790
    11   6 C        3.066    -0.014    28.290     8.722
    12   6 C        3.067    -0.013    28.259     8.717
    13   6 C        2.912    -0.029    28.728     8.789
    14   6 C        2.920    -0.033    28.812     8.802
    15   6 C        2.923    -0.030    28.753     8.793
    16   6 C        2.910    -0.039    28.963     8.825
    17   6 C        3.074     0.055    26.694     8.471
    18   6 C        2.911     0.042    27.056     8.529
    19   7 N        2.803    -0.036    21.933     6.956
    20   6 C        3.075     0.050    26.802     8.488
    21   6 C        2.910    -0.045    29.114     8.848
    22   6 C        2.923    -0.031    28.779     8.797
    23   6 C        2.920    -0.034    28.840     8.807
    24   6 C        2.913    -0.029    28.730     8.789
    25   6 C        3.066    -0.014    28.287     8.721
    26   6 C        3.067    -0.012    28.255     8.716
    27   6 C        2.912    -0.029    28.725     8.789
    28   6 C        2.920    -0.032    28.807     8.801
    29   6 C        2.923    -0.030    28.750     8.793
    30   6 C        2.910    -0.039    28.960     8.824
    31   6 C        3.074     0.055    26.695     8.471
    32   6 C        2.965    -0.055    29.361     8.888
    33   6 C        1.909     0.108    28.421     8.610
    34   7 N        0.911    -0.356    29.163     7.810
    35   6 C        2.911     0.040    27.101     8.536
    36   7 N        2.805    -0.033    21.887     6.948
    37   6 C        3.079     0.055    26.683     8.469
    38   6 C        2.910    -0.039    28.958     8.824
    39   6 C        2.923    -0.029    28.722     8.789
    40   6 C        2.921    -0.031    28.771     8.796
    41   6 C        2.911    -0.029    28.729     8.789
    42   6 C        3.068    -0.010    28.201     8.708
    43   6 C        3.085    -0.026    28.543     8.758
    44   6 C        2.994     0.034    27.219     8.558
    45  16 S        2.207    -0.060   143.561    20.166
    46   6 C        3.003     0.037    27.167     8.550
    47   6 C        2.934    -0.035    28.877     8.813
    48   6 C        2.923    -0.027    28.677     8.782
    49   6 C        2.918    -0.031    28.782     8.798
    50   6 C        2.917    -0.029    28.732     8.790
    51   6 C        3.103    -0.001    27.909     8.657
    52   6 C        3.103    -0.006    28.028     8.675
    53   6 C        2.919    -0.035    28.872     8.811
    54   6 C        2.909    -0.048    29.185     8.858
    55   6 C        3.078     0.049    26.813     8.490
    56   6 C        2.911     0.043    27.043     8.527
    57   7 N        2.802    -0.039    21.999     6.966
    58   6 C        3.073     0.054    26.704     8.473
    59   6 C        2.910    -0.040    28.983     8.828
    60   6 C        2.923    -0.030    28.757     8.794
    61   6 C        2.920    -0.033    28.823     8.804
    62   6 C        2.912    -0.030    28.738     8.791
    63   6 C        3.068    -0.013    28.275     8.719
    64   6 C        3.065    -0.015    28.316     8.726
    65   6 C        2.913    -0.030    28.738     8.790
    66   6 C        2.920    -0.034    28.845     8.807
    67   6 C        2.923    -0.031    28.776     8.797
    68   6 C        2.910    -0.045    29.126     8.850
    69   6 C        3.076     0.050    26.808     8.489
    70   1 H        0.926     0.026     2.647     2.544
    71   1 H        0.926     0.042     2.417     2.431
    72   1 H        0.926     0.046     2.367     2.406
    73   1 H        0.926     0.048     2.346     2.395
    74   1 H        0.926     0.048     2.341     2.393
    75   1 H        0.926     0.047     2.359     2.402
    76   1 H        0.926     0.044     2.399     2.422
    77   1 H        0.926     0.023     2.689     2.564
    78   1 H        0.926     0.026     2.645     2.543
    79   1 H        0.926     0.042     2.416     2.431
    80   1 H        0.926     0.046     2.365     2.405
    81   1 H        0.926     0.048     2.344     2.394
    82   1 H        0.926     0.049     2.338     2.391
    83   1 H        0.926     0.047     2.355     2.400
    84   1 H        0.926     0.044     2.394     2.420
    85   1 H        0.926     0.023     2.685     2.562
    86   1 H        0.926     0.026     2.649     2.545
    87   1 H        0.926     0.046     2.366     2.406
    88   1 H        0.926     0.049     2.326     2.385
    89   1 H        0.926     0.052     2.297     2.370
    90   1 H        0.926     0.049     2.328     2.386
    91   1 H        0.926     0.049     2.338     2.391
    92   1 H        0.926     0.046     2.367     2.406
    93   1 H        0.926     0.046     2.370     2.407
    94   1 H        0.926     0.052     2.298     2.371
    95   1 H        0.926     0.033     2.546     2.495
    96   1 H        0.926     0.023     2.685     2.562
    97   1 H        0.926     0.044     2.398     2.421
    98   1 H        0.926     0.047     2.359     2.402
    99   1 H        0.926     0.048     2.350     2.397
   100   1 H        0.926     0.047     2.358     2.401
   101   1 H        0.926     0.046     2.368     2.406
   102   1 H        0.926     0.042     2.418     2.432
   103   1 H        0.926     0.025     2.657     2.549

molecular dipole:
                 x           y           z       tot (Debye)
 q only:        0.853      -0.258      -0.374
   full:        0.727      -0.437      -0.418       2.405

 projected vibrational frequencies (cm⁻¹)
eigval :       -0.00    -0.00     0.00     0.00     0.00     0.00
eigval :       10.88    12.46    17.28    22.05    26.26    28.83
eigval :       30.28    39.53    46.90    50.25    52.42    58.14
eigval :       61.48    71.78    73.02    88.93    99.89   104.88
eigval :      106.99   109.32   113.12   116.77   119.87   125.79
eigval :      128.26   130.63   134.16   146.18   147.39   155.50
eigval :      161.63   177.61   181.68   194.68   216.93   217.73
eigval :      218.41   239.01   250.64   259.78   270.95   271.58
eigval :      273.82   276.25   284.07   289.03   317.64   335.14
eigval :      358.59   363.25   372.94   383.04   389.25   392.80
eigval :      396.12   398.26   400.78   404.03   405.87   416.10
eigval :      417.88   419.28   421.76   428.97   432.43   435.50
eigval :      440.87   443.79   454.49   459.76   478.67   488.82
eigval :      493.02   501.26   508.32   514.82   514.91   516.20
eigval :      520.61   533.23   536.51   537.00   538.07   538.80
eigval :      540.63   544.90   557.11   563.67   577.06   581.44
eigval :      585.05   587.15   595.27   597.54   602.70   617.40
eigval :      628.60   639.16   645.35   653.83   661.07   664.77
eigval :      671.40   671.61   672.98   685.76   688.44   702.78
eigval :      706.10   707.18   707.46   710.72   725.23   745.51
eigval :      751.91   753.65   758.90   762.19   764.01   765.94
eigval :      767.44   771.54   775.55   776.78   777.96   783.14
eigval :      801.47   820.51   834.80   856.73   858.13   858.95
eigval :      864.66   865.65   868.54   868.89   871.44   872.18
eigval :      890.64   893.32   897.47   897.60   898.99   899.55
eigval :      899.84   901.15   901.89   903.61   903.80   906.39
eigval :      916.01   917.60   917.78   919.04   919.92   922.11
eigval :      922.35   922.64   926.69   977.95   993.96  1009.68
eigval :     1010.68  1012.74  1023.52  1043.72  1063.10  1064.76
eigval :     1066.12  1066.43  1067.38  1069.09  1069.67  1071.50
eigval :     1073.19  1082.73  1108.71  1119.94  1138.49  1140.34
eigval :     1140.89  1141.63  1143.77  1152.39  1153.42  1155.02
eigval :     1172.73  1173.09  1173.91  1174.96  1175.91  1176.02
eigval :     1178.29  1180.31  1192.58  1211.68  1216.32  1219.41
eigval :     1225.29  1227.61  1229.25  1229.56  1238.38  1240.90
eigval :     1255.33  1271.60  1275.62  1279.85  1281.25  1282.45
eigval :     1283.44  1289.37  1292.80  1295.80  1309.83  1311.56
eigval :     1336.73  1338.43  1339.06  1341.72  1343.20  1346.00
eigval :     1349.68  1359.14  1359.21  1362.05  1364.87  1378.21
eigval :     1385.53  1394.22  1397.56  1410.47  1411.18  1412.39
eigval :     1414.19  1416.48  1423.30  1427.89  1438.79  1451.48
eigval :     1459.95  1460.25  1460.42  1476.98  1478.13  1480.53
eigval :     1480.61  1480.94  1534.51  1542.36  1545.40  1564.87
eigval :     1565.93  1566.19  1566.48  1574.82  1578.65  1579.45
eigval :     1579.70  1580.40  1581.10  1581.99  1583.75  1592.07
eigval :     1598.26  1600.01  1604.26  2250.21  2294.86  3080.19
eigval :     3081.74  3082.57  3082.79  3083.11  3083.62  3083.91
eigval :     3084.16  3086.00  3086.27  3086.40  3087.12  3087.79
eigval :     3088.40  3089.17  3089.64  3092.73  3093.73  3094.08
eigval :     3094.66  3094.72  3095.11  3095.31  3095.69  3096.70
eigval :     3100.57  3100.91  3101.26  3101.60  3102.31  3102.77
eigval :     3103.02  3103.46  3107.66

   temp. (K)  partition function   enthalpy   heat capacity  entropy
                                   cal/mol     cal/K/mol   cal/K/mol   J/K/mol
 298.15  VIB  0.501E+24            31638.173    201.035    195.540
         ROT  0.148E+09              888.752      2.981     40.370
         INT  0.743E+32            32526.925    204.016    235.910
         TR   0.259E+29             1481.254      4.968     46.230
         TOT                       34008.1792   208.9843   282.1396  1180.4720

       T/K    H(0)-H(T)+PV         H(T)/Eh          T*S/Eh         G(T)/Eh
   ------------------------------------------------------------------------
    298.15    0.541955E-01    0.809861E+00    0.134054E+00    0.675808E+00
   ------------------------------------------------------------------------

         :::::::::::::::::::::::::::::::::::::::::::::::::::::
         ::                  THERMODYNAMIC                  ::
         :::::::::::::::::::::::::::::::::::::::::::::::::::::
         :: total free energy        -170.333714960693 Eh   ::
         ::.................................................::
         :: total energy             -171.009522753200 Eh   ::
         :: zero point energy           0.755665922961 Eh   ::
         :: G(RRHO) w/o ZPVE           -0.079858130453 Eh   ::
         :: G(RRHO) contrib.            0.675807792508 Eh   ::
         :::::::::::::::::::::::::::::::::::::::::::::::::::::

           -------------------------------------------------
          | TOTAL ENERGY             -171.009522753200 Eh   |
          | TOTAL ENTHALPY           -170.199661346965 Eh   |
          | TOTAL FREE ENERGY        -170.333714960693 Eh   |
          | GRADIENT NORM               0.000108563516 Eh/α |
          | HOMO-LUMO GAP               0.711869813635 eV   |
           -------------------------------------------------

 * finished run on 2025/07/16 at 20:25:40.397
