   * xtb version 6.7.1 (edcfbbe) compiled by 'albert@albert-system' on 2024-07-22

   ID    Z sym.   atoms
    1    7 N      1, 5, 19, 34, 36, 57
    2    6 C      2-4, 6-18, 20-33, 35, 37-44, 46-56, 58-69
    3   16 S      45
    4    1 H      70-103

          program call               : xtb data2507/toluene/BTCz3CzTPN/BTCz3CzTPN_toluene_S0_finalOpt.xtbopt.xyz --gfn 2 --uhf 2 --gbsa toluene --ohess vtight --parallel 40 --molden --ceasefiles --namespace data2507/toluene/BTCz3CzTPN/BTCz3CzTPN_toluene_T1_preOpt
      * Solvation model:               GBSA
        Solvent                        toluene
        Solvent mass                       9.2140E+01 g/mol
          :  Hamiltonian                  GFN2-xTB          :
 * total energy  :  -171.0035147 Eh     change       -0.4258169E-08 Eh
 * total energy  :  -171.0079308 Eh     change       -0.4416095E-02 Eh
 * total energy  :  -171.0090962 Eh     change       -0.1165416E-02 Eh
 * total energy  :  -171.0091914 Eh     change       -0.9519613E-04 Eh
 * total energy  :  -171.0092780 Eh     change       -0.8663224E-04 Eh
 * total energy  :  -171.0093087 Eh     change       -0.3065624E-04 Eh
 * total energy  :  -171.0093403 Eh     change       -0.3162983E-04 Eh
 * total energy  :  -171.0093545 Eh     change       -0.1417219E-04 Eh
 * total energy  :  -171.0093673 Eh     change       -0.1280132E-04 Eh
 * total energy  :  -171.0093804 Eh     change       -0.1314538E-04 Eh
 * total energy  :  -171.0095172 Eh     change       -0.3499729E-06 Eh
 * total energy  :  -171.0095176 Eh     change       -0.3704375E-06 Eh
 * total energy  :  -171.0095180 Eh     change       -0.4000853E-06 Eh
 * total energy  :  -171.0095184 Eh     change       -0.4178422E-06 Eh
 * total energy  :  -171.0095188 Eh     change       -0.3340749E-06 Eh
 * total energy  :  -171.0095190 Eh     change       -0.2283834E-06 Eh
 * total energy  :  -171.0095192 Eh     change       -0.2124713E-06 Eh
 * total energy  :  -171.0095194 Eh     change       -0.2425849E-06 Eh
 * total energy  :  -171.0095194 Eh     change       -0.7058730E-08 Eh
   *** GEOMETRY OPTIMIZATION CONVERGED AFTER 44 ITERATIONS ***

 final structure:
================
103
 xtb: 6.7.1 (edcfbbe)
N           -1.23274573763466       -3.25390250515514        2.49703464533864
C           -1.16382316301684       -2.33800811095690        1.79029757297493
C           -1.07896417425622       -1.24025907975231        0.94980921122094
C           -2.26438741628620       -0.64004900956010        0.41444252653500
N           -3.49758605349221       -1.26089944963325        0.65007237518637
C           -4.60565083769299       -0.66382560784744        1.21919588354502
C           -4.71837908534667        0.57466446314255        1.83374203113287
C           -5.95487227229234        0.93380124274285        2.33833853808551
C           -7.04806111237937        0.07725286713274        2.25056636086510
C           -6.92734436111932       -1.17950128596751        1.68227538365975
C           -5.69677885222827       -1.56056085933881        1.17097148032729
C           -5.20497028627299       -2.76748670533333        0.55959610365764
C           -5.79082388583911       -3.98150450862923        0.23761876244094
C           -5.01407273114218       -4.95092055287868       -0.37285214909345
C           -3.67537915631169       -4.71433976916037       -0.67384983974261
C           -3.07292007723672       -3.50895435894924       -0.36768342710497
C           -3.84043866667969       -2.54119035512602        0.26576252707504
C           -2.20014137370344        0.54969486872388       -0.28176011562378
N           -3.35535415027124        1.10931452388462       -0.84199471976097
C           -4.24140863461982        0.46072485614267       -1.67993844843882
C           -4.12431089136973       -0.77822195146171       -2.29263837947523
C           -5.16341067994196       -1.19731870067587       -3.10323111651037
C           -6.28254559762233       -0.39789214623258       -3.31502198971649
C           -6.37986257866414        0.86072152429521       -2.74600934506066
C           -5.35008498066900        1.30075621334114       -1.92942241489017
C           -5.09989907356781        2.52676324174487       -1.21735740560363
C           -5.81288706242085        3.70545318583696       -1.06610996398002
C           -5.27784988902578        4.70660148549470       -0.27399168997719
C           -4.05677363088663        4.53571152097092        0.37279050175104
C           -3.33237240214902        3.36629007638635        0.24123167909343
C           -3.85264095345477        2.36759791495438       -0.57035611839099
C           -0.94734744967945        1.21376166618886       -0.48326901432224
C           -0.85781716005627        2.30593576117723       -1.33001645458867
N           -0.78017630802325        3.21551971138907       -2.04425844442328
C            0.23576414934712        0.61566596408255        0.05651853971433
N            1.47136172405971        1.24019140402045       -0.16522995554043
C            1.82124088606392        2.50681576343482        0.25519783984073
C            1.04467709875614        3.48749357947577        0.85720512788561
C            1.65791947717580        4.67570733142343        1.20241044757072
C            3.01669700148542        4.88524344661049        0.97154951713835
C            3.80287441249008        3.90527784135190        0.39542844619577
C            3.20490268525641        2.70612533364210        0.03518893144579
C            3.69645368858824        1.49683959232926       -0.55851514585615
C            4.93637739527730        1.05347264012693       -0.99458820284970
S            6.44715966227265        1.90954395686841       -0.90192534727739
C            7.28743321733913        0.55761740799110       -1.64563636391705
C            8.64215609901751        0.49760563523500       -1.91896443981914
C            9.14311602717489       -0.64892014811599       -2.51127016723321
C            8.30294656454550       -1.71373277286579       -2.82008792904972
C            6.95105155228905       -1.65074236164306       -2.54558033345681
C            6.42221108463726       -0.50644144334836       -1.95219729329368
C            5.06086402552819       -0.22272730269186       -1.58158559563780
C            3.93075515991652       -1.02457336797172       -1.76059186882302
C            2.69221144610253       -0.60817549987514       -1.32296362154983
C            2.59074429692654        0.62711021450333       -0.68609469510654
C            0.17207289379706       -0.57543834788878        0.75186989812697
N            1.32934076767175       -1.13535335975937        1.30944474219028
C            1.84626702980934       -2.37906340654019        1.00696563508924
C            1.32410079312008       -3.38026859041808        0.19981841213054
C            2.06912965461396       -4.53224869632550        0.03418447342822
C            3.31275009886781       -4.68332318845771        0.64226119344193
C            3.84861184269359       -3.67991240516152        1.43037631516135
C            3.11460912986526       -2.51893791213464        1.61674566010895
C            3.35771035435658       -1.29796946701910        2.33925812931663
C            4.40145469070535       -0.84508108465497        3.13119987868107
C            4.29106027675739        0.40170540578095        3.72279259709340
C            3.14695856266475        1.17650246277414        3.55754114166347
C            2.09538172188764        0.74617115919801        2.76912162509218
C            2.22401995612276       -0.47996863365933        2.13343630248162
H           -3.86861030498723        1.23287327854865        1.93162556679152
H           -6.06950814915678        1.89687693166517        2.81221083241923
H           -7.99937928463803        0.39433328313775        2.64983431457721
H           -7.76919207927933       -1.85316110454810        1.64290842592643
H           -6.83138655644535       -4.16268424357405        0.45787227609012
H           -5.45029561107619       -5.90536175496564       -0.62576126405873
H           -3.09523133043626       -5.48578343427693       -1.15746458348464
H           -2.03628227501582       -3.33260476513756       -0.61091460690312
H           -3.24621382331783       -1.39083315829114       -2.15674390715254
H           -5.09977881111874       -2.16257643629758       -3.58224022954631
H           -7.07718479431617       -0.76040744867343       -3.94917882271736
H           -7.23486330586946        1.49035964978945       -2.93722861526132
H           -6.76608978890161        3.83530194324396       -1.55454482889955
H           -5.81529854095281        5.63429106277109       -0.14848780828486
H           -3.66756004696426        5.33027070039402        0.99141819879887
H           -2.39040935465733        3.23992352596059        0.75275618349222
H           -0.00670753923836        3.33332459893842        1.04407278887904
H            1.07158995588089        5.45700677557388        1.66194509344272
H            3.45911419492054        5.82842074062904        1.25353425195476
H            4.85743743712214        4.06086056055763        0.22800815819603
H            9.28719680045669        1.32726207440898       -1.67525179944569
H           10.19717806038976       -0.71535736600448       -2.73396855233665
H            8.71391906503369       -2.59954208128439       -3.28052141955970
H            6.30206660317548       -2.47882282060668       -2.78547206217119
H            4.03145486678003       -1.98000308562227       -2.24983162904479
H            1.81819113813512       -1.21942357703459       -1.48496091084265
H            0.36392709055959       -3.26973976106889       -0.28036340324269
H            1.67835728725825       -5.32878711207275       -0.58101513620766
H            3.86618763966624       -5.59761238916653        0.49031328712006
H            4.81828841143314       -3.79392817205852        1.88963993557608
H            5.27687199130701       -1.45648053850612        3.28643943213512
H            5.09544499121764        0.77404236514532        4.33865746061445
H            3.07396181012712        2.13111112455721        4.05596599209751
H            1.19930600432591        1.33953071730049        2.66745873169306

          :  Hamiltonian                  GFN2-xTB          :
         :: gradient norm              0.000112047339 Eh/a0 ::
         :: HOMO-LUMO gap              0.711112028820 eV    ::
         :: SCC energy              -174.223882639539 Eh    ::
         :: -> dispersion             -0.190615050138 Eh    ::
         :: -> Gsolv                  -0.074558393512 Eh    ::
         :: repulsion energy           3.214363194759 Eh    ::

    * Orbital Energies and Occupations

         #    Occupation            Energy/Eh            Energy/eV
      -------------------------------------------------------------
         1        2.0000           -0.7367275             -20.0474
       ...           ...                  ...                  ...
       148        2.0000           -0.4139506             -11.2642
       149        2.0000           -0.4123540             -11.2207
       150        2.0000           -0.4104321             -11.1684
       151        2.0000           -0.4033618             -10.9760
       152        2.0000           -0.3958039             -10.7704
       153        2.0000           -0.3945720             -10.7368
       154        2.0000           -0.3927522             -10.6873
       155        1.9998           -0.3851673             -10.4809
       156        1.9995           -0.3840781             -10.4513
       157        1.9758           -0.3803563             -10.3500
       158        1.7792           -0.3780406             -10.2870
       159        1.2457           -0.3757770             -10.2254
       160        1.0000           -0.2956265              -8.0444 (HOMO)
       161        0.0000           -0.2694940              -7.3333 (LUMO)
       162                         -0.2631301              -7.1601
       163                         -0.2625680              -7.1448
       164                         -0.2603071              -7.0833
       165                         -0.2594744              -7.0607
       166                         -0.2525414              -6.8720
       167                         -0.2407652              -6.5516
       168                         -0.2391438              -6.5074
       169                         -0.2379094              -6.4738
       170                         -0.2348764              -6.3913
       171                         -0.2298823              -6.2554
       ...                                ...                  ...
       315                          1.1648587              31.6974
      -------------------------------------------------------------
                  HL-Gap            0.0261324 Eh            0.7111 eV

     #   Z          covCN         q      C6AA      α(0)
     1   7 N        0.911    -0.356    29.158     7.810
     2   6 C        1.909     0.109    28.397     8.606
     3   6 C        2.965    -0.055    29.352     8.887
     4   6 C        2.910     0.042    27.068     8.531
     5   7 N        2.803    -0.036    21.942     6.957
     6   6 C        3.075     0.050    26.803     8.488
     7   6 C        2.910    -0.045    29.118     8.848
     8   6 C        2.923    -0.031    28.781     8.798
     9   6 C        2.920    -0.034    28.843     8.807
    10   6 C        2.913    -0.029    28.732     8.790
    11   6 C        3.066    -0.014    28.290     8.722
    12   6 C        3.067    -0.013    28.259     8.717
    13   6 C        2.912    -0.029    28.728     8.789
    14   6 C        2.920    -0.033    28.811     8.802
    15   6 C        2.923    -0.030    28.753     8.793
    16   6 C        2.910    -0.039    28.962     8.825
    17   6 C        3.074     0.055    26.695     8.471
    18   6 C        2.911     0.042    27.056     8.529
    19   7 N        2.803    -0.036    21.932     6.956
    20   6 C        3.075     0.050    26.802     8.488
    21   6 C        2.910    -0.045    29.114     8.848
    22   6 C        2.923    -0.031    28.779     8.797
    23   6 C        2.920    -0.034    28.840     8.807
    24   6 C        2.913    -0.029    28.730     8.789
    25   6 C        3.066    -0.014    28.286     8.721
    26   6 C        3.067    -0.012    28.255     8.716
    27   6 C        2.912    -0.029    28.725     8.789
    28   6 C        2.920    -0.032    28.807     8.801
    29   6 C        2.923    -0.030    28.750     8.793
    30   6 C        2.910    -0.039    28.959     8.824
    31   6 C        3.074     0.055    26.694     8.471
    32   6 C        2.965    -0.055    29.361     8.888
    33   6 C        1.909     0.108    28.421     8.610
    34   7 N        0.911    -0.356    29.163     7.810
    35   6 C        2.911     0.040    27.101     8.536
    36   7 N        2.805    -0.034    21.890     6.949
    37   6 C        3.079     0.055    26.683     8.469
    38   6 C        2.910    -0.039    28.960     8.824
    39   6 C        2.923    -0.029    28.722     8.789
    40   6 C        2.921    -0.031    28.771     8.796
    41   6 C        2.911    -0.029    28.730     8.789
    42   6 C        3.068    -0.010    28.201     8.708
    43   6 C        3.085    -0.026    28.543     8.758
    44   6 C        2.994     0.034    27.220     8.558
    45  16 S        2.207    -0.060   143.555    20.166
    46   6 C        3.003     0.037    27.167     8.550
    47   6 C        2.934    -0.035    28.877     8.813
    48   6 C        2.923    -0.027    28.677     8.782
    49   6 C        2.918    -0.031    28.781     8.797
    50   6 C        2.917    -0.029    28.731     8.790
    51   6 C        3.103    -0.001    27.908     8.657
    52   6 C        3.103    -0.006    28.028     8.675
    53   6 C        2.920    -0.035    28.872     8.811
    54   6 C        2.909    -0.048    29.184     8.858
    55   6 C        3.078     0.049    26.812     8.489
    56   6 C        2.911     0.043    27.042     8.527
    57   7 N        2.802    -0.039    22.003     6.967
    58   6 C        3.074     0.055    26.702     8.473
    59   6 C        2.910    -0.040    28.984     8.828
    60   6 C        2.923    -0.030    28.757     8.794
    61   6 C        2.920    -0.033    28.824     8.804
    62   6 C        2.912    -0.030    28.739     8.791
    63   6 C        3.067    -0.013    28.275     8.719
    64   6 C        3.065    -0.015    28.317     8.726
    65   6 C        2.913    -0.030    28.738     8.790
    66   6 C        2.920    -0.034    28.845     8.807
    67   6 C        2.923    -0.031    28.776     8.797
    68   6 C        2.910    -0.045    29.126     8.849
    69   6 C        3.076     0.050    26.807     8.489
    70   1 H        0.926     0.026     2.646     2.544
    71   1 H        0.926     0.042     2.417     2.431
    72   1 H        0.926     0.046     2.367     2.406
    73   1 H        0.926     0.048     2.346     2.395
    74   1 H        0.926     0.048     2.341     2.393
    75   1 H        0.926     0.047     2.359     2.402
    76   1 H        0.926     0.044     2.399     2.422
    77   1 H        0.926     0.023     2.689     2.564
    78   1 H        0.926     0.026     2.645     2.543
    79   1 H        0.926     0.042     2.416     2.431
    80   1 H        0.926     0.046     2.365     2.405
    81   1 H        0.926     0.048     2.344     2.394
    82   1 H        0.926     0.049     2.338     2.391
    83   1 H        0.926     0.047     2.355     2.400
    84   1 H        0.926     0.044     2.394     2.420
    85   1 H        0.926     0.023     2.685     2.562
    86   1 H        0.926     0.026     2.648     2.545
    87   1 H        0.926     0.046     2.367     2.406
    88   1 H        0.926     0.049     2.326     2.385
    89   1 H        0.926     0.052     2.297     2.370
    90   1 H        0.926     0.049     2.327     2.386
    91   1 H        0.926     0.049     2.337     2.391
    92   1 H        0.926     0.046     2.366     2.406
    93   1 H        0.926     0.046     2.370     2.407
    94   1 H        0.926     0.052     2.298     2.371
    95   1 H        0.926     0.033     2.546     2.495
    96   1 H        0.926     0.023     2.685     2.563
    97   1 H        0.926     0.044     2.398     2.421
    98   1 H        0.926     0.047     2.359     2.402
    99   1 H        0.926     0.048     2.350     2.397
   100   1 H        0.926     0.047     2.359     2.402
   101   1 H        0.926     0.046     2.368     2.406
   102   1 H        0.926     0.042     2.418     2.432
   103   1 H        0.926     0.025     2.658     2.550

molecular dipole:
                 x           y           z       tot (Debye)
 q only:        0.853      -0.248      -0.371
   full:        0.726      -0.425      -0.421       2.391

 projected vibrational frequencies (cm⁻¹)
eigval :       -0.00    -0.00    -0.00     0.00     0.00     0.00
eigval :       11.26    11.55    17.44    21.92    26.39    28.00
eigval :       29.34    40.48    46.85    50.38    53.21    58.60
eigval :       61.58    72.04    73.10    89.59   101.76   106.60
eigval :      107.88   110.26   113.72   117.14   120.94   125.79
eigval :      128.53   130.30   134.14   146.14   148.45   157.34
eigval :      162.60   178.23   182.20   194.99   216.97   218.45
eigval :      218.84   239.13   252.23   260.82   271.24   272.46
eigval :      274.44   276.15   283.65   289.06   317.94   335.49
eigval :      358.89   363.54   373.11   383.15   389.70   392.70
eigval :      396.83   398.26   400.98   403.74   405.61   416.52
eigval :      418.18   420.32   422.42   429.52   432.96   435.83
eigval :      440.76   443.71   454.95   459.96   478.37   488.01
eigval :      493.63   501.36   509.01   514.70   515.26   516.47
eigval :      520.74   533.52   536.46   537.94   538.03   538.63
eigval :      540.67   544.50   557.44   563.89   577.24   581.57
eigval :      585.28   587.26   595.18   597.33   602.64   617.64
eigval :      628.86   639.70   645.81   653.88   661.15   664.77
eigval :      671.49   671.94   672.74   686.09   688.33   702.92
eigval :      706.13   707.18   707.61   710.81   725.23   745.49
eigval :      752.12   753.97   759.11   762.28   763.72   766.69
eigval :      767.91   771.40   777.45   777.91   778.61   783.14
eigval :      801.50   821.90   834.78   857.04   858.25   858.91
eigval :      864.76   865.72   868.61   871.88   873.09   873.45
eigval :      890.69   893.43   897.60   898.17   899.21   899.74
eigval :      901.13   901.69   903.12   903.88   904.12   906.15
eigval :      915.61   917.31   919.00   919.66   921.48   922.48
eigval :      922.73   924.25   926.66   977.93   993.91  1009.89
eigval :     1011.08  1012.85  1023.44  1043.69  1063.08  1065.23
eigval :     1066.63  1067.48  1068.72  1069.51  1071.19  1072.99
eigval :     1074.19  1082.79  1108.72  1120.04  1138.61  1140.07
eigval :     1141.24  1142.57  1144.20  1153.02  1154.30  1155.86
eigval :     1172.00  1173.60  1174.40  1175.14  1176.28  1176.76
eigval :     1178.49  1180.45  1193.76  1212.71  1216.94  1221.36
eigval :     1225.65  1228.51  1229.80  1230.75  1238.80  1241.07
eigval :     1255.50  1271.65  1275.77  1279.73  1281.36  1282.74
eigval :     1283.48  1289.74  1293.45  1296.05  1310.08  1311.58
eigval :     1336.70  1338.41  1339.03  1341.72  1343.11  1346.02
eigval :     1349.66  1359.12  1359.44  1362.04  1365.00  1378.21
eigval :     1385.55  1394.55  1397.69  1410.58  1411.66  1412.59
eigval :     1414.84  1416.61  1423.52  1428.06  1438.65  1451.60
eigval :     1459.88  1460.18  1460.47  1476.65  1477.95  1480.55
eigval :     1480.63  1481.01  1534.39  1542.30  1545.33  1564.87
eigval :     1565.88  1566.20  1566.44  1574.89  1578.78  1579.48
eigval :     1579.68  1580.43  1581.10  1581.98  1583.67  1592.01
eigval :     1598.27  1600.16  1604.38  2250.18  2294.83  3080.74
eigval :     3081.70  3082.83  3083.26  3083.72  3083.92  3084.12
eigval :     3084.53  3085.87  3086.37  3086.61  3087.34  3088.01
eigval :     3088.76  3089.44  3089.85  3093.21  3093.47  3094.32
eigval :     3094.59  3094.89  3094.94  3095.68  3096.02  3096.71
eigval :     3100.53  3100.95  3101.61  3101.94  3102.41  3102.78
eigval :     3103.00  3103.71  3109.15

   temp. (K)  partition function   enthalpy   heat capacity  entropy
                                   cal/mol     cal/K/mol   cal/K/mol   J/K/mol
 298.15  VIB  0.473E+24            31607.436    200.976    195.294
         ROT  0.148E+09              888.752      2.981     40.367
         INT  0.700E+32            32496.188    203.957    235.662
         TR   0.259E+29             1481.254      4.968     46.230
         TOT                       33977.4422   208.9249   281.8916  1179.4345

       T/K    H(0)-H(T)+PV         H(T)/Eh          T*S/Eh         G(T)/Eh
   ------------------------------------------------------------------------
    298.15    0.541465E-01    0.810013E+00    0.133936E+00    0.676078E+00
   ------------------------------------------------------------------------

         :::::::::::::::::::::::::::::::::::::::::::::::::::::
         ::                  THERMODYNAMIC                  ::
         :::::::::::::::::::::::::::::::::::::::::::::::::::::
         :: total free energy        -170.333441855330 Eh   ::
         ::.................................................::
         :: total energy             -171.009519444973 Eh   ::
         :: zero point energy           0.755866886571 Eh   ::
         :: G(RRHO) w/o ZPVE           -0.079789296928 Eh   ::
         :: G(RRHO) contrib.            0.676077589643 Eh   ::
         :::::::::::::::::::::::::::::::::::::::::::::::::::::

           -------------------------------------------------
          | TOTAL ENERGY             -171.009519444973 Eh   |
          | TOTAL ENTHALPY           -170.199506057652 Eh   |
          | TOTAL FREE ENERGY        -170.333441855330 Eh   |
          | GRADIENT NORM               0.000111687621 Eh/α |
          | HOMO-LUMO GAP               0.711099846485 eV   |
           -------------------------------------------------

 * finished run on 2025/07/16 at 20:15:33.677
