   * xtb version 6.7.1 (edcfbbe) compiled by 'albert@albert-system' on 2024-07-22

   ID    Z sym.   atoms
    1    7 N      1, 5, 19, 41, 43, 57
    2    6 C      2-4, 6-18, 20-35, 37-40, 42, 44-56, 58-73, 75, 76
    3   16 S      36, 74
    4    1 H      77-112

          program call               : xtb data2507/toluene/12BTCzTPN/12BTCzTPN.xyz --gfn 2 --gbsa toluene --ohess vtight --parallel 40 --molden --ceasefiles --namespace data2507/toluene/12BTCzTPN/12BTCzTPN_toluene_S0_preOpt
      * Solvation model:               GBSA
        Solvent                        toluene
        Solvent mass                       9.2140E+01 g/mol
          :  Hamiltonian                  GFN2-xTB          :
 * total energy  :  -188.1406864 Eh     change       -0.7145189E-08 Eh
 * total energy  :  -188.1939558 Eh     change       -0.5326934E-01 Eh
 * total energy  :  -188.2164542 Eh     change       -0.2249842E-01 Eh
 * total energy  :  -188.2238124 Eh     change       -0.7358219E-02 Eh
 * total energy  :  -188.2272816 Eh     change       -0.3469202E-02 Eh
 * total energy  :  -188.2280745 Eh     change       -0.7928531E-03 Eh
 * total energy  :  -188.2284964 Eh     change       -0.4218878E-03 Eh
 * total energy  :  -188.2289905 Eh     change       -0.4941387E-03 Eh
 * total energy  :  -188.2293840 Eh     change       -0.3935266E-03 Eh
 * total energy  :  -188.2296720 Eh     change       -0.2879414E-03 Eh
 * total energy  :  -188.2360485 Eh     change       -0.9385842E-06 Eh
 * total energy  :  -188.2360498 Eh     change       -0.1371398E-05 Eh
 * total energy  :  -188.2360501 Eh     change       -0.3212505E-06 Eh
 * total energy  :  -188.2360504 Eh     change       -0.2847507E-06 Eh
 * total energy  :  -188.2360506 Eh     change       -0.1394659E-06 Eh
 * total energy  :  -188.2360508 Eh     change       -0.2658477E-06 Eh
 * total energy  :  -188.2360509 Eh     change       -0.1889546E-07 Eh
 * total energy  :  -188.2360511 Eh     change       -0.1987026E-06 Eh
 * total energy  :  -188.2360511 Eh     change       -0.5463335E-08 Eh
   *** GEOMETRY OPTIMIZATION CONVERGED AFTER 100 ITERATIONS ***

 final structure:
================
112
 xtb: 6.7.1 (edcfbbe)
N           -0.35527951797607        1.06047142909468       -4.24066133182029
C           -0.19834874068097        0.83095485365220       -3.12831684839585
C           -0.00495300429882        0.53005377457863       -1.76127812154448
C            1.11651646905505        1.04314594886984       -1.09087193233845
N            2.01205984004854        1.87748781373881       -1.75339285994143
C            1.70864265442892        3.13120775291455       -2.27087027629869
C            0.48192582158965        3.76579848597773       -2.37496065955412
C            0.46308730133695        5.04501637766905       -2.90079442714073
C            1.63450382931746        5.68100467829415       -3.30192421271989
C            2.86126225302057        5.05792171988090       -3.17895711702527
C            2.90486984085410        3.77284774631324       -2.65521373937357
C            3.97795358548823        2.85815941240894       -2.36817958720359
C            5.35442453842646        2.91032275396326       -2.54069663208547
C            6.10869925399940        1.81007727556791       -2.18005568257926
C            5.50670236171824        0.65672144122103       -1.68500492318429
C            4.13761493455441        0.58182753805163       -1.50666862034417
C            3.38636048784983        1.70301216004678       -1.81661036145982
C            1.31138176832033        0.70485562445569        0.25519890628407
N            2.43694818215540        1.14795107380410        0.94810905358500
C            2.80915011460855        2.46695511808642        1.15232888791836
C            2.12364022103732        3.62797264460806        0.83643818804990
C            2.71898805493892        4.83186299225367        1.16466191126350
C            3.95229946516192        4.87754180754657        1.80985596995525
C            4.61404611413958        3.71958222033616        2.16883174310609
C            4.03757433216002        2.49755320071843        1.84564395054023
C            4.42045447912029        1.13141537488666        2.07424632735472
C            5.52672735358807        0.54232832669409        2.68401780108473
C            5.63023777126551       -0.82951332555813        2.71282563752425
C            4.65254401671630       -1.63174933283987        2.11410834099847
C            4.63036911911241       -3.06878260812538        2.00135216137157
C            5.54226514684759       -4.00157277421771        2.48957890239948
C            5.33022823899933       -5.34669289866163        2.26436300699060
C            4.21545261915824       -5.78535521803414        1.55649441724088
C            3.29614286551450       -4.88072060162407        1.05858284400874
C            3.51554990754216       -3.53374378551714        1.28646596195043
S            2.47910697017432       -2.22804663492739        0.73961468237985
C            3.53634193505255       -1.04554859776510        1.49685833116425
C            3.40602560769063        0.33340911897023        1.50350264819132
C            0.36411191070474       -0.09286625623462        0.91535734686458
C            0.56752715416993       -0.39523117485022        2.28036870559081
N            0.74538931547671       -0.61856888034449        3.39132583689236
C           -0.76509721659697       -0.59229880106928        0.25086836583444
N           -1.68378462355277       -1.39590639814598        0.92208056243096
C           -2.11385486919265       -2.63579972842272        0.46867227095587
C           -1.51533324462745       -3.47499250058930       -0.45572203110803
C           -2.12298656717888       -4.69169200033205       -0.70565986486438
C           -3.28518642786789       -5.06920790369235       -0.03938727334866
C           -3.85254142317423       -4.25574950432189        0.92288646345183
C           -3.25734481116848       -3.03069032619095        1.19165197869188
C           -3.52091004689531       -1.98365209122928        2.14265462353712
C           -4.50623931311580       -1.79965405363578        3.10319005459493
C           -4.46657262254528       -0.66057669357810        3.88280949189533
C           -3.45912358812913        0.28457082335159        3.71637278258510
C           -2.47215809873378        0.12612541745215        2.76069731485725
C           -2.51358586124505       -1.01028388097305        1.97021595882127
C           -0.93976035016702       -0.28494674372174       -1.10968830905644
N           -2.05822672958513       -0.75832511830642       -1.80096935861549
C           -2.08091157038895       -1.75021019072572       -2.77306581187997
C           -1.03679216715412       -2.27678491397888       -3.51441161780328
C           -1.33483399525380       -3.27704964422695       -4.42137301511451
C           -2.63565133821046       -3.74847594271358       -4.57891417426559
C           -3.67651780663498       -3.23357127111502       -3.83205402348319
C           -3.40365663825801       -2.22346243988784       -2.91850606069257
C           -4.22141393191925       -1.47752412246146       -2.00082468346369
C           -5.58156142239532       -1.48206157510658       -1.69232862489500
C           -6.06776633814656       -0.58322647710906       -0.76948227452753
C           -5.22690575519408        0.37420594119173       -0.18930651184458
C           -5.57155535851208        1.45020570526861        0.70477786674478
C           -6.80120643498757        1.74811442647640        1.28635841641816
C           -6.91544695561619        2.84092250754953        2.12119595289426
C           -5.81850653870036        3.65524366682042        2.38471892338345
C           -4.58740569074132        3.38387584574523        1.81765260723512
C           -4.47675871694339        2.28226602755948        0.98832210378815
S           -3.00792548243126        1.75839457087717        0.18479535712197
C           -3.86125232325966        0.39199735207358       -0.50732825273275
C           -3.35325014778890       -0.57596125677479       -1.35424306853780
H           -0.43372342742211        3.28745643084063       -2.05729857338910
H           -0.48188764387719        5.55788176588927       -2.99803247766208
H            1.57830374703280        6.67890165714712       -3.70958424407878
H            3.77037814155731        5.55672871359905       -3.47652093987794
H            5.82018879942961        3.79082081068259       -2.95508366568697
H            7.18103730631865        1.83279294860760       -2.30108860878896
H            6.11635319854591       -0.20004601872866       -1.43980213611543
H            3.67170502773562       -0.32591826313764       -1.15321399268375
H            1.15681223418464        3.60021473725265        0.35627606863335
H            2.21248285534650        5.75203348845680        0.91589164988927
H            4.38691197557466        5.83687673552880        2.04573637756320
H            5.55590507678401        3.75742569638031        2.69329681028858
H            6.29367542868931        1.16175602971549        3.12075410115139
H            6.47785920414082       -1.30153132851824        3.18353027795448
H            6.40667712372182       -3.66689042332109        3.04162141795062
H            6.03622417930633       -6.06964708509290        2.64407459415332
H            4.06379612540493       -6.84130755847446        1.39247943676929
H            2.42657947135562       -5.20799145603408        0.50919856211989
H           -0.59637253302092       -3.19834742958901       -0.95116393000232
H           -1.68107016905034       -5.36055940156896       -1.42823442964035
H           -3.73414680554138       -6.02437409295780       -0.26538166217600
H           -4.73242030110022       -4.56616236961119        1.46451643427413
H           -5.28471019705692       -2.53536037220443        3.23223776536803
H           -5.22356841530620       -0.49659975458843        4.63448264344148
H           -3.44465553656539        1.16298897257769        4.34361594143901
H           -1.70046366586295        0.87202588669966        2.64100816994095
H           -0.02376185781523       -1.92020515500880       -3.39432513878200
H           -0.54007224542764       -3.69938889251934       -5.01754900828104
H           -2.82798055178712       -4.53055149281399       -5.29753097316576
H           -4.68273716894041       -3.60387770955417       -3.95033405111919
H           -6.24182194671635       -2.18281715890581       -2.17781699903097
H           -7.11470036526331       -0.58340644564375       -0.51107593339629
H           -7.65433749295212        1.11969227399681        1.08345281392759
H           -7.86769864845256        3.06949001782575        2.57539542107170
H           -5.92611281093289        4.50732113875036        3.03852137541952
H           -3.72917227813455        4.00768682207914        2.01561453413553

          :  Hamiltonian                  GFN2-xTB          :
         :: gradient norm              0.000180250856 Eh/a0 ::
         :: HOMO-LUMO gap              1.487863756358 eV    ::
         :: SCC energy              -191.753872066023 Eh    ::
         :: -> dispersion             -0.222195983074 Eh    ::
         :: -> Gsolv                  -0.074222719189 Eh    ::
         :: repulsion energy           3.517821004970 Eh    ::

    * Orbital Energies and Occupations

         #    Occupation            Energy/Eh            Energy/eV
      -------------------------------------------------------------
         1        2.0000           -0.7438786             -20.2420
       ...           ...                  ...                  ...
       163        2.0000           -0.4195285             -11.4160
       164        2.0000           -0.4181110             -11.3774
       165        2.0000           -0.4180834             -11.3766
       166        2.0000           -0.4001990             -10.8900
       167        2.0000           -0.3983118             -10.8386
       168        2.0000           -0.3944767             -10.7343
       169        2.0000           -0.3929347             -10.6923
       170        2.0000           -0.3889259             -10.5832
       171        2.0000           -0.3876243             -10.5478
       172        2.0000           -0.3854095             -10.4875
       173        2.0000           -0.3819389             -10.3931
       174        2.0000           -0.3791014             -10.3159
       175        2.0000           -0.3770368             -10.2597 (HOMO)
       176                         -0.3223590              -8.7718 (LUMO)
       177                         -0.2871934              -7.8149
       178                         -0.2744698              -7.4687
       179                         -0.2723644              -7.4114
       180                         -0.2595234              -7.0620
       181                         -0.2580584              -7.0221
       182                         -0.2501252              -6.8063
       183                         -0.2457207              -6.6864
       184                         -0.2450714              -6.6687
       185                         -0.2395613              -6.5188
       186                         -0.2393304              -6.5125
       ...                                ...                  ...
       350                          1.1448082              31.1518
      -------------------------------------------------------------
                  HL-Gap            0.0546778 Eh            1.4879 eV

     #   Z          covCN         q      C6AA      α(0)
     1   7 N        0.911    -0.243    26.349     7.424
     2   6 C        1.913     0.132    27.862     8.525
     3   6 C        2.974    -0.007    28.188     8.709
     4   6 C        2.916     0.064    26.565     8.452
     5   7 N        2.801    -0.062    22.429     7.034
     6   6 C        3.066     0.050    26.819     8.492
     7   6 C        2.910    -0.048    29.193     8.860
     8   6 C        2.925    -0.030    28.759     8.794
     9   6 C        2.920    -0.037    28.922     8.819
    10   6 C        2.913    -0.031    28.773     8.796
    11   6 C        3.067    -0.014    28.290     8.722
    12   6 C        3.065    -0.015    28.319     8.726
    13   6 C        2.913    -0.032    28.787     8.798
    14   6 C        2.920    -0.038    28.936     8.821
    15   6 C        2.925    -0.032    28.790     8.799
    16   6 C        2.910    -0.050    29.247     8.868
    17   6 C        3.069     0.049    26.830     8.493
    18   6 C        2.920     0.067    26.498     8.441
    19   7 N        2.803    -0.059    22.377     7.026
    20   6 C        3.073     0.049    26.818     8.491
    21   6 C        2.910    -0.049    29.228     8.865
    22   6 C        2.925    -0.030    28.759     8.795
    23   6 C        2.920    -0.037    28.908     8.817
    24   6 C        2.913    -0.031    28.771     8.796
    25   6 C        3.071    -0.014    28.298     8.722
    26   6 C        3.066    -0.018    28.389     8.737
    27   6 C        2.912    -0.037    28.909     8.817
    28   6 C        2.918    -0.042    29.050     8.838
    29   6 C        3.098    -0.005    28.023     8.675
    30   6 C        3.106    -0.000    27.897     8.654
    31   6 C        2.918    -0.032    28.786     8.798
    32   6 C        2.918    -0.032    28.792     8.799
    33   6 C        2.924    -0.029    28.723     8.789
    34   6 C        2.936    -0.038    28.941     8.823
    35   6 C        3.003     0.045    26.985     8.521
    36  16 S        2.201    -0.168   148.169    20.487
    37   6 C        2.992     0.021    27.528     8.607
    38   6 C        3.083     0.046    26.884     8.500
    39   6 C        2.976     0.001    27.993     8.679
    40   6 C        1.914     0.140    27.688     8.498
    41   7 N        0.911    -0.258    26.707     7.474
    42   6 C        2.916     0.073    26.377     8.422
    43   7 N        2.798    -0.068    22.553     7.053
    44   6 C        3.073     0.051    26.772     8.484
    45   6 C        2.910    -0.049    29.223     8.864
    46   6 C        2.925    -0.032    28.795     8.800
    47   6 C        2.920    -0.038    28.933     8.821
    48   6 C        2.913    -0.033    28.810     8.802
    49   6 C        3.062    -0.017    28.360     8.733
    50   6 C        3.068    -0.016    28.348     8.730
    51   6 C        2.913    -0.033    28.819     8.803
    52   6 C        2.920    -0.038    28.945     8.823
    53   6 C        2.925    -0.031    28.783     8.798
    54   6 C        2.911    -0.044    29.098     8.845
    55   6 C        3.064     0.053    26.744     8.480
    56   6 C        2.921     0.070    26.438     8.432
    57   7 N        2.798    -0.067    22.541     7.051
    58   6 C        3.072     0.052    26.765     8.483
    59   6 C        2.909    -0.047    29.164     8.855
    60   6 C        2.925    -0.030    28.745     8.792
    61   6 C        2.920    -0.036    28.908     8.817
    62   6 C        2.913    -0.031    28.771     8.796
    63   6 C        3.075    -0.014    28.276     8.719
    64   6 C        3.060    -0.020    28.443     8.746
    65   6 C        2.912    -0.038    28.938     8.821
    66   6 C        2.918    -0.043    29.067     8.841
    67   6 C        3.097    -0.007    28.085     8.685
    68   6 C        3.107    -0.002    27.926     8.658
    69   6 C        2.918    -0.032    28.792     8.799
    70   6 C        2.918    -0.032    28.800     8.800
    71   6 C        2.924    -0.029    28.731     8.790
    72   6 C        2.936    -0.038    28.945     8.823
    73   6 C        3.004     0.044    27.004     8.524
    74  16 S        2.199    -0.163   147.922    20.470
    75   6 C        2.996     0.019    27.573     8.614
    76   6 C        3.100     0.048    26.808     8.485
    77   1 H        0.926     0.014     2.823     2.627
    78   1 H        0.926     0.041     2.433     2.439
    79   1 H        0.926     0.045     2.387     2.416
    80   1 H        0.926     0.047     2.355     2.400
    81   1 H        0.926     0.047     2.364     2.404
    82   1 H        0.926     0.044     2.401     2.423
    83   1 H        0.926     0.038     2.482     2.464
    84   1 H        0.926     0.017     2.782     2.608
    85   1 H        0.926     0.019     2.741     2.589
    86   1 H        0.926     0.043     2.410     2.428
    87   1 H        0.926     0.047     2.361     2.403
    88   1 H        0.926     0.048     2.339     2.392
    89   1 H        0.926     0.053     2.283     2.363
    90   1 H        0.926     0.052     2.289     2.366
    91   1 H        0.926     0.049     2.328     2.386
    92   1 H        0.926     0.048     2.344     2.394
    93   1 H        0.926     0.048     2.348     2.396
    94   1 H        0.926     0.040     2.443     2.444
    95   1 H        0.926     0.016     2.791     2.612
    96   1 H        0.926     0.040     2.453     2.449
    97   1 H        0.926     0.045     2.387     2.416
    98   1 H        0.926     0.046     2.373     2.409
    99   1 H        0.926     0.046     2.373     2.409
   100   1 H        0.926     0.043     2.413     2.429
   101   1 H        0.926     0.038     2.479     2.462
   102   1 H        0.926     0.016     2.793     2.613
   103   1 H        0.926     0.017     2.784     2.609
   104   1 H        0.926     0.044     2.396     2.420
   105   1 H        0.926     0.047     2.360     2.402
   106   1 H        0.926     0.048     2.343     2.394
   107   1 H        0.926     0.051     2.304     2.374
   108   1 H        0.926     0.051     2.308     2.376
   109   1 H        0.926     0.048     2.342     2.393
   110   1 H        0.926     0.048     2.350     2.397
   111   1 H        0.926     0.047     2.352     2.398
   112   1 H        0.926     0.040     2.442     2.444

molecular dipole:
                 x           y           z       tot (Debye)
 q only:        0.023      -0.179       0.343
   full:       -0.056      -0.297       0.553       1.602

 projected vibrational frequencies (cm⁻¹)
eigval :       -0.00    -0.00     0.00     0.00     0.00     0.00
eigval :        7.98    10.89    16.16    20.03    25.38    27.47
eigval :       30.99    33.20    38.77    44.42    46.53    53.40
eigval :       56.10    60.11    67.62    79.63    83.07    91.01
eigval :       95.48   102.49   109.54   112.10   115.64   115.72
eigval :      120.03   123.45   130.25   134.20   141.55   143.86
eigval :      147.55   152.77   159.29   172.80   181.78   193.13
eigval :      207.22   215.76   219.48   222.48   229.75   247.02
eigval :      249.61   254.90   258.39   264.55   271.81   275.34
eigval :      277.89   285.63   297.02   302.97   321.69   322.51
eigval :      346.43   366.09   370.71   388.85   394.33   396.13
eigval :      401.49   402.21   405.26   405.84   406.59   419.23
eigval :      421.39   421.67   426.68   431.62   434.44   435.35
eigval :      438.90   443.36   461.63   463.50   477.38   478.16
eigval :      481.31   482.18   492.27   494.06   509.17   510.31
eigval :      518.03   518.83   526.53   530.03   535.43   537.78
eigval :      540.38   542.56   543.04   547.72   549.57   555.18
eigval :      566.12   576.80   584.78   589.08   591.52   598.02
eigval :      598.22   601.14   616.52   620.38   639.08   643.77
eigval :      659.28   660.32   661.01   663.90   664.48   672.09
eigval :      673.81   682.90   685.66   687.46   695.09   701.14
eigval :      702.94   703.95   706.12   706.88   711.42   729.98
eigval :      737.84   750.58   754.03   763.10   768.67   770.17
eigval :      770.53   770.68   771.81   776.28   780.32   783.76
eigval :      797.12   804.59   817.14   821.43   830.61   831.31
eigval :      866.15   867.87   868.26   868.76   870.82   873.38
eigval :      873.93   877.68   879.86   891.13   892.27   895.82
eigval :      896.52   899.50   901.36   902.57   904.19   904.47
eigval :      904.64   905.22   907.04   917.36   918.80   919.45
eigval :      919.90   921.11   921.87   922.07   922.96   925.59
eigval :      927.31   970.85  1008.23  1011.85  1013.33  1023.17
eigval :     1036.53  1046.86  1047.70  1068.81  1068.86  1069.80
eigval :     1070.77  1071.34  1073.58  1075.27  1076.32  1076.58
eigval :     1081.24  1118.44  1119.25  1122.87  1141.67  1143.56
eigval :     1149.07  1149.39  1149.74  1150.59  1159.35  1159.75
eigval :     1160.10  1174.75  1176.17  1176.69  1176.95  1177.23
eigval :     1178.79  1180.27  1181.82  1192.90  1216.09  1223.08
eigval :     1224.16  1224.51  1231.21  1232.20  1235.98  1238.58
eigval :     1246.29  1258.36  1269.26  1280.28  1286.14  1288.05
eigval :     1290.30  1290.76  1292.75  1295.61  1300.20  1312.90
eigval :     1319.22  1335.62  1336.67  1350.21  1353.11  1355.36
eigval :     1356.46  1357.22  1357.67  1358.73  1359.80  1375.09
eigval :     1375.93  1388.76  1392.64  1400.98  1406.09  1411.43
eigval :     1414.76  1415.59  1419.26  1423.68  1426.07  1426.82
eigval :     1439.58  1449.76  1453.82  1456.30  1457.66  1458.36
eigval :     1469.91  1471.17  1477.77  1478.23  1484.14  1484.33
eigval :     1497.08  1504.94  1556.02  1556.88  1567.74  1568.07
eigval :     1576.91  1577.14  1580.21  1581.91  1587.15  1587.78
eigval :     1591.70  1592.15  1592.91  1595.80  1599.80  1599.90
eigval :     1606.35  1607.04  1611.29  1612.15  2358.99  2362.73
eigval :     3066.96  3069.99  3077.03  3078.02  3079.25  3080.12
eigval :     3083.45  3084.74  3084.83  3085.44  3085.48  3085.58
eigval :     3086.03  3086.99  3088.38  3088.65  3091.09  3092.67
eigval :     3092.72  3093.50  3094.48  3095.12  3095.41  3095.65
eigval :     3097.91  3098.59  3100.18  3101.18  3101.90  3102.46
eigval :     3102.60  3102.65  3103.31  3103.52  3108.74  3109.33

   temp. (K)  partition function   enthalpy   heat capacity  entropy
                                   cal/mol     cal/K/mol   cal/K/mol   J/K/mol
 298.15  VIB  0.149E+27            34754.859    220.492    214.771
         ROT  0.167E+09              888.752      2.981     40.606
         INT  0.249E+35            35643.611    223.472    255.377
         TR   0.306E+29             1481.254      4.968     46.564
         TOT                       37124.8651   228.4406   301.9406  1263.3196

       T/K    H(0)-H(T)+PV         H(T)/Eh          T*S/Eh         G(T)/Eh
   ------------------------------------------------------------------------
    298.15    0.591622E-01    0.876828E+00    0.143462E+00    0.733366E+00
   ------------------------------------------------------------------------

         :::::::::::::::::::::::::::::::::::::::::::::::::::::
         ::                  THERMODYNAMIC                  ::
         :::::::::::::::::::::::::::::::::::::::::::::::::::::
         :: total free energy        -187.502684864183 Eh   ::
         ::.................................................::
         :: total energy             -188.236051065508 Eh   ::
         :: zero point energy           0.817665705415 Eh   ::
         :: G(RRHO) w/o ZPVE           -0.084299504091 Eh   ::
         :: G(RRHO) contrib.            0.733366201324 Eh   ::
         :::::::::::::::::::::::::::::::::::::::::::::::::::::

           -------------------------------------------------
          | TOTAL ENERGY             -188.236051065508 Eh   |
          | TOTAL ENTHALPY           -187.359223121667 Eh   |
          | TOTAL FREE ENERGY        -187.502684864183 Eh   |
          | GRADIENT NORM               0.000180197108 Eh/α |
          | HOMO-LUMO GAP               1.487857980459 eV   |
           -------------------------------------------------

 * finished run on 2025/07/17 at 17:22:15.078
