   * xtb version 6.7.1 (edcfbbe) compiled by 'albert@albert-system' on 2024-07-22

   ID    Z sym.   atoms
    1    7 N      1, 5, 19, 41, 43, 57
    2    6 C      2-4, 6-18, 20-35, 37-40, 42, 44-56, 58-73, 75, 76
    3   16 S      36, 74
    4    1 H      77-112

          program call               : xtb data2507/toluene/12BTCzTPN/12BTCzTPN_toluene_T1_crest.xyz --gfn 2 --uhf 2 --gbsa toluene --ohess vtight --parallel 40 --molden --ceasefiles --namespace data2507/toluene/12BTCzTPN/12BTCzTPN_toluene_T1_finalOpt
      * Solvation model:               GBSA
        Solvent                        toluene
        Solvent mass                       9.2140E+01 g/mol
          :  Hamiltonian                  GFN2-xTB          :
 * total energy  :  -188.1678011 Eh     change       -0.2360667E-07 Eh
 * total energy  :  -188.1680010 Eh     change       -0.1999931E-03 Eh
 * total energy  :  -188.1681223 Eh     change       -0.1212095E-03 Eh
 * total energy  :  -188.1681879 Eh     change       -0.6562254E-04 Eh
 * total energy  :  -188.1682681 Eh     change       -0.8022944E-04 Eh
 * total energy  :  -188.1684079 Eh     change       -0.1397685E-03 Eh
 * total energy  :  -188.1684878 Eh     change       -0.7990564E-04 Eh
 * total energy  :  -188.1685933 Eh     change       -0.1055037E-03 Eh
 * total energy  :  -188.1687073 Eh     change       -0.1140088E-03 Eh
 * total energy  :  -188.1688190 Eh     change       -0.1117304E-03 Eh
 * total energy  :  -188.1692230 Eh     change       -0.1923867E-06 Eh
 * total energy  :  -188.1692232 Eh     change       -0.2666201E-06 Eh
 * total energy  :  -188.1692237 Eh     change       -0.4993007E-06 Eh
 * total energy  :  -188.1692243 Eh     change       -0.5528836E-06 Eh
 * total energy  :  -188.1692248 Eh     change       -0.4854283E-06 Eh
 * total energy  :  -188.1692253 Eh     change       -0.4993840E-06 Eh
 * total energy  :  -188.1692258 Eh     change       -0.5699460E-06 Eh
 * total energy  :  -188.1692264 Eh     change       -0.5290003E-06 Eh
 * total energy  :  -188.1692264 Eh     change       -0.2603315E-08 Eh
   *** GEOMETRY OPTIMIZATION CONVERGED AFTER 68 ITERATIONS ***

 final structure:
================
112
 xtb: 6.7.1 (edcfbbe)
N            0.25720995776000       -1.71543132683602       -3.56290807915056
C            0.21276174089456       -1.24953335222614       -2.50234489620747
C            0.14934606934802       -0.70175403893505       -1.23290445506097
C            1.18714329830301        0.15987372851692       -0.75609505221594
N            2.35088223103590        0.31486579088114       -1.52351904999438
C            2.88574680231995        1.52800542324633       -1.91239111020053
C            2.28981620509301        2.78002783615712       -1.92378595185231
C            3.03969309398480        3.84485408583791       -2.38832046717314
C            4.34358649770136        3.66743995521571       -2.84187457739293
C            4.92217714918495        2.41057878922640       -2.88205126634976
C            4.18603248536603        1.32754009639255       -2.42711908455310
C            4.42740617120117       -0.09048627835774       -2.37432267370376
C            5.50490685445583       -0.88681800135317       -2.72914021392329
C            5.40151184464343       -2.25689572268533       -2.56011872425566
C            4.23927666293761       -2.83018822820756       -2.05469351880530
C            3.15484076213509       -2.05466327019036       -1.68693856493596
C            3.25723200171099       -0.67898351833385       -1.84027624157465
C            1.02591485910772        0.84414656844712        0.43011519228315
N            2.05065974523249        1.67534664060553        0.91919944685195
C            2.00533646268888        3.05297781479289        1.03312474736660
C            0.92003733512353        3.90783996597250        0.92524983994163
C            1.14889629827195        5.26140779254243        1.08809333598440
C            2.42682801286746        5.75414543991137        1.33992499018767
C            3.51435132028819        4.90600393178915        1.43597233556946
C            3.30750465999776        3.54187131542504        1.28421181912065
C            4.17630129201769        2.39758004131951        1.33168326421047
C            5.54310298879532        2.23267058153235        1.52679441008366
C            6.07617616093803        0.95834730345896        1.55131933218063
C            5.25046583685406       -0.16397449213031        1.44371861101069
C            5.61163137760147       -1.55619447551481        1.54667341009834
C            6.87264167612815       -2.12859207626286        1.68531608892336
C            6.99337412619186       -3.50202048922495        1.76605850361218
C            5.87056461404342       -4.32159959002212        1.71616320537706
C            4.60662633349162       -3.77727248616361        1.58192095722804
C            4.49150015456963       -2.40119241288661        1.49346418792278
S            2.98909213282731       -1.51419017513194        1.30159697016172
C            3.86737088579381       -0.00681016739485        1.25567358974208
C            3.34109669406303        1.27107378432973        1.13383267703121
C           -0.16034055993806        0.69362387613856        1.21182752532177
C           -0.22042507825806        1.24091647070140        2.48162997449996
N           -0.26014886050899        1.70681309601515        3.54237191408815
C           -1.19737270550614       -0.16913783008798        0.73596348654965
N           -2.35788619416923       -0.33241471290646        1.50641475840608
C           -2.88721746817195       -1.55191078562554        1.88334784942683
C           -2.28572609067040       -2.80133709887184        1.88083467243143
C           -3.03066413288520       -3.87464746724196        2.33356696843255
C           -4.33498506734724       -3.70789221061313        2.78991968837346
C           -4.91874871241759       -2.45399196248221        2.84497556888164
C           -4.18763125297933       -1.36271967965185        2.40167249168557
C           -4.43477087893465        0.05481253157651        2.36489242815349
C           -5.51493306763237        0.84238117301684        2.73095388772689
C           -5.41733353669120        2.21477122385704        2.57841909016413
C           -4.25829762141842        2.79867557650145        2.07780924305749
C           -3.17134861481486        2.03206393192237        1.69895292656754
C           -3.26791793964492        0.65425159466652        1.83558432124963
C           -1.03865901105385       -0.84887313398934       -0.45354969383131
N           -2.06985584844233       -1.66906378201241       -0.94763571477853
C           -2.03926659716892       -3.04616291657003       -1.07239865251454
C           -0.96271781140053       -3.91334641856030       -0.97575454012854
C           -1.20666476251493       -5.26315117927507       -1.14737995716070
C           -2.49082689573000       -5.74054321538922       -1.39707860634755
C           -3.56949034172903       -4.88016992909436       -1.48297883523239
C           -3.34749125916615       -3.51949288425001       -1.32224146575972
C           -4.20460027580507       -2.36603541830444       -1.35810471098319
C           -5.57023691231190       -2.18530540685970       -1.54778752467473
C           -6.08995015633649       -0.90535586888517       -1.56125673247673
C           -5.25219249540614        0.20745770650981       -1.44753570794166
C           -5.59892573453872        1.60415234401708       -1.53886112432924
C           -6.85415372921287        2.19090364448625       -1.67014260824727
C           -6.96054635370353        3.56607133005127       -1.74035638199635
C           -5.82904775909991        4.37340508720602       -1.68691813370237
C           -4.57063116149807        3.81475631802491       -1.55976213955557
C           -4.46986011972526        2.43691745566983       -1.48183208211006
S           -2.97646269577174        1.53263410874311       -1.30002379201588
C           -3.87040198901166        0.03420468241092       -1.26444268369592
C           -3.35710973699053       -1.24998187702329       -1.15443404000306
H            1.26780576783561        2.91460022474741       -1.60352798438376
H            2.59993634488534        4.83032419057202       -2.40442261750130
H            4.90146410850392        4.52358319186899       -3.18944763678815
H            5.91937894850257        2.27128423718654       -3.26960862369165
H            6.40350921387886       -0.44376378801224       -3.12958666492282
H            6.22936343201132       -2.89427555350257       -2.83082801012920
H            4.17914242774980       -3.90253129785966       -1.94717389287722
H            2.25301967402330       -2.51055261400575       -1.31076331462289
H           -0.07132921020682        3.52899791588551        0.72680592836845
H            0.31940553206049        5.94884687182039        1.01801576306384
H            2.56615177805781        6.81761871178798        1.46148386479264
H            4.50335478306428        5.29140711517867        1.62895446146029
H            6.17779474316698        3.09411470527099        1.66085097505742
H            7.13602865371626        0.81794650125318        1.69153758779103
H            7.74654330298318       -1.49734873338743        1.72565399029098
H            7.97130274624958       -3.94689413696839        1.87051517408619
H            5.98407424202799       -5.39276464945758        1.78306092146754
H            3.72850168443264       -4.40300073289888        1.54314220330932
H           -1.26319024036707       -2.92771630075694        1.55883845661152
H           -2.58679918976999       -4.85837971883407        2.33784573910292
H           -4.88910624700006       -4.57042523386740        3.12757358408228
H           -5.91622127731914       -2.32336206562799        3.23483937625151
H           -6.41085749588036        0.39083443701525        3.12792706185299
H           -6.24722130198508        2.84551834391572        2.85826233286501
H           -4.20245499442802        3.87247880542338        1.98346074650074
H           -2.27184111161954        2.49649267457647        1.32778610832093
H            0.03363239037282       -3.54669605189968       -0.77946306200625
H           -0.38409901954786       -5.95967835522518       -1.08589082330578
H           -2.64201799418085       -6.80159077809687       -1.52550213429092
H           -4.56334895690041       -5.25349133607129       -1.67476020492607
H           -6.21433939994482       -3.03903535203704       -1.68628517681566
H           -7.14869601037540       -0.75272708475759       -1.69702578415179
H           -7.73474439661289        1.56921211229478       -1.71315029021375
H           -7.93394677124272        4.02205168637488       -1.83912488917849
H           -5.93136605063538        5.44620030131203       -1.74538120852269
H           -3.68586550359028        4.43092280064253       -1.51821424943119

          :  Hamiltonian                  GFN2-xTB          :
         :: gradient norm              0.000057019489 Eh/a0 ::
         :: HOMO-LUMO gap              0.517230194389 eV    ::
         :: SCC energy              -191.667923051720 Eh    ::
         :: -> dispersion             -0.225513915023 Eh    ::
         :: -> Gsolv                  -0.079969021851 Eh    ::
         :: repulsion energy           3.498696685594 Eh    ::

    * Orbital Energies and Occupations

         #    Occupation            Energy/Eh            Energy/eV
      -------------------------------------------------------------
         1        2.0000           -0.7450386             -20.2735
       ...           ...                  ...                  ...
       164        2.0000           -0.4139029             -11.2629
       165        2.0000           -0.4096499             -11.1471
       166        2.0000           -0.3995212             -10.8715
       167        2.0000           -0.3968341             -10.7984
       168        2.0000           -0.3944082             -10.7324
       169        2.0000           -0.3943054             -10.7296
       170        2.0000           -0.3889085             -10.5827
       171        2.0000           -0.3886407             -10.5755
       172        2.0000           -0.3842196             -10.4551
       173        1.9369           -0.3771186             -10.2619
       174        1.8780           -0.3764302             -10.2432
       175        1.1851           -0.3731466             -10.1538
       176        0.9999           -0.2948681              -8.0238 (HOMO)
       177        0.0000           -0.2758603              -7.5065 (LUMO)
       178        0.0000           -0.2747812              -7.4772
       179                         -0.2621968              -7.1347
       180                         -0.2593274              -7.0567
       181                         -0.2534056              -6.8955
       182                         -0.2484315              -6.7602
       183                         -0.2463725              -6.7041
       184                         -0.2411684              -6.5625
       185                         -0.2409652              -6.5570
       186                         -0.2381345              -6.4800
       187                         -0.2380030              -6.4764
       ...                                ...                  ...
       350                          1.1653150              31.7098
      -------------------------------------------------------------
                  HL-Gap            0.0190078 Eh            0.5172 eV

     #   Z          covCN         q      C6AA      α(0)
     1   7 N        0.911    -0.354    29.107     7.803
     2   6 C        1.910     0.110    28.374     8.603
     3   6 C        2.966    -0.047    29.158     8.857
     4   6 C        2.910     0.049    26.891     8.503
     5   7 N        2.800    -0.046    22.137     6.988
     6   6 C        3.079     0.051    26.769     8.482
     7   6 C        2.910    -0.046    29.136     8.851
     8   6 C        2.924    -0.032    28.790     8.799
     9   6 C        2.920    -0.035    28.863     8.810
    10   6 C        2.913    -0.031    28.769     8.795
    11   6 C        3.064    -0.016    28.346     8.731
    12   6 C        3.068    -0.016    28.338     8.729
    13   6 C        2.912    -0.030    28.758     8.794
    14   6 C        2.920    -0.034    28.856     8.809
    15   6 C        2.923    -0.031    28.779     8.797
    16   6 C        2.911    -0.037    28.925     8.819
    17   6 C        3.072     0.056    26.666     8.467
    18   6 C        2.914     0.045    26.985     8.518
    19   7 N        2.801    -0.046    22.130     6.987
    20   6 C        3.084     0.055    26.685     8.468
    21   6 C        2.910    -0.040    29.003     8.831
    22   6 C        2.924    -0.030    28.742     8.792
    23   6 C        2.920    -0.035    28.870     8.811
    24   6 C        2.912    -0.030    28.738     8.791
    25   6 C        3.073    -0.015    28.307     8.723
    26   6 C        3.063    -0.019    28.410     8.740
    27   6 C        2.911    -0.034    28.846     8.807
    28   6 C        2.917    -0.039    28.967     8.826
    29   6 C        3.100    -0.006    28.049     8.679
    30   6 C        3.105     0.000    27.885     8.652
    31   6 C        2.918    -0.030    28.748     8.792
    32   6 C        2.918    -0.030    28.740     8.791
    33   6 C        2.924    -0.028    28.695     8.785
    34   6 C        2.935    -0.035    28.873     8.812
    35   6 C        3.004     0.038    27.127     8.544
    36  16 S        2.203    -0.094   144.980    20.265
    37   6 C        2.994     0.016    27.634     8.623
    38   6 C        3.103     0.051    26.726     8.471
    39   6 C        2.966    -0.047    29.155     8.857
    40   6 C        1.910     0.110    28.373     8.603
    41   7 N        0.911    -0.354    29.106     7.803
    42   6 C        2.910     0.050    26.887     8.503
    43   7 N        2.800    -0.047    22.141     6.989
    44   6 C        3.079     0.051    26.768     8.482
    45   6 C        2.910    -0.046    29.135     8.851
    46   6 C        2.924    -0.032    28.791     8.799
    47   6 C        2.920    -0.035    28.863     8.810
    48   6 C        2.913    -0.031    28.770     8.795
    49   6 C        3.064    -0.016    28.347     8.731
    50   6 C        3.068    -0.016    28.339     8.729
    51   6 C        2.912    -0.030    28.759     8.794
    52   6 C        2.920    -0.034    28.857     8.809
    53   6 C        2.923    -0.031    28.780     8.798
    54   6 C        2.911    -0.037    28.928     8.820
    55   6 C        3.072     0.056    26.668     8.467
    56   6 C        2.914     0.045    26.986     8.518
    57   7 N        2.801    -0.046    22.135     6.988
    58   6 C        3.083     0.055    26.685     8.468
    59   6 C        2.910    -0.040    29.001     8.831
    60   6 C        2.924    -0.030    28.742     8.792
    61   6 C        2.920    -0.035    28.871     8.811
    62   6 C        2.912    -0.030    28.740     8.791
    63   6 C        3.073    -0.015    28.308     8.724
    64   6 C        3.063    -0.019    28.412     8.741
    65   6 C        2.911    -0.034    28.847     8.807
    66   6 C        2.917    -0.039    28.969     8.826
    67   6 C        3.100    -0.006    28.051     8.679
    68   6 C        3.105     0.000    27.886     8.653
    69   6 C        2.918    -0.030    28.749     8.793
    70   6 C        2.918    -0.030    28.741     8.791
    71   6 C        2.924    -0.028    28.696     8.785
    72   6 C        2.935    -0.035    28.874     8.813
    73   6 C        3.004     0.038    27.127     8.544
    74  16 S        2.203    -0.095   145.022    20.268
    75   6 C        2.994     0.016    27.633     8.623
    76   6 C        3.104     0.051    26.725     8.471
    77   1 H        0.926     0.025     2.665     2.553
    78   1 H        0.926     0.042     2.425     2.435
    79   1 H        0.926     0.046     2.365     2.405
    80   1 H        0.926     0.047     2.353     2.399
    81   1 H        0.926     0.048     2.350     2.397
    82   1 H        0.926     0.046     2.375     2.410
    83   1 H        0.926     0.042     2.428     2.437
    84   1 H        0.926     0.027     2.632     2.537
    85   1 H        0.926     0.022     2.696     2.568
    86   1 H        0.926     0.044     2.391     2.418
    87   1 H        0.926     0.047     2.355     2.400
    88   1 H        0.926     0.048     2.339     2.392
    89   1 H        0.926     0.055     2.262     2.352
    90   1 H        0.926     0.056     2.250     2.346
    91   1 H        0.926     0.051     2.302     2.372
    92   1 H        0.926     0.051     2.309     2.376
    93   1 H        0.926     0.051     2.308     2.376
    94   1 H        0.926     0.046     2.375     2.410
    95   1 H        0.926     0.024     2.666     2.553
    96   1 H        0.926     0.042     2.426     2.435
    97   1 H        0.926     0.046     2.365     2.405
    98   1 H        0.926     0.047     2.354     2.399
    99   1 H        0.926     0.047     2.351     2.398
   100   1 H        0.926     0.046     2.376     2.410
   101   1 H        0.926     0.041     2.430     2.437
   102   1 H        0.926     0.027     2.629     2.535
   103   1 H        0.926     0.022     2.696     2.568
   104   1 H        0.926     0.044     2.391     2.418
   105   1 H        0.926     0.047     2.355     2.400
   106   1 H        0.926     0.048     2.340     2.392
   107   1 H        0.926     0.055     2.263     2.352
   108   1 H        0.926     0.056     2.251     2.346
   109   1 H        0.926     0.051     2.303     2.373
   110   1 H        0.926     0.051     2.311     2.377
   111   1 H        0.926     0.051     2.309     2.376
   112   1 H        0.926     0.046     2.377     2.411

molecular dipole:
                 x           y           z       tot (Debye)
 q only:        0.023       0.012       0.007
   full:        0.018       0.011       0.007       0.057

 projected vibrational frequencies (cm⁻¹)
eigval :       -0.00    -0.00    -0.00     0.00     0.00     0.00
eigval :        8.91    11.52    14.52    18.18    19.73    26.00
eigval :       30.72    33.12    35.72    43.29    45.35    49.32
eigval :       50.86    53.47    64.07    81.30    86.74    88.33
eigval :       89.72   101.08   106.34   108.81   110.24   115.16
eigval :      118.28   118.87   119.80   134.11   139.82   143.44
eigval :      145.83   149.51   167.54   169.33   187.36   189.71
eigval :      194.55   217.35   218.00   222.36   231.02   242.46
eigval :      245.29   253.37   254.88   265.84   268.99   275.62
eigval :      277.10   280.21   298.64   299.19   320.70   320.80
eigval :      353.56   365.58   374.11   388.86   394.50   395.19
eigval :      398.97   401.36   403.29   403.81   404.95   406.56
eigval :      421.19   422.47   426.81   426.85   433.34   434.17
eigval :      441.61   442.53   453.06   460.71   464.13   474.90
eigval :      476.42   476.75   476.97   491.41   493.59   501.37
eigval :      513.17   515.27   517.38   524.95   533.28   538.34
eigval :      539.49   539.94   541.02   541.29   545.56   552.16
eigval :      552.51   563.47   581.83   584.89   585.80   593.40
eigval :      598.66   600.84   608.16   613.46   617.69   636.30
eigval :      640.20   647.40   659.88   660.94   662.83   664.06
eigval :      673.73   674.55   682.72   682.94   687.29   699.34
eigval :      702.81   703.04   707.51   707.64   710.15   722.06
eigval :      739.97   751.26   753.52   764.11   765.81   767.80
eigval :      769.23   769.87   772.61   772.84   774.91   777.08
eigval :      791.84   801.21   814.64   815.13   832.58   833.61
eigval :      858.91   862.06   863.11   868.18   868.82   872.38
eigval :      872.57   874.19   874.75   888.50   888.56   891.35
eigval :      896.24   898.73   899.28   900.52   901.23   901.65
eigval :      903.21   907.65   907.74   915.96   917.60   917.68
eigval :      917.98   918.26   918.51   919.08   920.58   922.24
eigval :      922.41   972.25  1002.61  1010.91  1012.05  1021.17
eigval :     1033.54  1045.46  1047.38  1064.14  1065.90  1066.85
eigval :     1067.03  1068.71  1070.24  1071.27  1075.22  1075.37
eigval :     1082.66  1115.32  1115.65  1119.38  1138.11  1139.81
eigval :     1140.35  1142.60  1145.29  1152.13  1153.78  1157.65
eigval :     1157.83  1171.41  1172.95  1174.03  1175.43  1176.53
eigval :     1177.31  1180.04  1181.86  1190.31  1216.22  1220.73
eigval :     1223.08  1223.35  1227.60  1227.93  1230.43  1235.88
eigval :     1245.35  1257.58  1262.42  1273.83  1276.98  1280.85
eigval :     1282.01  1285.03  1285.79  1290.87  1292.07  1305.29
eigval :     1306.26  1334.17  1334.25  1338.21  1344.40  1345.46
eigval :     1346.58  1350.37  1353.40  1354.02  1360.63  1361.39
eigval :     1369.14  1375.64  1377.02  1379.68  1382.14  1389.70
eigval :     1404.70  1405.40  1412.10  1412.45  1415.31  1418.40
eigval :     1424.38  1432.18  1441.16  1442.14  1455.60  1455.91
eigval :     1458.85  1459.64  1465.37  1470.95  1471.96  1479.18
eigval :     1479.50  1538.86  1546.58  1546.96  1563.26  1565.42
eigval :     1565.94  1566.20  1566.58  1567.96  1578.40  1579.57
eigval :     1580.98  1581.07  1583.88  1583.99  1584.33  1585.21
eigval :     1596.01  1596.45  1600.31  1604.28  2245.87  2292.00
eigval :     3079.48  3079.53  3083.82  3083.92  3084.84  3085.09
eigval :     3086.01  3086.10  3086.19  3086.67  3087.19  3087.97
eigval :     3090.54  3090.65  3090.93  3091.29  3093.28  3093.97
eigval :     3095.24  3095.37  3097.33  3097.61  3098.04  3098.07
eigval :     3098.93  3099.43  3101.21  3101.95  3102.31  3102.42
eigval :     3103.30  3103.60  3104.13  3104.37  3108.70  3109.20

   temp. (K)  partition function   enthalpy   heat capacity  entropy
                                   cal/mol     cal/K/mol   cal/K/mol   J/K/mol
 298.15  VIB  0.488E+27            35026.722    221.178    216.772
         ROT  0.164E+09              888.752      2.981     40.567
         INT  0.799E+35            35915.474    224.159    257.339
         TR   0.306E+29             1481.254      4.968     46.564
         TOT                       37396.7282   229.1274   303.9031  1271.5306

       T/K    H(0)-H(T)+PV         H(T)/Eh          T*S/Eh         G(T)/Eh
   ------------------------------------------------------------------------
    298.15    0.595955E-01    0.874149E+00    0.144394E+00    0.729755E+00
   ------------------------------------------------------------------------

         :::::::::::::::::::::::::::::::::::::::::::::::::::::
         ::                  THERMODYNAMIC                  ::
         :::::::::::::::::::::::::::::::::::::::::::::::::::::
         :: total free energy        -187.439471521600 Eh   ::
         ::.................................................::
         :: total energy             -188.169226365982 Eh   ::
         :: zero point energy           0.814553537768 Eh   ::
         :: G(RRHO) w/o ZPVE           -0.084798693386 Eh   ::
         :: G(RRHO) contrib.            0.729754844381 Eh   ::
         :::::::::::::::::::::::::::::::::::::::::::::::::::::

           -------------------------------------------------
          | TOTAL ENERGY             -188.169226365982 Eh   |
          | TOTAL ENTHALPY           -187.295077348432 Eh   |
          | TOTAL FREE ENERGY        -187.439471521600 Eh   |
          | GRADIENT NORM               0.000057028295 Eh/α |
          | HOMO-LUMO GAP               0.517228024123 eV   |
           -------------------------------------------------

 * finished run on 2025/07/17 at 17:45:28.166
