   * xtb version 6.7.1 (edcfbbe) compiled by 'albert@albert-system' on 2024-07-22

   ID    Z sym.   atoms
    1    7 N      1, 5, 19, 41, 43, 57
    2    6 C      2-4, 6-18, 20-35, 37-40, 42, 44-56, 58-73, 75, 76
    3   16 S      36, 74
    4    1 H      77-112

          program call               : xtb data2507/toluene/12BTCzTPN/12BTCzTPN_toluene_S0_crest.xyz --gfn 2 --gbsa toluene --ohess vtight --parallel 40 --molden --ceasefiles --namespace data2507/toluene/12BTCzTPN/12BTCzTPN_toluene_S0_finalOpt
      * Solvation model:               GBSA
        Solvent                        toluene
        Solvent mass                       9.2140E+01 g/mol
          :  Hamiltonian                  GFN2-xTB          :
 * total energy  :  -188.2347675 Eh     change       -0.2076519E-08 Eh
 * total energy  :  -188.2349680 Eh     change       -0.2005181E-03 Eh
 * total energy  :  -188.2350925 Eh     change       -0.1244080E-03 Eh
 * total energy  :  -188.2351597 Eh     change       -0.6724841E-04 Eh
 * total energy  :  -188.2352338 Eh     change       -0.7407789E-04 Eh
 * total energy  :  -188.2353843 Eh     change       -0.1505102E-03 Eh
 * total energy  :  -188.2354952 Eh     change       -0.1108922E-03 Eh
 * total energy  :  -188.2356023 Eh     change       -0.1071516E-03 Eh
 * total energy  :  -188.2357198 Eh     change       -0.1174265E-03 Eh
 * total energy  :  -188.2358133 Eh     change       -0.9349965E-04 Eh
 * total energy  :  -188.2361193 Eh     change       -0.1754318E-06 Eh
 * total energy  :  -188.2361194 Eh     change       -0.1522798E-06 Eh
 * total energy  :  -188.2361196 Eh     change       -0.1831175E-06 Eh
 * total energy  :  -188.2361199 Eh     change       -0.2852661E-06 Eh
 * total energy  :  -188.2361203 Eh     change       -0.4338733E-06 Eh
 * total energy  :  -188.2361208 Eh     change       -0.4882424E-06 Eh
 * total energy  :  -188.2361211 Eh     change       -0.3108398E-06 Eh
 * total energy  :  -188.2361211 Eh     change        0.3047347E-08 Eh
 * total energy  :  -188.2361212 Eh     change       -0.6068183E-07 Eh
   *** GEOMETRY OPTIMIZATION CONVERGED AFTER 95 ITERATIONS ***

 final structure:
================
112
 xtb: 6.7.1 (edcfbbe)
N           -0.21428021009987        1.94967219258165       -3.92469492947446
C           -0.08338227974985        1.47797508239886       -2.88781403361321
C            0.07447439655332        0.88575871340023       -1.61441893259424
C            1.28663580470333        1.04288331234276       -0.92436716016068
N            2.31925129428392        1.79814655177908       -1.47307116885150
C            2.26754410477536        3.16122070301461       -1.73912556090877
C            1.19348543961437        4.03239643304322       -1.66227071593296
C            1.42571245572448        5.36550406379018       -1.94903406295890
C            2.69495783271901        5.82284623881482       -2.29171658969336
C            3.77184843897366        4.95946127294300       -2.34746708629529
C            3.56246719930228        3.61622890403201       -2.06579246907176
C            4.43248104662643        2.47174915226915       -2.00704840475607
C            5.78767652875990        2.28456198466395       -2.24279676665043
C            6.30881789438918        1.00961987039064       -2.13081515239963
C            5.49405455868787       -0.07529552894428       -1.81965124123780
C            4.14172376278027        0.08769918915610       -1.58198678201036
C            3.62831649753626        1.37240804181178       -1.64211265609095
C            1.43605917788137        0.42418938641705        0.32426391747158
N            2.64031918485076        0.50207231551243        1.02199343131767
C            3.27353381322925        1.66036263125816        1.44342760788984
C            2.83289964987151        2.97156226954180        1.37880672703263
C            3.66230023685669        3.95148869071129        1.89195620223901
C            4.88614619186068        3.63223844491569        2.47458491172727
C            5.30573867699991        2.32068444498755        2.58128299842838
C            4.49131086065066        1.31875430089752        2.06862953699317
C            4.59414207008957       -0.11394969753353        2.02473636592067
C            5.56644849706774       -1.01178372921131        2.46196254671443
C            5.38994463431158       -2.35813890382517        2.23929215979417
C            4.26162731729603       -2.82691072002280        1.55745712510988
C            3.94346937991677       -4.18626737174038        1.19803317760451
C            4.65014071209199       -5.35479412960394        1.47207929724566
C            4.16087072497824       -6.56799357734577        1.03192277943493
C            2.96898926711857       -6.64058332623455        0.31744582306640
C            2.24979481759887       -5.49580662766885        0.02821260918689
C            2.74681220922765       -4.28283616156048        0.47097837740518
S            1.99534589153036       -2.71951550258148        0.20857139143007
C            3.28048433185286       -1.92823586012309        1.10991103209946
C            3.43226286417567       -0.57622065963383        1.37054381828352
C            0.36219319282285       -0.28881153334987        0.87959500265316
C            0.53047756897131       -0.87526898762835        2.15404951256708
N            0.68804120141746       -1.33202732239374        3.19439690391576
C           -0.85293880371804       -0.43837969891508        0.19540442500193
N           -1.89357330518371       -1.17297066025383        0.75819244955607
C           -2.55813605383741       -2.20984518872006        0.11707418402195
C           -2.15589840440030       -2.94883535162235       -0.98261259869383
C           -2.98591597059748       -3.96967623456700       -1.40821639184615
C           -4.17503808221999       -4.25820386592855       -0.74499846888612
C           -4.54809382396926       -3.55963432482409        0.38742595611928
C           -3.72758593716791       -2.53301698611180        0.83439732086531
C           -3.75841861760787       -1.66267416586602        1.97953405964579
C           -4.65396304393366       -1.50626804053494        3.02887424548116
C           -4.37701710908456       -0.56564411450546        4.00119078695646
C           -3.22451712542104        0.21125675292552        3.93595867239393
C           -2.32273801652999        0.07829979998486        2.89603210325292
C           -2.59832538221222       -0.86148727053306        1.91656163455895
C           -0.98695443760298        0.14488682529896       -1.07681236334759
N           -2.17396115259586        0.00588970434833       -1.80003794783901
C           -2.35456121393856       -0.75345106008870       -2.94967495581223
C           -1.40752466635767       -1.28591592894533       -3.80812933898230
C           -1.86140804365313       -2.02167229014172       -4.88734642935748
C           -3.22125108272677       -2.23331832800476       -5.09986481128672
C           -4.16681275856233       -1.71766402157932       -4.23589313754245
C           -3.73593002637198       -0.96923935862672       -3.14792987857749
C           -4.42398702102461       -0.30363608689579       -2.07544172595261
C           -5.76813005084879       -0.15747098131380       -1.73408402179709
C           -6.10685600246476        0.59815566679926       -0.63412577294692
C           -5.12493117299133        1.27303679248984        0.10090244756088
C           -5.29610519443054        2.18078214118595        1.20647653899243
C           -6.46385491801925        2.53606967787546        1.87666402052544
C           -6.40489909430181        3.43331835749787        2.92332342194736
C           -5.19327991008846        3.99471167020314        3.31406885923855
C           -4.02013919930356        3.66218549436277        2.66302171027272
C           -4.08387066737121        2.75615403733530        1.61957141430905
S           -2.71644578244641        2.19265579579852        0.67617298087912
C           -3.77302246029151        1.14346513426253       -0.24934538043987
C           -3.42341675335098        0.29899635724465       -1.28734430787006
H            0.20515470614453        3.69261625137228       -1.38709889066678
H            0.60287873244821        6.06286117920887       -1.90219053031327
H            2.83564102818131        6.87040338956805       -2.51069915658578
H            4.75828988196116        5.31654176324562       -2.59909832653679
H            6.41508816714042        3.11858379339010       -2.51603386641368
H            7.36103497743928        0.84395215187560       -2.30534024623839
H            5.92117700497568       -1.06560188851816       -1.76763955491038
H            3.50794940259960       -0.76112804140205       -1.37253061865301
H            1.87510451840913        3.22544357219007        0.94973356808221
H            3.34878382830028        4.98307117586726        1.84046759874225
H            5.50727041683290        4.42571323558036        2.86116750783731
H            6.24203136739060        2.07340194865138        3.05653042102353
H            6.44857325662861       -0.64739636052367        2.96370678101329
H            6.12987102089904       -3.06712044225680        2.57490022299823
H            5.57279080601178       -5.30409502122736        2.02895089533609
H            4.70758968371427       -7.47379344563759        1.24620543234253
H            2.59910570856511       -7.59834248381658       -0.01544703723728
H            1.32349301770312       -5.53857525260715       -0.52426949586653
H           -1.21808569774920       -2.74939543827332       -1.47975372656057
H           -2.69950852222156       -4.55496951759524       -2.26857172153343
H           -4.80086623293973       -5.05787355680875       -1.11081459536288
H           -5.45016967670241       -3.81059586538041        0.92333632773734
H           -5.54686871965721       -2.10993351748150        3.07722317719106
H           -5.05998356366038       -0.42683021046096        4.82526858375991
H           -3.02693377584330        0.93613522834669        4.71104569629836
H           -1.43697831681597        0.69490395500023        2.85708614600381
H           -0.34978148586676       -1.13342305512994       -3.64730160372445
H           -1.14355317799371       -2.44051925184298       -5.57630989430613
H           -3.53584542552144       -2.81271380312460       -5.95448438200310
H           -5.21956311506324       -1.88972126845402       -4.39623620822851
H           -6.53036309573040       -0.63203926671519       -2.33110559979665
H           -7.14082014517207        0.70851432273255       -0.34856270189262
H           -7.40507552266989        2.10280227491760        1.57608231942242
H           -7.30942472509304        3.70538871802865        3.44597637125315
H           -5.16548573077035        4.69625445199717        4.13391093208143
H           -3.07467190387611        4.09074112484022        2.95833562572068

          :  Hamiltonian                  GFN2-xTB          :
         :: gradient norm              0.000041036520 Eh/a0 ::
         :: HOMO-LUMO gap              1.488471760054 eV    ::
         :: SCC energy              -191.753659784414 Eh    ::
         :: -> dispersion             -0.221790650670 Eh    ::
         :: -> Gsolv                  -0.074438720773 Eh    ::
         :: repulsion energy           3.517538590448 Eh    ::

    * Orbital Energies and Occupations

         #    Occupation            Energy/Eh            Energy/eV
      -------------------------------------------------------------
         1        2.0000           -0.7438381             -20.2409
       ...           ...                  ...                  ...
       163        2.0000           -0.4195304             -11.4160
       164        2.0000           -0.4182333             -11.3807
       165        2.0000           -0.4180248             -11.3750
       166        2.0000           -0.4001797             -10.8894
       167        2.0000           -0.3981979             -10.8355
       168        2.0000           -0.3942287             -10.7275
       169        2.0000           -0.3928561             -10.6902
       170        2.0000           -0.3888900             -10.5822
       171        2.0000           -0.3875614             -10.5461
       172        2.0000           -0.3854835             -10.4895
       173        2.0000           -0.3818946             -10.3919
       174        2.0000           -0.3790442             -10.3143
       175        2.0000           -0.3768354             -10.2542 (HOMO)
       176                         -0.3221351              -8.7657 (LUMO)
       177                         -0.2869846              -7.8092
       178                         -0.2744084              -7.4670
       179                         -0.2722437              -7.4081
       180                         -0.2594153              -7.0591
       181                         -0.2579165              -7.0183
       182                         -0.2499637              -6.8019
       183                         -0.2457081              -6.6861
       184                         -0.2450286              -6.6676
       185                         -0.2394707              -6.5163
       186                         -0.2391443              -6.5074
       ...                                ...                  ...
       350                          1.1446036              31.1462
      -------------------------------------------------------------
                  HL-Gap            0.0547003 Eh            1.4885 eV

     #   Z          covCN         q      C6AA      α(0)
     1   7 N        0.911    -0.244    26.361     7.426
     2   6 C        1.913     0.133    27.860     8.524
     3   6 C        2.974    -0.007    28.197     8.710
     4   6 C        2.916     0.064    26.574     8.453
     5   7 N        2.801    -0.062    22.432     7.034
     6   6 C        3.066     0.050    26.819     8.492
     7   6 C        2.910    -0.048    29.195     8.860
     8   6 C        2.925    -0.030    28.759     8.794
     9   6 C        2.920    -0.037    28.923     8.819
    10   6 C        2.913    -0.031    28.774     8.796
    11   6 C        3.067    -0.014    28.290     8.722
    12   6 C        3.065    -0.015    28.320     8.726
    13   6 C        2.913    -0.032    28.788     8.798
    14   6 C        2.920    -0.038    28.937     8.821
    15   6 C        2.925    -0.032    28.791     8.799
    16   6 C        2.910    -0.050    29.248     8.868
    17   6 C        3.069     0.049    26.829     8.493
    18   6 C        2.920     0.067    26.508     8.443
    19   7 N        2.803    -0.059    22.374     7.025
    20   6 C        3.072     0.049    26.819     8.491
    21   6 C        2.910    -0.049    29.228     8.865
    22   6 C        2.925    -0.030    28.759     8.795
    23   6 C        2.920    -0.036    28.908     8.817
    24   6 C        2.913    -0.031    28.770     8.796
    25   6 C        3.071    -0.014    28.297     8.722
    26   6 C        3.066    -0.018    28.389     8.737
    27   6 C        2.912    -0.037    28.909     8.817
    28   6 C        2.918    -0.042    29.050     8.838
    29   6 C        3.099    -0.005    28.023     8.675
    30   6 C        3.106    -0.000    27.897     8.654
    31   6 C        2.918    -0.032    28.786     8.798
    32   6 C        2.918    -0.032    28.792     8.799
    33   6 C        2.924    -0.029    28.723     8.789
    34   6 C        2.936    -0.038    28.941     8.823
    35   6 C        3.003     0.045    26.986     8.521
    36  16 S        2.202    -0.168   148.156    20.486
    37   6 C        2.992     0.021    27.527     8.606
    38   6 C        3.083     0.046    26.883     8.500
    39   6 C        2.977     0.001    27.999     8.680
    40   6 C        1.914     0.140    27.682     8.497
    41   7 N        0.911    -0.259    26.726     7.477
    42   6 C        2.915     0.072    26.388     8.424
    43   7 N        2.798    -0.067    22.528     7.049
    44   6 C        3.072     0.051    26.776     8.484
    45   6 C        2.910    -0.049    29.224     8.864
    46   6 C        2.925    -0.032    28.796     8.800
    47   6 C        2.920    -0.038    28.934     8.821
    48   6 C        2.913    -0.033    28.811     8.802
    49   6 C        3.063    -0.017    28.360     8.733
    50   6 C        3.068    -0.016    28.347     8.730
    51   6 C        2.913    -0.033    28.820     8.803
    52   6 C        2.920    -0.038    28.945     8.823
    53   6 C        2.925    -0.031    28.783     8.798
    54   6 C        2.911    -0.044    29.092     8.844
    55   6 C        3.064     0.053    26.743     8.480
    56   6 C        2.920     0.069    26.452     8.434
    57   7 N        2.798    -0.066    22.516     7.047
    58   6 C        3.073     0.052    26.768     8.483
    59   6 C        2.909    -0.047    29.165     8.855
    60   6 C        2.925    -0.030    28.745     8.792
    61   6 C        2.920    -0.036    28.906     8.817
    62   6 C        2.913    -0.031    28.769     8.795
    63   6 C        3.074    -0.014    28.271     8.718
    64   6 C        3.061    -0.020    28.438     8.745
    65   6 C        2.912    -0.038    28.938     8.821
    66   6 C        2.918    -0.043    29.064     8.841
    67   6 C        3.098    -0.007    28.082     8.685
    68   6 C        3.107    -0.002    27.927     8.658
    69   6 C        2.918    -0.032    28.793     8.799
    70   6 C        2.918    -0.032    28.801     8.801
    71   6 C        2.924    -0.029    28.731     8.790
    72   6 C        2.936    -0.038    28.945     8.823
    73   6 C        3.004     0.044    27.009     8.525
    74  16 S        2.199    -0.161   147.834    20.464
    75   6 C        2.996     0.019    27.570     8.613
    76   6 C        3.097     0.047    26.820     8.487
    77   1 H        0.926     0.014     2.823     2.627
    78   1 H        0.926     0.041     2.432     2.439
    79   1 H        0.926     0.045     2.388     2.417
    80   1 H        0.926     0.047     2.357     2.401
    81   1 H        0.926     0.046     2.365     2.405
    82   1 H        0.926     0.043     2.403     2.424
    83   1 H        0.926     0.037     2.483     2.464
    84   1 H        0.926     0.017     2.783     2.609
    85   1 H        0.926     0.020     2.739     2.588
    86   1 H        0.926     0.043     2.410     2.428
    87   1 H        0.926     0.047     2.362     2.403
    88   1 H        0.926     0.048     2.339     2.392
    89   1 H        0.926     0.053     2.283     2.363
    90   1 H        0.926     0.052     2.289     2.366
    91   1 H        0.926     0.049     2.328     2.386
    92   1 H        0.926     0.048     2.343     2.394
    93   1 H        0.926     0.048     2.348     2.396
    94   1 H        0.926     0.040     2.443     2.444
    95   1 H        0.926     0.016     2.789     2.612
    96   1 H        0.926     0.040     2.454     2.449
    97   1 H        0.926     0.045     2.388     2.417
    98   1 H        0.926     0.046     2.374     2.410
    99   1 H        0.926     0.046     2.376     2.410
   100   1 H        0.926     0.043     2.414     2.430
   101   1 H        0.926     0.038     2.474     2.460
   102   1 H        0.926     0.016     2.794     2.614
   103   1 H        0.926     0.016     2.791     2.613
   104   1 H        0.926     0.044     2.397     2.421
   105   1 H        0.926     0.047     2.359     2.402
   106   1 H        0.926     0.048     2.340     2.392
   107   1 H        0.926     0.051     2.304     2.374
   108   1 H        0.926     0.051     2.308     2.376
   109   1 H        0.926     0.048     2.342     2.393
   110   1 H        0.926     0.048     2.351     2.398
   111   1 H        0.926     0.047     2.353     2.399
   112   1 H        0.926     0.040     2.442     2.444

molecular dipole:
                 x           y           z       tot (Debye)
 q only:       -0.022      -0.300       0.294
   full:       -0.120      -0.441       0.485       1.693

 projected vibrational frequencies (cm⁻¹)
eigval :       -0.00    -0.00     0.00     0.00     0.00     0.00
eigval :        9.69    13.01    15.99    20.68    20.73    25.79
eigval :       28.70    33.30    41.33    45.40    48.90    54.03
eigval :       55.02    59.26    68.86    79.89    84.32    93.42
eigval :       96.25   102.79   112.06   113.67   115.86   118.77
eigval :      121.39   123.55   132.19   135.52   142.35   146.46
eigval :      149.34   152.39   160.94   174.82   182.21   192.90
eigval :      208.65   216.92   220.59   223.29   230.31   247.94
eigval :      250.47   255.36   259.22   264.72   272.43   276.37
eigval :      278.76   286.73   297.83   303.57   320.75   322.47
eigval :      346.96   366.47   370.64   388.73   394.94   397.02
eigval :      401.40   402.26   404.65   405.73   407.17   419.66
eigval :      421.75   422.37   426.68   431.72   435.31   436.32
eigval :      440.23   443.60   462.52   463.73   477.63   478.11
eigval :      480.31   482.44   492.26   493.52   509.79   510.86
eigval :      518.36   519.22   527.33   530.38   535.67   537.43
eigval :      540.18   543.50   543.60   548.04   549.59   555.30
eigval :      566.18   577.05   585.18   589.49   591.72   597.96
eigval :      598.33   601.28   616.52   620.48   639.17   643.68
eigval :      659.24   659.82   660.63   663.74   664.53   673.03
eigval :      673.88   683.10   683.83   687.44   695.07   700.90
eigval :      702.31   702.86   706.69   707.37   711.47   730.31
eigval :      737.65   750.98   754.52   763.46   770.03   771.05
eigval :      771.75   773.26   776.53   777.54   783.95   784.15
eigval :      797.38   804.78   817.45   817.78   830.57   831.33
eigval :      866.20   868.49   869.55   870.52   871.85   875.30
eigval :      876.62   879.25   880.53   891.30   892.46   893.12
eigval :      896.84   902.03   903.61   904.26   905.54   906.56
eigval :      907.15   907.81   908.72   917.34   919.32   920.72
eigval :      921.55   922.91   923.77   924.81   925.11   926.71
eigval :      929.14   971.05  1008.25  1012.00  1013.40  1023.07
eigval :     1036.63  1046.94  1047.73  1069.36  1069.64  1070.13
eigval :     1071.61  1072.10  1075.19  1076.26  1076.50  1077.43
eigval :     1081.19  1118.89  1119.56  1123.84  1142.51  1143.87
eigval :     1150.73  1150.76  1151.04  1151.50  1160.07  1160.71
eigval :     1162.27  1176.83  1177.42  1177.57  1177.64  1179.28
eigval :     1180.73  1181.66  1182.59  1193.59  1217.51  1223.77
eigval :     1224.86  1224.98  1231.83  1232.65  1236.64  1239.34
eigval :     1247.16  1259.09  1269.36  1280.65  1286.37  1288.78
eigval :     1290.63  1291.40  1293.28  1296.96  1300.85  1312.98
eigval :     1319.35  1335.53  1336.92  1350.62  1353.03  1355.44
eigval :     1356.76  1357.43  1357.99  1358.95  1360.16  1375.17
eigval :     1376.29  1388.86  1392.18  1401.12  1406.21  1411.84
eigval :     1414.76  1415.89  1419.49  1423.59  1426.28  1426.96
eigval :     1439.59  1449.65  1454.00  1456.61  1457.84  1458.75
eigval :     1470.26  1471.70  1477.55  1478.40  1484.51  1484.82
eigval :     1497.17  1503.90  1556.18  1556.94  1567.68  1568.28
eigval :     1577.15  1577.25  1580.15  1582.24  1587.18  1587.87
eigval :     1591.74  1592.16  1592.84  1595.70  1599.78  1599.94
eigval :     1606.36  1606.96  1611.53  1612.30  2358.69  2362.62
eigval :     3068.36  3068.88  3076.42  3077.55  3080.07  3080.83
eigval :     3084.23  3084.72  3085.02  3085.70  3085.91  3085.98
eigval :     3086.55  3087.62  3088.79  3088.80  3092.51  3092.91
eigval :     3093.66  3093.88  3095.08  3095.30  3095.57  3095.72
eigval :     3097.82  3098.97  3100.81  3101.70  3102.45  3102.60
eigval :     3102.77  3103.00  3103.75  3103.99  3108.68  3109.65

   temp. (K)  partition function   enthalpy   heat capacity  entropy
                                   cal/mol     cal/K/mol   cal/K/mol   J/K/mol
 298.15  VIB  0.102E+27            34695.869    220.380    214.028
         ROT  0.167E+09              888.752      2.981     40.611
         INT  0.171E+35            35584.622    223.361    254.639
         TR   0.306E+29             1481.254      4.968     46.564
         TOT                       37065.8757   228.3294   301.2032  1260.2342

       T/K    H(0)-H(T)+PV         H(T)/Eh          T*S/Eh         G(T)/Eh
   ------------------------------------------------------------------------
    298.15    0.590682E-01    0.877117E+00    0.143111E+00    0.734006E+00
   ------------------------------------------------------------------------

         :::::::::::::::::::::::::::::::::::::::::::::::::::::
         ::                  THERMODYNAMIC                  ::
         :::::::::::::::::::::::::::::::::::::::::::::::::::::
         :: total free energy        -187.502115365344 Eh   ::
         ::.................................................::
         :: total energy             -188.236121197976 Eh   ::
         :: zero point energy           0.818048963406 Eh   ::
         :: G(RRHO) w/o ZPVE           -0.084043130774 Eh   ::
         :: G(RRHO) contrib.            0.734005832632 Eh   ::
         :::::::::::::::::::::::::::::::::::::::::::::::::::::

           -------------------------------------------------
          | TOTAL ENERGY             -188.236121197976 Eh   |
          | TOTAL ENTHALPY           -187.359004001725 Eh   |
          | TOTAL FREE ENERGY        -187.502115365344 Eh   |
          | GRADIENT NORM               0.000041027289 Eh/α |
          | HOMO-LUMO GAP               1.488470169897 eV   |
           -------------------------------------------------

 * finished run on 2025/07/17 at 17:31:05.974
