   * xtb version 6.7.1 (edcfbbe) compiled by 'albert@albert-system' on 2024-07-22

   ID    Z sym.   atoms
    1    7 N      1, 5, 19, 41, 43, 57
    2    6 C      2-4, 6-18, 20-35, 37-40, 42, 44-56, 58-73, 75, 76
    3   16 S      36, 74
    4    1 H      77-112

          program call               : xtb data2507/toluene/12BTCzTPN/12BTCzTPN_toluene_S0_finalOpt.xtbopt.xyz --gfn 2 --uhf 2 --gbsa toluene --ohess vtight --parallel 40 --molden --ceasefiles --namespace data2507/toluene/12BTCzTPN/12BTCzTPN_toluene_T1_preOpt
      * Solvation model:               GBSA
        Solvent                        toluene
        Solvent mass                       9.2140E+01 g/mol
          :  Hamiltonian                  GFN2-xTB          :
 * total energy  :  -188.1635284 Eh     change       -0.1089305E-07 Eh
 * total energy  :  -188.1679391 Eh     change       -0.4410734E-02 Eh
 * total energy  :  -188.1692205 Eh     change       -0.1281395E-02 Eh
 * total energy  :  -188.1692893 Eh     change       -0.6875544E-04 Eh
 * total energy  :  -188.1693720 Eh     change       -0.8268927E-04 Eh
 * total energy  :  -188.1694013 Eh     change       -0.2932613E-04 Eh
 * total energy  :  -188.1694590 Eh     change       -0.5774142E-04 Eh
 * total energy  :  -188.1694964 Eh     change       -0.3738935E-04 Eh
 * total energy  :  -188.1695333 Eh     change       -0.3692514E-04 Eh
 * total energy  :  -188.1695771 Eh     change       -0.4374779E-04 Eh
 * total energy  :  -188.1697846 Eh     change       -0.3383923E-06 Eh
 * total energy  :  -188.1697849 Eh     change       -0.3012504E-06 Eh
 * total energy  :  -188.1697852 Eh     change       -0.3127850E-06 Eh
 * total energy  :  -188.1697855 Eh     change       -0.2676136E-06 Eh
 * total energy  :  -188.1697857 Eh     change       -0.1831747E-06 Eh
 * total energy  :  -188.1697858 Eh     change       -0.1458916E-06 Eh
 * total energy  :  -188.1697860 Eh     change       -0.2090320E-06 Eh
 * total energy  :  -188.1697862 Eh     change       -0.2036731E-06 Eh
 * total energy  :  -188.1697862 Eh     change       -0.5318896E-08 Eh
   *** GEOMETRY OPTIMIZATION CONVERGED AFTER 44 ITERATIONS ***

 final structure:
================
112
 xtb: 6.7.1 (edcfbbe)
N           -0.29796264462475        2.04997018014680       -3.83351236677172
C           -0.13973125463677        1.54809084962287       -2.80067999651986
C            0.03577013585723        0.93958196015724       -1.56969594815179
C            1.26839588730667        1.05630061820420       -0.85236050218974
N            2.31700019054044        1.80059236414773       -1.41432064990942
C            2.30116638794950        3.16096393848773       -1.64972231463146
C            1.25980305685042        4.06688142535323       -1.50742369567336
C            1.52087607585869        5.39535491440309       -1.78723906863430
C            2.78680804469967        5.81717776177275       -2.18502079689444
C            3.83215960537564        4.91939816791507       -2.31185413865071
C            3.59284239416346        3.58044166451211       -2.04311771409723
C            4.41935815124504        2.40212482398239       -2.05679467654243
C            5.75122325183631        2.16494886718662       -2.36029271173550
C            6.22472427097278        0.86582385131900       -2.29543754626955
C            5.38274225591835       -0.19200681800710       -1.96272342799344
C            4.05173563838997        0.02062239030208       -1.65596668708823
C            3.58557639463083        1.32697496104397       -1.67345894837889
C            1.42890620748023        0.42571035108850        0.35729452025372
N            2.65145263217924        0.49211012176476        1.04836663052927
C            3.25844695390388        1.64289939147423        1.50744100458102
C            2.79210149932379        2.94838806197078        1.48258232190287
C            3.60774941507253        3.93064135751979        2.01290662189180
C            4.84677566236173        3.62036041985074        2.56809232921345
C            5.29729650322395        2.31405341093795        2.62993395056204
C            4.49627852268291        1.31056954749051        2.10286734483231
C            4.62433807052139       -0.11756778436626        2.01056201548791
C            5.61271509085892       -1.01035871814208        2.41004396770312
C            5.45224966458158       -2.35663902893193        2.15305144924025
C            4.31777372394007       -2.82508348485939        1.48481532256056
C            4.01069900908339       -4.18124623748815        1.10530481847416
C            4.73627348764727       -5.34615844596977        1.34106406425881
C            4.25225570579280       -6.55592940551762        0.88412891005719
C            3.04727363970558       -6.62801102020988        0.19135173014163
C            2.30777861946051       -5.48649563413507       -0.05624467779923
C            2.79895473920921       -4.27578001044864        0.40171069285193
S            2.01437318905110       -2.72009948201046        0.20981176495806
C            3.31209409007617       -1.93082930308471        1.07652354239624
C            3.45621333648477       -0.57685271378397        1.35256114257583
C            0.35581803136234       -0.30450065462100        0.95955447546242
C            0.52638283308347       -0.88513026691546        2.20427072336818
N            0.69355326489102       -1.35675924342666        3.25027485868573
C           -0.86997947013041       -0.43221967037904        0.23943409885936
N           -1.91523164797777       -1.18252630309761        0.80293668083172
C           -2.52605272981051       -2.26086750085055        0.19515721194214
C           -2.10052922662776       -3.00038300087595       -0.89799384890851
C           -2.89210888248803       -4.05825839322056       -1.30474800947533
C           -4.07116390241736       -4.37719369671754       -0.63660074191396
C           -4.47490219833689       -3.66899099274194        0.48213588042317
C           -3.69230077988595       -2.60874413501029        0.91319712666270
C           -3.76270924621141       -1.70438070399864        2.03116767423818
C           -4.66423820438503       -1.54165310238344        3.07111437226030
C           -4.42037815683446       -0.55575087152204        4.01258804591617
C           -3.29052787710627        0.25088079086117        3.92942272783565
C           -2.38000720825226        0.11287408509497        2.89662242211553
C           -2.62894290031612       -0.86266346723206        1.94040437256953
C           -1.01078596312905        0.15136552691985       -1.00145763014144
N           -2.20021345509864       -0.01369979809995       -1.73672581258141
C           -2.34702185371997       -0.76167784384531       -2.89210357003177
C           -1.37381991996285       -1.31542358549382       -3.70862584869554
C           -1.79605175493472       -2.02132823924213       -4.82040738867023
C           -3.14930590199866       -2.18360476310398       -5.10544344541123
C           -4.12284514378322       -1.64122563195442       -4.28702936604268
C           -3.72338661851923       -0.92051923076249       -3.17010656381681
C           -4.43743652489862       -0.22463292141586       -2.13439265712771
C           -5.78552936180981       -0.03600141765250       -1.85361800254013
C           -6.15169749180592        0.73102517283634       -0.76362422153075
C           -5.18489048065979        1.36261999196105        0.02244999645310
C           -5.37935578299914        2.26397160336552        1.13125080967598
C           -6.56426899643092        2.65572142199034        1.74704850765738
C           -6.52187707597929        3.53660100783265        2.81004393982866
C           -5.31072945197827        4.04362975079512        3.26941654903761
C           -4.11993506772816        3.67325044477136        2.67185146342668
C           -4.16729622725013        2.78405040814331        1.61272242739000
S           -2.77778707917495        2.17287220758562        0.73181448343439
C           -3.81981632421972        1.18669279229417       -0.26031085769276
C           -3.44535616863949        0.34334801135324       -1.29681234608360
H            0.27590474217810        3.74802308180713       -1.19705716033444
H            0.72502440051976        6.11876756689450       -1.69236126016411
H            2.95172448292642        6.86318702760477       -2.39481495370746
H            4.81434085174677        5.25071013206685       -2.61160788797522
H            6.40091500233583        2.97739092590174       -2.64662994725422
H            7.26007303686310        0.66264646433781       -2.52351807357912
H            5.77265512287073       -1.19882169156220       -1.94805229813726
H            3.39162210718957       -0.80308368268471       -1.42987051572056
H            1.82387356027699        3.19038279579202        1.07130342089567
H            3.27342146216005        4.95681574982028        1.99656069690642
H            5.45768161611080        4.41509776456955        2.96831457951038
H            6.24801612624075        2.07597200232523        3.08090575231769
H            6.49625193556589       -0.64864136214900        2.91157901199871
H            6.20987428351066       -3.06114609978449        2.45727737572491
H            5.66867832539230       -5.29725059017598        1.88165778403157
H            4.81395093044990       -7.45929938262947        1.06785854926945
H            2.68340327271154       -7.58306126143116       -0.15559527039108
H            1.37016186395974       -5.52924053488605       -0.58890946792096
H           -1.17295878646096       -2.76974853568213       -1.39947701255541
H           -2.58570049591007       -4.64887560878273       -2.15453384916347
H           -4.66803856674559       -5.20482800527693       -0.98838067675527
H           -5.37290508042578       -3.94015158143348        1.01520677413603
H           -5.53680044349723       -2.17232297598626        3.14282623847888
H           -5.11102937026364       -0.41325098829178        4.82962768517461
H           -3.11622907300223        1.00081298780369        4.68590330460932
H           -1.49606440355318        0.73005780255457        2.85300714664357
H           -0.32288968274893       -1.19120907148320       -3.49264090024829
H           -1.05872690215653       -2.45487312426571       -5.47912060914160
H           -3.43884328766521       -2.74155862496310       -5.98296264061253
H           -5.17048779311874       -1.76975506390998       -4.50995961880095
H           -6.53660011187928       -0.48409945199610       -2.48442506827306
H           -7.19437060445130        0.87607627405340       -0.53031568837849
H           -7.50623270008670        2.26632511805987        1.39383609240697
H           -7.44024843913044        3.83768096580103        3.29081927536387
H           -5.29709697771795        4.73271390961221        4.09993224229139
H           -3.17462864730968        4.06003245629789        3.01956948015338

          :  Hamiltonian                  GFN2-xTB          :
         :: gradient norm              0.000054975386 Eh/a0 ::
         :: HOMO-LUMO gap              0.509057919223 eV    ::
         :: SCC energy              -191.667608415298 Eh    ::
         :: -> dispersion             -0.219019081791 Eh    ::
         :: -> Gsolv                  -0.081875605313 Eh    ::
         :: repulsion energy           3.497822181617 Eh    ::

    * Orbital Energies and Occupations

         #    Occupation            Energy/Eh            Energy/eV
      -------------------------------------------------------------
         1        2.0000           -0.7465365             -20.3143
       ...           ...                  ...                  ...
       164        2.0000           -0.4134042             -11.2493
       165        2.0000           -0.4083408             -11.1115
       166        2.0000           -0.3994616             -10.8699
       167        2.0000           -0.3964782             -10.7887
       168        2.0000           -0.3948803             -10.7452
       169        2.0000           -0.3920057             -10.6670
       170        2.0000           -0.3896168             -10.6020
       171        2.0000           -0.3885940             -10.5742
       172        1.9996           -0.3822404             -10.4013
       173        1.9898           -0.3791690             -10.3177
       174        1.7377           -0.3758003             -10.2260
       175        1.2728           -0.3738863             -10.1740
       176        0.9999           -0.2947187              -8.0197 (HOMO)
       177        0.0001           -0.2760111              -7.5106 (LUMO)
       178        0.0000           -0.2736864              -7.4474
       179                         -0.2614941              -7.1156
       180                         -0.2583565              -7.0302
       181                         -0.2535288              -6.8989
       182                         -0.2481515              -6.7525
       183                         -0.2457720              -6.6878
       184                         -0.2419145              -6.5828
       185                         -0.2394177              -6.5149
       186                         -0.2384048              -6.4873
       187                         -0.2374342              -6.4609
       ...                                ...                  ...
       350                          1.1659609              31.7274
      -------------------------------------------------------------
                  HL-Gap            0.0187077 Eh            0.5091 eV

     #   Z          covCN         q      C6AA      α(0)
     1   7 N        0.911    -0.354    29.118     7.804
     2   6 C        1.909     0.109    28.397     8.606
     3   6 C        2.966    -0.048    29.194     8.863
     4   6 C        2.910     0.045    26.996     8.520
     5   7 N        2.803    -0.045    22.101     6.982
     6   6 C        3.075     0.055    26.692     8.471
     7   6 C        2.909    -0.041    29.021     8.834
     8   6 C        2.924    -0.030    28.759     8.794
     9   6 C        2.920    -0.034    28.856     8.809
    10   6 C        2.912    -0.030    28.750     8.792
    11   6 C        3.068    -0.015    28.306     8.724
    12   6 C        3.065    -0.015    28.320     8.726
    13   6 C        2.912    -0.030    28.757     8.793
    14   6 C        2.920    -0.035    28.877     8.812
    15   6 C        2.923    -0.032    28.800     8.801
    16   6 C        2.910    -0.047    29.171     8.856
    17   6 C        3.078     0.051    26.765     8.482
    18   6 C        2.914     0.044    27.009     8.522
    19   7 N        2.804    -0.042    22.047     6.974
    20   6 C        3.082     0.051    26.773     8.483
    21   6 C        2.910    -0.046    29.131     8.850
    22   6 C        2.924    -0.031    28.769     8.796
    23   6 C        2.920    -0.034    28.855     8.809
    24   6 C        2.912    -0.030    28.740     8.791
    25   6 C        3.069    -0.015    28.310     8.724
    26   6 C        3.068    -0.019    28.400     8.738
    27   6 C        2.911    -0.034    28.841     8.806
    28   6 C        2.917    -0.039    28.958     8.824
    29   6 C        3.102    -0.005    28.024     8.675
    30   6 C        3.106     0.000    27.885     8.652
    31   6 C        2.918    -0.031    28.763     8.795
    32   6 C        2.918    -0.031    28.763     8.795
    33   6 C        2.923    -0.029    28.717     8.788
    34   6 C        2.935    -0.036    28.894     8.816
    35   6 C        3.003     0.039    27.109     8.541
    36  16 S        2.206    -0.106   145.475    20.300
    37   6 C        2.990     0.024    27.455     8.595
    38   6 C        3.089     0.053    26.708     8.471
    39   6 C        2.968    -0.041    29.025     8.837
    40   6 C        1.909     0.116    28.253     8.584
    41   7 N        0.911    -0.364    29.385     7.840
    42   6 C        2.910     0.049    26.901     8.505
    43   7 N        2.801    -0.047    22.150     6.990
    44   6 C        3.080     0.052    26.751     8.479
    45   6 C        2.910    -0.046    29.132     8.850
    46   6 C        2.924    -0.032    28.789     8.799
    47   6 C        2.920    -0.035    28.861     8.810
    48   6 C        2.912    -0.031    28.769     8.795
    49   6 C        3.064    -0.016    28.349     8.731
    50   6 C        3.068    -0.016    28.350     8.731
    51   6 C        2.912    -0.030    28.751     8.793
    52   6 C        2.920    -0.034    28.857     8.809
    53   6 C        2.923    -0.031    28.777     8.797
    54   6 C        2.911    -0.038    28.935     8.820
    55   6 C        3.073     0.056    26.661     8.466
    56   6 C        2.914     0.045    26.981     8.518
    57   7 N        2.801    -0.044    22.088     6.980
    58   6 C        3.083     0.055    26.685     8.468
    59   6 C        2.909    -0.040    28.993     8.829
    60   6 C        2.924    -0.029    28.727     8.790
    61   6 C        2.920    -0.034    28.856     8.809
    62   6 C        2.912    -0.029    28.730     8.789
    63   6 C        3.072    -0.015    28.304     8.723
    64   6 C        3.063    -0.018    28.382     8.736
    65   6 C        2.911    -0.033    28.827     8.804
    66   6 C        2.917    -0.038    28.942     8.822
    67   6 C        3.100    -0.005    28.032     8.676
    68   6 C        3.106     0.001    27.874     8.651
    69   6 C        2.918    -0.030    28.741     8.791
    70   6 C        2.918    -0.029    28.728     8.789
    71   6 C        2.924    -0.027    28.686     8.783
    72   6 C        2.935    -0.035    28.862     8.811
    73   6 C        3.004     0.038    27.137     8.545
    74  16 S        2.205    -0.085   144.610    20.240
    75   6 C        2.994     0.016    27.649     8.625
    76   6 C        3.102     0.051    26.734     8.473
    77   1 H        0.926     0.024     2.677     2.558
    78   1 H        0.926     0.042     2.421     2.433
    79   1 H        0.926     0.045     2.378     2.411
    80   1 H        0.926     0.047     2.359     2.402
    81   1 H        0.926     0.047     2.360     2.402
    82   1 H        0.926     0.045     2.385     2.415
    83   1 H        0.926     0.039     2.463     2.454
    84   1 H        0.926     0.023     2.689     2.564
    85   1 H        0.926     0.026     2.638     2.540
    86   1 H        0.926     0.044     2.398     2.422
    87   1 H        0.926     0.048     2.351     2.398
    88   1 H        0.926     0.049     2.338     2.391
    89   1 H        0.926     0.054     2.266     2.354
    90   1 H        0.926     0.055     2.260     2.351
    91   1 H        0.926     0.050     2.322     2.383
    92   1 H        0.926     0.049     2.334     2.389
    93   1 H        0.926     0.049     2.334     2.389
    94   1 H        0.926     0.043     2.403     2.424
    95   1 H        0.926     0.025     2.657     2.549
    96   1 H        0.926     0.042     2.425     2.435
    97   1 H        0.926     0.047     2.363     2.404
    98   1 H        0.926     0.047     2.354     2.399
    99   1 H        0.926     0.048     2.344     2.394
   100   1 H        0.926     0.046     2.373     2.409
   101   1 H        0.926     0.041     2.435     2.440
   102   1 H        0.926     0.028     2.609     2.526
   103   1 H        0.926     0.025     2.653     2.547
   104   1 H        0.926     0.045     2.387     2.416
   105   1 H        0.926     0.048     2.346     2.395
   106   1 H        0.926     0.050     2.326     2.385
   107   1 H        0.926     0.056     2.245     2.343
   108   1 H        0.926     0.057     2.232     2.336
   109   1 H        0.926     0.052     2.290     2.366
   110   1 H        0.926     0.052     2.301     2.372
   111   1 H        0.926     0.051     2.302     2.373
   112   1 H        0.926     0.046     2.367     2.406

molecular dipole:
                 x           y           z       tot (Debye)
 q only:       -0.743      -0.411       0.596
   full:       -0.763      -0.519       0.751       3.024

 projected vibrational frequencies (cm⁻¹)
eigval :       -0.00    -0.00    -0.00    -0.00     0.00     0.00
eigval :        6.23    12.19    14.69    19.63    20.51    24.95
eigval :       26.18    31.77    39.71    41.92    45.21    51.36
eigval :       52.63    56.53    67.70    77.26    82.16    89.95
eigval :       92.97   100.32   107.89   110.72   113.68   115.13
eigval :      116.88   120.97   125.22   132.88   139.85   144.13
eigval :      146.76   147.99   157.15   170.24   177.80   187.88
eigval :      204.01   206.94   216.18   220.60   228.47   248.29
eigval :      250.65   253.20   256.39   262.61   271.20   273.58
eigval :      276.78   285.01   294.42   302.81   321.87   323.81
eigval :      353.24   366.02   372.23   387.78   393.81   397.82
eigval :      399.91   401.32   403.02   403.42   404.29   411.23
eigval :      420.71   421.63   426.01   429.46   431.76   432.44
eigval :      438.91   443.28   454.82   461.49   464.68   473.36
eigval :      475.86   476.71   477.66   491.41   494.29   500.84
eigval :      509.56   515.02   516.66   524.44   534.57   535.53
eigval :      538.61   539.06   540.40   541.93   547.13   549.85
eigval :      553.59   562.13   581.73   585.12   585.74   596.00
eigval :      597.61   600.25   605.60   615.57   619.64   638.06
eigval :      641.57   649.13   660.20   662.56   663.38   664.77
eigval :      672.94   674.47   683.56   685.05   687.16   700.53
eigval :      703.84   704.34   707.84   707.95   710.43   725.64
eigval :      735.54   750.44   753.31   763.82   768.01   768.15
eigval :      769.13   770.84   771.47   772.31   778.83   780.09
eigval :      797.71   803.23   815.54   817.67   832.32   833.50
eigval :      857.90   866.39   866.91   868.12   869.84   871.24
eigval :      872.67   874.48   876.98   888.72   890.97   891.25
eigval :      895.78   901.62   901.66   902.61   903.86   904.41
eigval :      905.52   906.86   908.22   916.95   918.92   919.04
eigval :      919.89   920.07   920.21   920.29   920.59   921.91
eigval :      923.85   971.62  1003.37  1010.58  1011.81  1021.52
eigval :     1033.78  1045.22  1046.00  1064.59  1066.21  1067.13
eigval :     1068.37  1068.84  1069.61  1070.49  1075.73  1075.92
eigval :     1081.54  1114.21  1115.23  1120.32  1138.46  1141.29
eigval :     1142.16  1143.10  1145.06  1152.17  1154.34  1158.09
eigval :     1158.58  1173.87  1175.58  1176.19  1176.39  1176.74
eigval :     1177.91  1179.87  1181.15  1189.95  1218.64  1220.30
eigval :     1222.40  1223.78  1229.54  1230.39  1231.31  1235.35
eigval :     1248.26  1256.38  1270.56  1275.48  1278.65  1283.43
eigval :     1284.83  1286.11  1287.53  1291.07  1292.56  1301.72
eigval :     1307.30  1333.57  1333.99  1339.13  1343.59  1345.48
eigval :     1348.08  1350.34  1352.32  1353.12  1360.36  1361.70
eigval :     1368.82  1375.54  1376.67  1378.76  1381.95  1392.30
eigval :     1403.65  1405.36  1412.70  1413.87  1416.84  1420.97
eigval :     1425.06  1433.80  1439.45  1442.70  1454.32  1456.00
eigval :     1459.32  1461.44  1470.52  1470.73  1474.77  1479.35
eigval :     1481.28  1543.14  1546.52  1554.37  1558.11  1564.27
eigval :     1564.95  1565.59  1566.57  1567.26  1577.90  1579.08
eigval :     1580.69  1581.63  1582.84  1583.83  1584.04  1585.25
eigval :     1593.80  1595.98  1599.60  1604.12  2245.82  2289.84
eigval :     3077.63  3077.91  3081.87  3083.55  3083.80  3084.29
eigval :     3085.33  3085.39  3085.79  3086.10  3087.49  3087.73
eigval :     3088.23  3089.68  3090.08  3091.39  3091.57  3093.68
eigval :     3093.72  3094.78  3094.87  3096.24  3096.31  3097.74
eigval :     3098.38  3099.09  3099.20  3100.84  3101.98  3102.05
eigval :     3102.39  3103.03  3103.50  3104.13  3108.31  3108.61

   temp. (K)  partition function   enthalpy   heat capacity  entropy
                                   cal/mol     cal/K/mol   cal/K/mol   J/K/mol
 298.15  VIB  0.598E+27            35012.972    221.170    216.978
         ROT  0.169E+09              888.752      2.981     40.625
         INT  0.101E+36            35901.724    224.151    257.603
         TR   0.306E+29             1481.254      4.968     46.564
         TOT                       37382.9780   229.1187   304.1670  1272.6346

       T/K    H(0)-H(T)+PV         H(T)/Eh          T*S/Eh         G(T)/Eh
   ------------------------------------------------------------------------
    298.15    0.595736E-01    0.874320E+00    0.144520E+00    0.729800E+00
   ------------------------------------------------------------------------

         :::::::::::::::::::::::::::::::::::::::::::::::::::::
         ::                  THERMODYNAMIC                  ::
         :::::::::::::::::::::::::::::::::::::::::::::::::::::
         :: total free energy        -187.439985828704 Eh   ::
         ::.................................................::
         :: total energy             -188.169786237160 Eh   ::
         :: zero point energy           0.814746385787 Eh   ::
         :: G(RRHO) w/o ZPVE           -0.084945977332 Eh   ::
         :: G(RRHO) contrib.            0.729800408456 Eh   ::
         :::::::::::::::::::::::::::::::::::::::::::::::::::::

           -------------------------------------------------
          | TOTAL ENERGY             -188.169786237160 Eh   |
          | TOTAL ENTHALPY           -187.295466283851 Eh   |
          | TOTAL FREE ENERGY        -187.439985828704 Eh   |
          | GRADIENT NORM               0.000054806749 Eh/α |
          | HOMO-LUMO GAP               0.509061959453 eV   |
           -------------------------------------------------

 * finished run on 2025/07/17 at 17:31:27.564
