   * xtb version 6.7.1 (edcfbbe) compiled by 'albert@albert-system' on 2024-07-22

   ID    Z sym.   atoms
    1    8 O      1, 20
    2    6 C      2-19, 21-30
    3    1 H      31-52

          program call               : xtb data2507/gas/p-DHMPA/p-DHMPA.xyz --gfn 2 --ohess vtight --parallel 40 --molden --ceasefiles --namespace data2507/gas/p-DHMPA/p-DHMPA_gas_S0_preOpt
          :  Hamiltonian                  GFN2-xTB          :
 * total energy  :   -79.2718483 Eh     change       -0.7911609E-09 Eh
 * total energy  :   -79.2821531 Eh     change       -0.1030480E-01 Eh
 * total energy  :   -79.2843047 Eh     change       -0.2151580E-02 Eh
 * total energy  :   -79.2844697 Eh     change       -0.1650119E-03 Eh
 * total energy  :   -79.2845189 Eh     change       -0.4924273E-04 Eh
 * total energy  :   -79.2845217 Eh     change       -0.2747612E-05 Eh
 * total energy  :   -79.2845222 Eh     change       -0.4897045E-06 Eh
 * total energy  :   -79.2845223 Eh     change       -0.1441358E-06 Eh
 * total energy  :   -79.2845223 Eh     change        0.9576155E-08 Eh
 * total energy  :   -79.2845224 Eh     change       -0.1273985E-06 Eh
 * total energy  :   -79.2900780 Eh     change       -0.4741250E-06 Eh
 * total energy  :   -79.2900784 Eh     change       -0.3780803E-06 Eh
 * total energy  :   -79.2900788 Eh     change       -0.3883599E-06 Eh
 * total energy  :   -79.2900791 Eh     change       -0.3629751E-06 Eh
 * total energy  :   -79.2900793 Eh     change       -0.1859656E-06 Eh
 * total energy  :   -79.2900794 Eh     change       -0.1352796E-06 Eh
 * total energy  :   -79.2900796 Eh     change       -0.1237571E-06 Eh
 * total energy  :   -79.2900797 Eh     change       -0.1207037E-06 Eh
 * total energy  :   -79.2900798 Eh     change       -0.6754379E-07 Eh
   *** GEOMETRY OPTIMIZATION CONVERGED AFTER 86 ITERATIONS ***

 final structure:
================
52
 xtb: 6.7.1 (edcfbbe)
O            7.77312646996837        0.80758844708634       -0.87889717916331
C            7.19444183064829       -0.08462923895249        0.04317209393744
C            5.68540576590024       -0.07317503870004        0.04327813978040
C            4.97651485217154       -0.41735017069245        1.18728106637593
C            3.59475131710497       -0.42061373144551        1.18203278796932
C            2.89056154395498       -0.06864780683858        0.03429781722156
C            1.41209249082067       -0.06757958318930        0.03153307447607
C            0.71486128448256        1.14757951551925       -0.01656698221970
C            1.39075675290462        2.39604169471747       -0.03748663045955
C            0.70455799385905        3.57044769664071       -0.07049466110926
C           -0.70464290172818        3.57042074329586       -0.07077261850674
C           -1.39080157408098        2.39598592259344       -0.03796670924567
C           -0.71485551580933        1.14755844082881       -0.01672034238272
C           -1.41206275854461       -0.06760013513762        0.03139646854975
C           -2.89054704157209       -0.06869768388825        0.03432462939624
C           -3.59440191719576       -0.41944951646371        1.18265228307487
C           -4.97613784457341       -0.41567007090474        1.18846364137465
C           -5.68538828963971       -0.07220217305710        0.04444721215301
C           -7.19445192608266       -0.08248500589921        0.04546821895500
O           -7.77320546779916        0.80690684313521       -0.87924365378513
C           -4.98444041630860        0.27208987022154       -1.10388544250376
C           -3.60224707002082        0.27890668523484       -1.10890834346375
C           -0.71481339945241       -1.28296888320110        0.07776396933845
C           -1.39123730260586       -2.53116980439738        0.09758644512828
C           -0.70461389941795       -3.70545155275879        0.12905967011991
C            0.70457530933276       -3.70546839014773        0.12877914220075
C            1.39122841041566       -2.53120508265377        0.09719522735583
C            0.71484721743328       -1.28297258974505        0.07770626337396
C            3.60194150733631        0.28012943867263       -1.10881083569963
C            4.98410737779555        0.27282191531181       -1.10435377124363
H            7.44789530365554        1.69577441713051       -0.69384429747520
H            7.55245143562156       -1.07666059199522       -0.25424428618385
H            7.56451079281604        0.11560845557723        1.06050779134896
H            5.51189536342917       -0.68665857680767        2.08685791464484
H            3.04971620086640       -0.68841199417519        2.07583034146303
H            2.47058464739354        2.39666440663171       -0.01976516013994
H            1.23352859994038        4.51216543582712       -0.08701621807229
H           -1.23362165539118        4.51212995111859       -0.08750629128258
H           -2.47063834808235        2.39652217409615       -0.02065769486748
H           -3.04907295076917       -0.68657239749048        2.07647415778557
H           -5.51127666467501       -0.68391970873894        2.08850006033923
H           -7.56347480779309        0.12169762424587        1.06240151314215
H           -7.55354926135218       -1.07526979390305       -0.24805557612699
H           -7.44762093685236        1.69559173106140       -0.69722365712875
H           -5.53292937709096        0.53174363146902       -1.99786525862005
H           -3.06473780797158        0.54645363602415       -2.00728418075037
H           -2.47101456992898       -2.53211765527075        0.07928851407802
H           -1.23383519193044       -4.64697963012565        0.14409850325125
H            1.23376165074254       -4.64702054632911        0.14350066825478
H            2.47099778841939       -2.53218962571900        0.07850905610455
H            3.06413176434995        0.54889383830815       -2.00664067372143
H            5.53237722530648        0.53341446387479       -1.99819220703878

          :  Hamiltonian                  GFN2-xTB          :
         :: gradient norm              0.000036705614 Eh/a0 ::
         :: HOMO-LUMO gap              2.132651874626 eV    ::
         :: SCC energy               -80.677257830749 Eh    ::
         :: -> dispersion             -0.066240499850 Eh    ::
         :: repulsion energy           1.387178078435 Eh    ::

    * Orbital Energies and Occupations

         #    Occupation            Energy/Eh            Energy/eV
      -------------------------------------------------------------
         1        2.0000           -0.6907275             -18.7957
       ...           ...                  ...                  ...
        61        2.0000           -0.4245628             -11.5529
        62        2.0000           -0.4236814             -11.5290
        63        2.0000           -0.4188454             -11.3974
        64        2.0000           -0.4173445             -11.3565
        65        2.0000           -0.4129712             -11.2375
        66        2.0000           -0.4094537             -11.1418
        67        2.0000           -0.4094311             -11.1412
        68        2.0000           -0.4056567             -11.0385
        69        2.0000           -0.4021364             -10.9427
        70        2.0000           -0.3995666             -10.8728
        71        2.0000           -0.3959131             -10.7733
        72        2.0000           -0.3933282             -10.7030
        73        2.0000           -0.3587031              -9.7608 (HOMO)
        74                         -0.2803296              -7.6282 (LUMO)
        75                         -0.2317275              -6.3056
        76                         -0.2279084              -6.2017
        77                         -0.2274563              -6.1894
        78                         -0.2268810              -6.1737
        79                         -0.2263353              -6.1589
        80                         -0.2204738              -5.9994
        81                         -0.1757075              -4.7812
        82                         -0.1726232              -4.6973
        83                         -0.1004956              -2.7346
        84                         -0.0991359              -2.6976
       ...                                ...                  ...
       142                          0.7152387              19.4626
      -------------------------------------------------------------
                  HL-Gap            0.0783735 Eh            2.1327 eV

     #   Z          covCN         q      C6AA      α(0)
     1   8 O        1.655    -0.437    21.577     6.271
     2   6 C        3.679     0.078    19.480     6.322
     3   6 C        2.968    -0.009    28.245     8.718
     4   6 C        2.922    -0.041    29.022     8.834
     5   6 C        2.924    -0.032    28.808     8.802
     6   6 C        2.977     0.014    27.704     8.634
     7   6 C        2.977    -0.006    28.175     8.707
     8   6 C        2.984     0.006    27.879     8.661
     9   6 C        2.917    -0.035    28.862     8.810
    10   6 C        2.914    -0.030    28.760     8.794
    11   6 C        2.914    -0.030    28.760     8.794
    12   6 C        2.917    -0.035    28.862     8.810
    13   6 C        2.984     0.006    27.879     8.661
    14   6 C        2.977    -0.006    28.175     8.707
    15   6 C        2.977     0.014    27.704     8.634
    16   6 C        2.924    -0.032    28.808     8.802
    17   6 C        2.922    -0.041    29.022     8.834
    18   6 C        2.968    -0.009    28.245     8.717
    19   6 C        3.679     0.078    19.480     6.322
    20   8 O        1.655    -0.437    21.577     6.271
    21   6 C        2.922    -0.036    28.889     8.814
    22   6 C        2.923    -0.034    28.836     8.806
    23   6 C        2.984     0.006    27.872     8.660
    24   6 C        2.917    -0.035    28.863     8.810
    25   6 C        2.914    -0.030    28.748     8.792
    26   6 C        2.914    -0.030    28.748     8.792
    27   6 C        2.917    -0.035    28.863     8.810
    28   6 C        2.984     0.006    27.872     8.660
    29   6 C        2.923    -0.034    28.836     8.806
    30   6 C        2.922    -0.036    28.889     8.814
    31   1 H        0.805     0.287     0.761     1.371
    32   1 H        0.924     0.056     2.251     2.346
    33   1 H        0.923     0.022     2.707     2.573
    34   1 H        0.926     0.028     2.619     2.531
    35   1 H        0.926     0.032     2.558     2.501
    36   1 H        0.926     0.030     2.586     2.515
    37   1 H        0.926     0.028     2.614     2.528
    38   1 H        0.926     0.028     2.614     2.528
    39   1 H        0.926     0.030     2.586     2.515
    40   1 H        0.926     0.032     2.558     2.501
    41   1 H        0.926     0.028     2.619     2.531
    42   1 H        0.923     0.022     2.706     2.573
    43   1 H        0.924     0.056     2.251     2.346
    44   1 H        0.805     0.287     0.761     1.370
    45   1 H        0.926     0.045     2.382     2.413
    46   1 H        0.926     0.033     2.550     2.497
    47   1 H        0.926     0.032     2.563     2.504
    48   1 H        0.926     0.029     2.600     2.522
    49   1 H        0.926     0.029     2.600     2.522
    50   1 H        0.926     0.032     2.563     2.504
    51   1 H        0.926     0.033     2.550     2.497
    52   1 H        0.926     0.045     2.382     2.413

molecular dipole:
                 x           y           z       tot (Debye)
 q only:       -0.000       0.273       0.587
   full:       -0.000       0.446       0.898       2.549

 projected vibrational frequencies (cm⁻¹)
eigval :       -0.00    -0.00    -0.00     0.00     0.00     0.00
eigval :       16.83    25.58    25.64    36.76    40.81    55.88
eigval :       57.81    66.28    75.96   107.59   133.77   138.62
eigval :      159.17   162.33   189.66   193.24   212.21   232.81
eigval :      266.63   295.37   306.91   341.77   360.13   368.87
eigval :      371.08   373.15   384.79   396.09   406.32   436.86
eigval :      441.57   448.32   451.38   458.86   495.36   500.67
eigval :      572.62   580.07   584.86   586.36   590.44   602.16
eigval :      618.72   637.44   656.83   681.10   688.61   692.93
eigval :      708.79   740.48   774.13   775.99   792.54   802.46
eigval :      812.17   820.64   873.74   875.07   879.91   881.13
eigval :      898.35   915.85   917.86   918.86   920.85   924.67
eigval :      927.10   927.27   928.51   932.38   932.84   932.87
eigval :      949.48   950.15  1017.43  1024.24  1079.97  1080.15
eigval :     1081.54  1082.38  1135.18  1138.22  1138.42  1145.19
eigval :     1151.86  1152.52  1181.42  1184.52  1192.22  1193.30
eigval :     1206.38  1206.66  1228.86  1233.44  1242.18  1259.53
eigval :     1262.48  1266.31  1268.42  1295.38  1295.39  1319.70
eigval :     1320.17  1328.17  1341.03  1341.37  1350.38  1375.70
eigval :     1384.92  1405.31  1405.40  1419.53  1429.74  1444.86
eigval :     1460.73  1461.20  1474.67  1498.73  1501.74  1527.28
eigval :     1530.89  1543.04  1572.31  1572.90  1604.70  1604.79
eigval :     1608.83  1623.12  2859.62  2859.70  2941.14  2941.25
eigval :     3069.22  3069.34  3072.88  3074.02  3076.87  3076.92
eigval :     3079.51  3080.52  3083.25  3083.63  3087.98  3088.21
eigval :     3089.27  3090.47  3093.45  3094.83  3545.42  3545.46

   temp. (K)  partition function   enthalpy   heat capacity  entropy
                                   cal/mol     cal/K/mol   cal/K/mol   J/K/mol
 298.15  VIB  0.110E+12            14410.953     90.263     89.404
         ROT  0.205E+08              888.752      2.981     36.443
         INT  0.227E+19            15299.706     93.244    125.847
         TR   0.747E+28             1481.254      4.968     43.759
         TOT                       16780.9596    98.2121   169.6052   709.6282

       T/K    H(0)-H(T)+PV         H(T)/Eh          T*S/Eh         G(T)/Eh
   ------------------------------------------------------------------------
    298.15    0.267422E-01    0.433256E+00    0.805849E-01    0.352671E+00
   ------------------------------------------------------------------------

         :::::::::::::::::::::::::::::::::::::::::::::::::::::
         ::                  THERMODYNAMIC                  ::
         :::::::::::::::::::::::::::::::::::::::::::::::::::::
         :: total free energy         -78.937408309771 Eh   ::
         ::.................................................::
         :: total energy              -79.290079752317 Eh   ::
         :: zero point energy           0.406514186136 Eh   ::
         :: G(RRHO) w/o ZPVE           -0.053842743589 Eh   ::
         :: G(RRHO) contrib.            0.352671442546 Eh   ::
         :::::::::::::::::::::::::::::::::::::::::::::::::::::

           -------------------------------------------------
          | TOTAL ENERGY              -79.290079752317 Eh   |
          | TOTAL ENTHALPY            -78.856823404785 Eh   |
          | TOTAL FREE ENERGY         -78.937408309771 Eh   |
          | GRADIENT NORM               0.000036722054 Eh/α |
          | HOMO-LUMO GAP               2.132651911041 eV   |
           -------------------------------------------------

 * finished run on 2025/07/18 at 18:10:48.641
