   * xtb version 6.7.1 (edcfbbe) compiled by 'albert@albert-system' on 2024-07-22

   ID    Z sym.   atoms
    1    8 O      1, 20
    2    6 C      2-19, 21-30
    3    1 H      31-52

          program call               : xtb data2507/gas/p-DHMPA/p-DHMPA_gas_S0_finalOpt.xtbopt.xyz --gfn 2 --spinpol --tblite --uhf 2 --ohess vtight --parallel 40 --molden --ceasefiles --namespace data2507/gas/p-DHMPA/p-DHMPA_gas_T1_preOpt
 * total energy  :   -79.2173158 Eh     change       -0.5464003E-08 Eh
 * total energy  :   -79.2238125 Eh     change       -0.6496720E-02 Eh
 * total energy  :   -79.2252501 Eh     change       -0.1437559E-02 Eh
 * total energy  :   -79.2253629 Eh     change       -0.1128177E-03 Eh
 * total energy  :   -79.2254654 Eh     change       -0.1025041E-03 Eh
 * total energy  :   -79.2255273 Eh     change       -0.6190165E-04 Eh
 * total energy  :   -79.2256055 Eh     change       -0.7814202E-04 Eh
 * total energy  :   -79.2257162 Eh     change       -0.1107670E-03 Eh
 * total energy  :   -79.2258300 Eh     change       -0.1137489E-03 Eh
 * total energy  :   -79.2259118 Eh     change       -0.8177303E-04 Eh
 * total energy  :   -79.2264586 Eh     change       -0.9428986E-05 Eh
 * total energy  :   -79.2264621 Eh     change       -0.3575429E-05 Eh
 * total energy  :   -79.2264632 Eh     change       -0.1022063E-05 Eh
 * total energy  :   -79.2264639 Eh     change       -0.7056701E-06 Eh
 * total energy  :   -79.2264643 Eh     change       -0.4765529E-06 Eh
 * total energy  :   -79.2264653 Eh     change       -0.9996230E-06 Eh
 * total energy  :   -79.2264658 Eh     change       -0.4177395E-06 Eh
 * total energy  :   -79.2264660 Eh     change       -0.2291926E-06 Eh
 * total energy  :   -79.2264661 Eh     change       -0.9065171E-07 Eh
   *** GEOMETRY OPTIMIZATION CONVERGED AFTER 38 ITERATIONS ***

 final structure:
================
52
 xtb: 6.7.1 (edcfbbe)
O            7.77463330429851       -0.18811877217845       -1.16431458919757
C            7.19952455488165       -0.02000561700925        0.10911625286090
C            5.69123351044502       -0.00937087621008        0.10576711520938
C            4.98639372694530        0.65476267870042        1.10335440916039
C            3.60670918164735        0.66080605639996        1.10508635561127
C            2.88575480652930       -0.00463431753792        0.10963354996402
C            1.42340400300403       -0.00195452146387        0.11209685539764
C            0.71409354833482        1.23981866856148        0.08740317908432
C            1.37861896274681        2.46360451957547       -0.01041691367301
C            0.68694192692332        3.67406854442169        0.04034380816271
C           -0.68050865596899        3.67493948745546        0.19466525101103
C           -1.37424039568009        2.46548420455627        0.24135890043204
C           -0.71146881262658        1.24107681731564        0.13985832076032
C           -1.42307245615722        0.00053761102504        0.11195228495401
C           -2.88542206943231        0.00324144617262        0.10930585936121
C           -3.60652450792417       -0.66234257514339        1.10455462500264
C           -4.98620896226809       -0.65620243281485        1.10268025229925
C           -5.69090058178404        0.00817465493763        0.10515045969651
C           -7.19919136790701        0.01894174540955        0.10837054107432
O           -7.77418074382179        0.18739832298727       -1.16507132923756
C           -4.98049000173860        0.67032923702973       -0.88884062132294
C           -3.60025095759977        0.67228436529113       -0.88679492686014
C           -0.71375973299583       -1.24123105037066        0.08712039218682
C           -1.37827705190507       -2.46500062163414       -0.01096733584041
C           -0.68660228932825       -3.67547477818588        0.03963846344265
C            0.68083747817692       -3.67637216003904        0.19406867423323
C            1.37456515500336       -2.46692301020660        0.24103622489326
C            0.71179884790939       -1.24249782254228        0.13970576504147
C            3.60073116719642       -0.67346197361030       -0.88650560265233
C            4.98097081956368       -0.67140385978449       -0.88841095812543
H            7.44886513054204        0.50947232992642       -1.74409368568170
H            7.55785182560781       -0.87042885573491        0.70025610958263
H            7.57296061251285        0.90023686839530        0.58451701936113
H            5.52684398674776        1.16736682414376        1.88679117448325
H            3.07034814141787        1.16380668606666        1.89668557853706
H            2.45095259831875        2.47764707379216       -0.13157494643917
H            1.23372461901023        4.60255937990663       -0.02987760347590
H           -1.22588308299334        4.60391174111938        0.26809346721904
H           -2.44641003515692        2.48117247805957        0.36303613162970
H           -3.07028134568776       -1.16552891134190        1.89611602108257
H           -5.52677691045660       -1.16892469577741        1.88595973894156
H           -7.55748126806818        0.86927151393687        0.69967234465075
H           -7.57275311418712       -0.90137178669959        0.58354116028400
H           -7.44844739754504       -0.51010399059663       -1.74498294737653
H           -5.52238846237719        1.18938275488758       -1.66643087288304
H           -3.06062899383394        1.17514739032063       -1.67630717658515
H           -2.45060027109605       -2.47902168721106       -0.13222008739888
H           -1.23337856982645       -4.60395372818913       -0.03079042678665
H            1.22620603225597       -4.60535739082591        0.26737877953329
H            2.44672526594817       -2.48263027933315        0.36279639446097
H            3.06122763872613       -1.17619389725316       -1.67617990653325
H            5.52298635539432       -1.19026257238174       -1.66604787088686

 projected vibrational frequencies (cm⁻¹)
eigval :       -0.00    -0.00     0.00     0.00     0.00     0.00
eigval :       14.17    26.44    31.71    46.24    48.96    52.67
eigval :       62.40    72.79    80.73   127.25   136.46   138.18
eigval :      162.73   171.58   184.58   192.98   220.61   237.47
eigval :      258.75   300.00   314.07   339.42   355.19   365.54
eigval :      368.76   374.33   375.57   389.60   401.71   401.79
eigval :      417.56   434.98   459.31   470.32   480.69   508.34
eigval :      563.57   564.14   575.14   580.42   592.86   596.59
eigval :      610.22   621.39   649.16   671.81   675.28   687.45
eigval :      707.22   715.85   746.48   759.28   793.38   798.93
eigval :      813.96   816.15   842.55   844.61   875.47   881.75
eigval :      887.51   891.54   894.15   904.94   905.34   922.68
eigval :      923.84   924.77   925.87   935.55   935.57   944.79
eigval :      948.27   948.59  1014.53  1020.14  1080.78  1081.06
eigval :     1100.21  1103.39  1111.98  1125.71  1140.10  1140.25
eigval :     1151.51  1151.65  1181.16  1182.03  1182.47  1188.35
eigval :     1192.64  1193.07  1227.31  1228.97  1230.91  1253.26
eigval :     1254.14  1267.07  1267.45  1291.28  1293.24  1296.92
eigval :     1302.69  1319.96  1321.24  1341.56  1342.00  1342.05
eigval :     1367.23  1375.63  1378.03  1404.28  1405.88  1407.65
eigval :     1428.89  1459.20  1459.55  1469.84  1478.21  1481.89
eigval :     1486.08  1516.13  1531.48  1554.55  1554.65  1561.45
eigval :     1590.31  1591.14  2857.99  2858.04  2938.81  2938.87
eigval :     3068.30  3068.43  3076.07  3076.20  3077.17  3077.38
eigval :     3083.68  3083.89  3085.90  3086.15  3086.93  3087.11
eigval :     3095.28  3095.87  3099.44  3099.72  3546.02  3546.09

   temp. (K)  partition function   enthalpy   heat capacity  entropy
                                   cal/mol     cal/K/mol   cal/K/mol   J/K/mol
 298.15  VIB  0.572E+11            14457.072     91.777     89.362
         ROT  0.104E+08              888.752      2.981     35.084
         INT  0.593E+18            15345.824     94.758    124.445
         TR   0.747E+28             1481.254      4.968     43.759
         TOT                       16827.0784    99.7261   168.2039   703.7652

       T/K    H(0)-H(T)+PV         H(T)/Eh          T*S/Eh         G(T)/Eh
   ------------------------------------------------------------------------
    298.15    0.268157E-01    0.430866E+00    0.799191E-01    0.350947E+00
   ------------------------------------------------------------------------

         :::::::::::::::::::::::::::::::::::::::::::::::::::::
         ::                  THERMODYNAMIC                  ::
         :::::::::::::::::::::::::::::::::::::::::::::::::::::
         :: total free energy         -78.875519471286 Eh   ::
         ::.................................................::
         :: total energy              -79.226466084931 Eh   ::
         :: zero point energy           0.404050064791 Eh   ::
         :: G(RRHO) w/o ZPVE           -0.053103451146 Eh   ::
         :: G(RRHO) contrib.            0.350946613645 Eh   ::
         :::::::::::::::::::::::::::::::::::::::::::::::::::::

           -------------------------------------------------
          | TOTAL ENERGY              -79.226466084931 Eh   |
          | TOTAL ENTHALPY            -78.795600363859 Eh   |
          | TOTAL FREE ENERGY         -78.875519471286 Eh   |
          | GRADIENT NORM               0.000080183461 Eh/α |
           -------------------------------------------------

 * finished run on 2025/07/18 at 18:12:36.657
