   * xtb version 6.7.1 (edcfbbe) compiled by 'albert@albert-system' on 2024-07-22

   ID    Z sym.   atoms
    1    8 O      1, 20
    2    6 C      2-19, 21-30
    3    1 H      31-52

          program call               : xtb data2507/gas/p-DHMPA/p-DHMPA_gas_S0_crest.xyz --gfn 2 --ohess vtight --parallel 40 --molden --ceasefiles --namespace data2507/gas/p-DHMPA/p-DHMPA_gas_S0_finalOpt
          :  Hamiltonian                  GFN2-xTB          :
 * total energy  :   -79.2901678 Eh     change       -0.2193872E-09 Eh
 * total energy  :   -79.2901687 Eh     change       -0.8895083E-06 Eh
 * total energy  :   -79.2901694 Eh     change       -0.6573749E-06 Eh
 * total energy  :   -79.2901709 Eh     change       -0.1521988E-05 Eh
 * total energy  :   -79.2901725 Eh     change       -0.1615496E-05 Eh
 * total energy  :   -79.2901736 Eh     change       -0.1099743E-05 Eh
 * total energy  :   -79.2901745 Eh     change       -0.8751137E-06 Eh
 * total energy  :   -79.2901754 Eh     change       -0.9123910E-06 Eh
 * total energy  :   -79.2901762 Eh     change       -0.8634931E-06 Eh
 * total energy  :   -79.2901768 Eh     change       -0.5156724E-06 Eh
 * total energy  :   -79.2901781 Eh     change       -0.4446786E-06 Eh
 * total energy  :   -79.2901785 Eh     change       -0.4456369E-06 Eh
 * total energy  :   -79.2901789 Eh     change       -0.3542767E-06 Eh
 * total energy  :   -79.2901791 Eh     change       -0.2297620E-06 Eh
 * total energy  :   -79.2901793 Eh     change       -0.1393749E-06 Eh
 * total energy  :   -79.2901794 Eh     change       -0.1367210E-06 Eh
 * total energy  :   -79.2901796 Eh     change       -0.1593336E-06 Eh
 * total energy  :   -79.2901798 Eh     change       -0.2128020E-06 Eh
 * total energy  :   -79.2901798 Eh     change       -0.1764292E-08 Eh
   *** GEOMETRY OPTIMIZATION CONVERGED AFTER 22 ITERATIONS ***

 final structure:
================
52
 xtb: 6.7.1 (edcfbbe)
O            7.75858926224766        0.06920502077764       -1.20752150157712
C            7.19438703742073       -0.05755319407599        0.07559124056476
C            5.68541086319795       -0.04185595691049        0.08711145237347
C            4.99272402402855        0.38455413809064        1.21331362027089
C            3.61104620847126        0.39198796162694        1.22646798154308
C            2.89050846770048       -0.02579224118520        0.11132548011190
C            1.41236738815071       -0.01337510949801        0.12128386141136
C            0.72463929254191        1.20831847355500        0.11670902717100
C            1.40956910758153        2.45155954424748        0.08071509261850
C            0.73246563238694        3.63159759544174        0.09856800989025
C           -0.67546460942790        3.64249196378124        0.15775873356534
C           -1.37084863979471        2.47306728092404        0.17087936315035
C           -0.70491812567071        1.21964665576275        0.13101005526599
C           -1.41193993067593        0.00906078119333        0.12100374273542
C           -2.89007959916748        0.02206329609158        0.11055509410108
C           -3.61137165180211       -0.39436365276860        1.22569336931576
C           -4.99304857553481       -0.38449322647147        1.21245703638269
C           -5.68493737771780        0.04306584598193        0.08620348765874
C           -7.19386265239709        0.06273664028706        0.07509376228845
O           -7.75884436676694       -0.06336023355607       -1.20773755407046
C           -4.96666886435451        0.46111683164821       -1.02632876773990
C           -3.58459992076987        0.45094388139462       -1.01568152522375
C           -0.72423230384861       -1.21260684122915        0.11638398038701
C           -1.40922544789786       -2.45580489780973        0.08029357224539
C           -0.73215012000619       -3.63586370968627        0.09790368240519
C            0.67579525828607       -3.64679415901838        0.15694612049675
C            1.37122994506747       -2.47739952254498        0.17041630647150
C            0.70534050939406       -1.22394834447070        0.13086848365380
C            3.58582513854544       -0.45428711088883       -1.01455804482273
C            4.96792257560567       -0.46199670715472       -1.02512870075810
H            7.43162622227414        0.88215780717057       -1.60896661529550
H            7.55294534607622       -1.02185530757287        0.45283602582368
H            7.57567280683592        0.72834666084427        0.74575576805500
H            5.54107135785922        0.71185120298476        2.08543817337704
H            3.07887647835815        0.72172513515161        2.10720915161206
H            2.48862560864600        2.44367008140178        0.03696181128154
H            1.26821561877034        4.56922953222990        0.07125088705635
H           -1.19659350796902        4.58809045924783        0.18913456353582
H           -2.44978960092140        2.48187365539396        0.21545580617191
H           -3.07983815210158       -0.72465159340935        2.10661064481087
H           -5.54201866929505       -0.71044174917569        2.08469350944377
H           -7.54957931769602        1.02833017474164        0.45173856848723
H           -7.57714784948294       -0.72157175320555        0.74598250651768
H           -7.43357084240113       -0.87704436627949       -1.60906411694824
H           -5.50113742552862        0.80027737741006       -1.90199798780862
H           -3.03346228606540        0.77421159681998       -1.88710142131799
H           -2.48829230937225       -2.44780861752481        0.03668442327929
H           -1.26791732053698       -4.57348481716843        0.07049608721374
H            1.19689420782014       -4.59242129556308        0.18802007464207
H            2.45017386206136       -2.48623708081195        0.21503087535346
H            3.03532564783233       -0.77888961158466       -1.88588296284168
H            5.50306104654184       -0.80061017723491       -1.90059860323785

          :  Hamiltonian                  GFN2-xTB          :
         :: gradient norm              0.000031210280 Eh/a0 ::
         :: HOMO-LUMO gap              2.129596884446 eV    ::
         :: SCC energy               -80.677241949789 Eh    ::
         :: -> dispersion             -0.066264622084 Eh    ::
         :: repulsion energy           1.387062178620 Eh    ::

    * Orbital Energies and Occupations

         #    Occupation            Energy/Eh            Energy/eV
      -------------------------------------------------------------
         1        2.0000           -0.6907172             -18.7954
       ...           ...                  ...                  ...
        61        2.0000           -0.4255313             -11.5793
        62        2.0000           -0.4224227             -11.4947
        63        2.0000           -0.4195022             -11.4152
        64        2.0000           -0.4151580             -11.2970
        65        2.0000           -0.4146411             -11.2830
        66        2.0000           -0.4099153             -11.1544
        67        2.0000           -0.4088498             -11.1254
        68        2.0000           -0.4067327             -11.0678
        69        2.0000           -0.4009514             -10.9104
        70        2.0000           -0.3992989             -10.8655
        71        2.0000           -0.3963251             -10.7846
        72        2.0000           -0.3924769             -10.6798
        73        2.0000           -0.3584866              -9.7549 (HOMO)
        74                         -0.2802254              -7.6253 (LUMO)
        75                         -0.2315865              -6.3018
        76                         -0.2277369              -6.1970
        77                         -0.2276948              -6.1959
        78                         -0.2267048              -6.1690
        79                         -0.2262449              -6.1564
        80                         -0.2202004              -5.9920
        81                         -0.1755534              -4.7771
        82                         -0.1722751              -4.6878
        83                         -0.1001143              -2.7242
        84                         -0.0989536              -2.6927
       ...                                ...                  ...
       142                          0.7154832              19.4693
      -------------------------------------------------------------
                  HL-Gap            0.0782612 Eh            2.1296 eV

     #   Z          covCN         q      C6AA      α(0)
     1   8 O        1.655    -0.437    21.578     6.271
     2   6 C        3.679     0.078    19.479     6.322
     3   6 C        2.968    -0.009    28.243     8.717
     4   6 C        2.922    -0.041    29.023     8.835
     5   6 C        2.923    -0.032    28.805     8.801
     6   6 C        2.977     0.014    27.706     8.634
     7   6 C        2.977    -0.007    28.180     8.708
     8   6 C        2.984     0.006    27.880     8.661
     9   6 C        2.917    -0.035    28.870     8.811
    10   6 C        2.914    -0.030    28.756     8.793
    11   6 C        2.914    -0.030    28.754     8.793
    12   6 C        2.917    -0.035    28.861     8.810
    13   6 C        2.984     0.006    27.876     8.661
    14   6 C        2.977    -0.007    28.180     8.708
    15   6 C        2.977     0.014    27.706     8.634
    16   6 C        2.923    -0.032    28.805     8.801
    17   6 C        2.922    -0.041    29.023     8.835
    18   6 C        2.968    -0.009    28.244     8.717
    19   6 C        3.679     0.078    19.479     6.322
    20   8 O        1.655    -0.437    21.578     6.271
    21   6 C        2.922    -0.036    28.892     8.815
    22   6 C        2.923    -0.034    28.836     8.806
    23   6 C        2.984     0.006    27.880     8.661
    24   6 C        2.917    -0.035    28.870     8.811
    25   6 C        2.914    -0.030    28.756     8.793
    26   6 C        2.914    -0.030    28.754     8.793
    27   6 C        2.917    -0.035    28.861     8.810
    28   6 C        2.984     0.006    27.876     8.661
    29   6 C        2.923    -0.034    28.837     8.806
    30   6 C        2.922    -0.036    28.892     8.815
    31   1 H        0.805     0.287     0.761     1.370
    32   1 H        0.924     0.056     2.251     2.346
    33   1 H        0.923     0.022     2.705     2.572
    34   1 H        0.926     0.028     2.619     2.531
    35   1 H        0.926     0.032     2.553     2.499
    36   1 H        0.926     0.030     2.585     2.514
    37   1 H        0.926     0.028     2.612     2.527
    38   1 H        0.926     0.029     2.600     2.522
    39   1 H        0.926     0.032     2.558     2.501
    40   1 H        0.926     0.032     2.553     2.499
    41   1 H        0.926     0.028     2.619     2.531
    42   1 H        0.924     0.056     2.251     2.346
    43   1 H        0.923     0.022     2.705     2.572
    44   1 H        0.805     0.287     0.761     1.370
    45   1 H        0.926     0.045     2.384     2.415
    46   1 H        0.926     0.032     2.553     2.498
    47   1 H        0.926     0.030     2.585     2.514
    48   1 H        0.926     0.028     2.612     2.527
    49   1 H        0.926     0.029     2.600     2.522
    50   1 H        0.926     0.032     2.558     2.501
    51   1 H        0.926     0.032     2.552     2.498
    52   1 H        0.926     0.045     2.384     2.415

molecular dipole:
                 x           y           z       tot (Debye)
 q only:       -0.000      -0.001       0.280
   full:       -0.001      -0.000       0.421       1.071

 projected vibrational frequencies (cm⁻¹)
eigval :       -0.00    -0.00    -0.00    -0.00    -0.00     0.00
eigval :       16.93    24.60    27.01    38.03    42.51    57.40
eigval :       61.37    61.90    76.24   111.53   135.24   138.65
eigval :      161.07   167.44   186.53   193.97   213.15   228.46
eigval :      258.47   303.18   311.19   341.18   361.71   369.49
eigval :      370.86   376.36   384.51   396.23   407.42   427.38
eigval :      437.81   447.26   458.91   467.62   479.92   510.94
eigval :      568.50   580.00   585.00   590.10   596.47   597.27
eigval :      616.87   638.62   657.23   677.20   692.33   693.34
eigval :      706.81   740.52   774.44   776.12   795.58   798.84
eigval :      814.23   819.02   874.27   874.62   880.10   881.57
eigval :      898.42   916.16   917.75   919.21   921.67   925.13
eigval :      927.31   927.65   928.24   932.55   933.10   933.17
eigval :      949.57   949.97  1017.42  1024.24  1080.09  1080.40
eigval :     1081.65  1082.41  1135.10  1138.45  1138.61  1145.27
eigval :     1152.15  1152.75  1181.37  1184.46  1192.30  1193.36
eigval :     1206.45  1206.83  1228.79  1233.45  1242.13  1259.49
eigval :     1262.35  1266.60  1268.56  1294.98  1295.53  1319.87
eigval :     1320.23  1328.08  1340.99  1341.35  1350.24  1375.64
eigval :     1384.79  1404.67  1405.88  1419.43  1429.58  1444.72
eigval :     1460.47  1461.07  1474.77  1498.66  1501.66  1527.15
eigval :     1530.74  1542.87  1572.38  1572.71  1604.68  1604.79
eigval :     1608.73  1622.98  2859.13  2859.18  2940.90  2940.94
eigval :     3069.30  3069.41  3073.51  3073.53  3076.59  3076.68
eigval :     3080.15  3080.29  3083.49  3083.74  3087.83  3087.97
eigval :     3089.74  3090.16  3093.93  3094.87  3544.60  3544.65

   temp. (K)  partition function   enthalpy   heat capacity  entropy
                                   cal/mol     cal/K/mol   cal/K/mol   J/K/mol
 298.15  VIB  0.942E+11            14392.718     90.339     89.251
         ROT  0.103E+08              888.752      2.981     35.068
         INT  0.969E+18            15281.470     93.320    124.319
         TR   0.747E+28             1481.254      4.968     43.759
         TOT                       16762.7244    98.2880   168.0775   703.2362

       T/K    H(0)-H(T)+PV         H(T)/Eh          T*S/Eh         G(T)/Eh
   ------------------------------------------------------------------------
    298.15    0.267131E-01    0.433267E+00    0.798590E-01    0.353408E+00
   ------------------------------------------------------------------------

         :::::::::::::::::::::::::::::::::::::::::::::::::::::
         ::                  THERMODYNAMIC                  ::
         :::::::::::::::::::::::::::::::::::::::::::::::::::::
         :: total free energy         -78.936772257284 Eh   ::
         ::.................................................::
         :: total energy              -79.290179771169 Eh   ::
         :: zero point energy           0.406553446012 Eh   ::
         :: G(RRHO) w/o ZPVE           -0.053145932127 Eh   ::
         :: G(RRHO) contrib.            0.353407513885 Eh   ::
         :::::::::::::::::::::::::::::::::::::::::::::::::::::

           -------------------------------------------------
          | TOTAL ENERGY              -79.290179771169 Eh   |
          | TOTAL ENTHALPY            -78.856913223456 Eh   |
          | TOTAL FREE ENERGY         -78.936772257284 Eh   |
          | GRADIENT NORM               0.000031202206 Eh/α |
          | HOMO-LUMO GAP               2.129596880003 eV   |
           -------------------------------------------------

 * finished run on 2025/07/18 at 18:12:33.407
