   * xtb version 6.7.1 (edcfbbe) compiled by 'albert@albert-system' on 2024-07-22

   ID    Z sym.   atoms
    1    8 O      1, 20
    2    6 C      2-19, 21-30
    3    1 H      31-52

          program call               : xtb data2507/gas/p-DHMPA/p-DHMPA_gas_T1_crest.xyz --gfn 2 --spinpol --tblite --uhf 2 --ohess vtight --parallel 40 --molden --ceasefiles --namespace data2507/gas/p-DHMPA/p-DHMPA_gas_T1_finalOpt
 * total energy  :   -79.2263780 Eh     change       -0.8542230E-08 Eh
 * total energy  :   -79.2264125 Eh     change       -0.3444023E-04 Eh
 * total energy  :   -79.2264231 Eh     change       -0.1057972E-04 Eh
 * total energy  :   -79.2264289 Eh     change       -0.5876999E-05 Eh
 * total energy  :   -79.2264387 Eh     change       -0.9781670E-05 Eh
 * total energy  :   -79.2264522 Eh     change       -0.1351388E-04 Eh
 * total energy  :   -79.2264598 Eh     change       -0.7591640E-05 Eh
 * total energy  :   -79.2264625 Eh     change       -0.2648748E-05 Eh
 * total energy  :   -79.2264637 Eh     change       -0.1208891E-05 Eh
 * total energy  :   -79.2264645 Eh     change       -0.8072572E-06 Eh
 * total energy  :   -79.2264650 Eh     change        0.1000657E-06 Eh
 * total energy  :   -79.2264653 Eh     change       -0.2654368E-06 Eh
 * total energy  :   -79.2264655 Eh     change       -0.1973629E-06 Eh
 * total energy  :   -79.2264658 Eh     change       -0.3305540E-06 Eh
 * total energy  :   -79.2264662 Eh     change       -0.3752873E-06 Eh
 * total energy  :   -79.2264666 Eh     change       -0.3488044E-06 Eh
 * total energy  :   -79.2264668 Eh     change       -0.2582499E-06 Eh
 * total energy  :   -79.2264670 Eh     change       -0.2004115E-06 Eh
 * total energy  :   -79.2264670 Eh     change       -0.1184333E-08 Eh
   *** GEOMETRY OPTIMIZATION CONVERGED AFTER 22 ITERATIONS ***

 final structure:
================
52
 xtb: 6.7.1 (edcfbbe)
O            7.78841389284625       -1.01915502256719        0.42554307978838
C            7.19676745744176        0.10520619243705       -0.18039097066433
C            5.68902877838481        0.09802575493831       -0.14439476742675
C            5.01024052453383       -0.56565865653204        0.87072986791529
C            3.63065572609635       -0.57542846937752        0.90743733734028
C            2.88448367723929        0.09527261358847       -0.06451982634715
C            1.42295459483528        0.09405749958801       -0.02586868242147
C            0.71313332595606        1.33520034402959        0.01801391037597
C            1.37896432547019        2.55903138986242        0.10558051249925
C            0.68561924318219        3.76906541237711        0.07034141974310
C           -0.68453151480346        3.76932935280077       -0.05849174643843
C           -1.37844871056495        2.55962037328098       -0.09294791623230
C           -0.71317961710489        1.33549998325058       -0.00477208190486
C           -1.42313487643105        0.09452109914255        0.03860815832989
C           -2.88494151974478        0.09510302003657        0.06815161046392
C           -3.58270176066959        0.76859165915685        1.07472992154253
C           -4.96210629804299        0.76178465429912        1.10588204694699
C           -5.68998404046407        0.09901260711258        0.12419233406272
C           -7.19798527617097        0.10795207443423        0.14647865562419
O           -7.78549382557303       -1.01490763723486       -0.46620677184114
C           -5.00291271863051       -0.56524482653868       -0.88497266203227
C           -3.62311721165834       -0.57572406138718       -0.90980575452753
C           -0.71213926836841       -1.14656350946964        0.05150172905873
C           -1.37329318756126       -2.37038776728785        0.16924444788830
C           -0.68259844223528       -3.58069772508994        0.10546990016691
C            0.68058836743550       -3.58128393680032       -0.08282034103856
C            1.37205552446251       -2.37157020645831       -0.14968437757491
C            0.71180068531682       -1.14699666250890       -0.03459323703492
C            3.57411082923777        0.76908712787499       -1.07657170470988
C            4.95313314406623        0.76175378412424       -1.11946301716261
H            7.44884635705552       -1.81363813043095       -0.00154593007912
H            7.57253719942779        0.96606831382121        0.38420801946974
H            7.54010706406449        0.21006665703967       -1.22118226318257
H            5.57743199127134       -1.07151791672954        1.63891082493506
H            3.11633071719660       -1.07989637871435        1.71260822786662
H            2.45329906270589        2.57363343082017        0.20711863074553
H            1.23318548551759        4.69763850653232        0.13203806614368
H           -1.23166011782015        4.69811040246706       -0.12099018835373
H           -2.45274811859560        2.57469481245059       -0.19466506783647
H           -3.02812483727313        1.27234067809587        1.85321679003995
H           -5.48377111397664        1.27583965876114        1.90098146434174
H           -7.56743560243776        0.96995337746807       -0.42056179110473
H           -7.55075632944057        0.21207110360010        1.18418179192328
H           -7.45090614519966       -1.81035517226912       -0.03699111290337
H           -5.56373590604842       -1.07077825303451       -1.65802143746760
H           -3.10203575278292       -1.08086595519305       -1.71019405996472
H           -2.44230057479429       -2.38443651823938        0.31670661249024
H           -1.22683877563802       -4.50928762447182        0.19208259238441
H            1.22427799365201       -4.51038682153403       -0.16740555491504
H            2.44093223268271       -2.38685295573522       -0.29782631957255
H            3.01312389764988        1.27334401214321       -1.85011755321176
H            5.46821221340218        1.27583420686994       -1.91882367323803

 projected vibrational frequencies (cm⁻¹)
eigval :       -0.00    -0.00    -0.00    -0.00    -0.00     0.00
eigval :       13.96    27.60    36.62    37.65    51.00    54.79
eigval :       61.53    72.35    80.55   124.99   137.09   144.79
eigval :      159.24   172.30   175.95   191.64   229.90   245.14
eigval :      256.14   299.67   306.11   338.65   359.23   362.47
eigval :      367.39   370.50   374.68   389.13   402.64   408.73
eigval :      417.29   442.64   451.25   470.84   491.41   497.69
eigval :      560.00   570.83   575.25   582.24   583.98   601.42
eigval :      609.68   621.34   648.07   671.79   678.51   685.94
eigval :      708.86   715.20   746.40   759.24   791.57   801.08
eigval :      812.54   818.83   842.09   844.79   875.08   881.62
eigval :      887.41   891.20   893.99   904.70   905.32   923.21
eigval :      923.28   925.01   925.26   935.53   935.70   943.20
eigval :      947.87   949.90  1014.60  1020.34  1080.09  1080.32
eigval :     1100.39  1103.69  1112.04  1125.60  1139.93  1140.13
eigval :     1151.09  1151.29  1181.07  1181.91  1182.23  1188.23
eigval :     1192.45  1192.90  1227.37  1229.13  1231.07  1253.56
eigval :     1254.02  1266.96  1267.21  1291.21  1293.35  1297.47
eigval :     1302.53  1320.44  1320.51  1341.51  1341.89  1341.95
eigval :     1367.05  1375.57  1377.76  1404.45  1406.05  1407.77
eigval :     1428.77  1458.91  1459.15  1469.56  1477.85  1482.08
eigval :     1485.86  1516.39  1531.48  1554.13  1554.25  1561.30
eigval :     1589.59  1590.47  2859.16  2859.17  2938.52  2938.59
eigval :     3068.23  3068.35  3076.03  3076.16  3076.81  3077.51
eigval :     3083.42  3083.48  3085.32  3086.14  3087.02  3087.13
eigval :     3095.00  3095.85  3098.27  3099.33  3546.60  3546.67

   temp. (K)  partition function   enthalpy   heat capacity  entropy
                                   cal/mol     cal/K/mol   cal/K/mol   J/K/mol
 298.15  VIB  0.558E+11            14456.607     91.759     89.329
         ROT  0.104E+08              888.752      2.981     35.081
         INT  0.577E+18            15345.359     94.740    124.410
         TR   0.747E+28             1481.254      4.968     43.759
         TOT                       16826.6131    99.7079   168.1690   703.6190

       T/K    H(0)-H(T)+PV         H(T)/Eh          T*S/Eh         G(T)/Eh
   ------------------------------------------------------------------------
    298.15    0.268149E-01    0.430851E+00    0.799025E-01    0.350948E+00
   ------------------------------------------------------------------------

         :::::::::::::::::::::::::::::::::::::::::::::::::::::
         ::                  THERMODYNAMIC                  ::
         :::::::::::::::::::::::::::::::::::::::::::::::::::::
         :: total free energy         -78.875519003330 Eh   ::
         ::.................................................::
         :: total energy              -79.226467010306 Eh   ::
         :: zero point energy           0.404035601849 Eh   ::
         :: G(RRHO) w/o ZPVE           -0.053087594873 Eh   ::
         :: G(RRHO) contrib.            0.350948006976 Eh   ::
         :::::::::::::::::::::::::::::::::::::::::::::::::::::

           -------------------------------------------------
          | TOTAL ENERGY              -79.226467010306 Eh   |
          | TOTAL ENTHALPY            -78.795616493631 Eh   |
          | TOTAL FREE ENERGY         -78.875519003330 Eh   |
          | GRADIENT NORM               0.000031764219 Eh/α |
           -------------------------------------------------

 * finished run on 2025/07/18 at 18:14:06.931
