   * xtb version 6.7.1 (edcfbbe) compiled by 'albert@albert-system' on 2024-07-22

   ID    Z sym.   atoms
    1    6 C      1-23, 25-37
    2    7 N      24
    3    1 H      38-60

          program call               : xtb data2507/gas/D6/D6.xyz --gfn 2 --ohess vtight --parallel 40 --molden --ceasefiles --namespace data2507/gas/D6/D6_gas_S0_preOpt
          :  Hamiltonian                  GFN2-xTB          :
 * total energy  :   -91.7739574 Eh     change       -0.9952856E-09 Eh
 * total energy  :   -91.7867090 Eh     change       -0.1275159E-01 Eh
 * total energy  :   -91.7893448 Eh     change       -0.2635832E-02 Eh
 * total energy  :   -91.7897343 Eh     change       -0.3894233E-03 Eh
 * total energy  :   -91.7899849 Eh     change       -0.2506773E-03 Eh
 * total energy  :   -91.7900647 Eh     change       -0.7978576E-04 Eh
 * total energy  :   -91.7901520 Eh     change       -0.8730833E-04 Eh
 * total energy  :   -91.7902211 Eh     change       -0.6906049E-04 Eh
 * total energy  :   -91.7902891 Eh     change       -0.6800221E-04 Eh
 * total energy  :   -91.7903447 Eh     change       -0.5564814E-04 Eh
 * total energy  :   -91.7910044 Eh     change       -0.9563327E-06 Eh
 * total energy  :   -91.7910054 Eh     change       -0.9529177E-06 Eh
 * total energy  :   -91.7910063 Eh     change       -0.9529004E-06 Eh
 * total energy  :   -91.7910073 Eh     change       -0.9461496E-06 Eh
 * total energy  :   -91.7910082 Eh     change       -0.9447871E-06 Eh
 * total energy  :   -91.7910091 Eh     change       -0.9402861E-06 Eh
 * total energy  :   -91.7910101 Eh     change       -0.9440868E-06 Eh
 * total energy  :   -91.7910110 Eh     change       -0.9459713E-06 Eh
 * total energy  :   -91.7910110 Eh     change       -0.6666625E-08 Eh
   *** GEOMETRY OPTIMIZATION CONVERGED AFTER 94 ITERATIONS ***

 final structure:
================
60
 xtb: 6.7.1 (edcfbbe)
C           -2.31562285895754       -2.94252915762272        2.16505582521689
C           -0.98033374242305       -2.82251570718377        1.82639331475280
C           -0.56266606759372       -1.82079963940309        0.95284554926811
C            0.85613561090520       -1.66921735218425        0.60123051123906
C            1.65700768617847       -2.78192389939420        0.33481211946583
C            2.97678287371379       -2.61581016516284       -0.00147831202980
C            3.57262636018092       -1.34855203787105       -0.07859874096007
C            4.96297678146116       -1.18058533644093       -0.45635666754847
C            5.75353814591692       -2.27016498850704       -0.84872023851058
C            7.06962578589005       -2.11756073780456       -1.21288434263786
C            7.64313227322138       -0.85262655175270       -1.20124032430793
C            6.88783141580168        0.23329967012564       -0.82846694756898
C            5.54445400695500        0.10593455352952       -0.44834017627393
C            4.74746338238343        1.26049894168920       -0.07275008696932
C            5.30515710579592        2.54483327022173        0.00009624028187
C            4.54964108807395        3.64745311287227        0.31917798871777
C            3.19242725984069        3.49982387198563        0.57378685224082
C            2.62416511192872        2.24956617593051        0.52632101696057
C            3.37495611416067        1.10607136817017        0.21909251186408
C            2.78030749269052       -0.21919067240136        0.22068653648541
C            1.43273960725487       -0.41446090751704        0.54145251010964
C           -1.51073820416031       -0.95690967299400        0.41615947673586
C           -2.85173259744612       -1.07412551389173        0.76037022637518
N           -3.78932468314475       -0.18408286021539        0.21880581579225
C           -4.98090036007475       -0.52874940322047       -0.38742727462064
C           -5.51501244430241       -1.78451997658478       -0.63866861750252
C           -6.73075062237534       -1.84974717884822       -1.29176607059516
C           -7.40194193576025       -0.69825616022662       -1.69742887335777
C           -6.86345804025795        0.55282913319162       -1.47343096382855
C           -5.64242891110085        0.64432583991752       -0.81839084974251
C           -4.80131023384535        1.74724401597089       -0.44683426197705
C           -4.91435592040344        3.12436147269143       -0.58559475362518
C           -3.90726323791115        3.92492571036576       -0.08536847604653
C           -2.80656139396520        3.36947326391296        0.56338529154022
C           -2.67264377217202        2.00284552062891        0.71460002383587
C           -3.66743815111754        1.19082281814555        0.18854144256081
C           -3.25469146133963       -2.07060532678581        1.64480696577486
H           -2.62819092646972       -3.71490157465514        2.85236585783735
H           -0.25176496719603       -3.49233250611374        2.25787270025435
H            1.22884989078796       -3.77278660222061        0.37173306542273
H            3.55859662031772       -3.50032470756574       -0.20314580924888
H            5.33181419060017       -3.26144432901638       -0.88149530207916
H            7.65228628094416       -2.97640289668221       -1.51184445964188
H            8.67543262845589       -0.72079144330582       -1.49008566411776
H            7.35717887899678        1.20327514410097       -0.84436887886237
H            6.35562991001675        2.69105188912456       -0.19090491816960
H            5.00963693339807        4.62335442767147        0.36879938996279
H            2.58704892261562        4.36119390123079        0.81453004063747
H            1.57022532373683        2.16801227211367        0.73621565020127
H            0.80817157982516        0.43050898890165        0.78061063343738
H           -1.21158782297248       -0.20616226995719       -0.30031540903350
H           -4.99433926318557       -2.68370845929200       -0.34552119147540
H           -7.16894300669394       -2.81576523630697       -1.49555296681573
H           -8.35196259596302       -0.79164599967383       -2.20232365686199
H           -7.37509318196888        1.44479672043887       -1.80245533129134
H           -5.77636401652188        3.55531693485282       -1.07221034928899
H           -3.97383017496399        4.99801625065981       -0.18642253363992
H           -2.04326754228106        4.02254287888457        0.96069210194623
H           -1.82823650731095        1.58285427256078        1.24038141250809
H           -4.29308661816548       -2.14603314908402        1.92956537720423

          :  Hamiltonian                  GFN2-xTB          :
         :: gradient norm              0.000067302487 Eh/a0 ::
         :: HOMO-LUMO gap              2.630496197638 eV    ::
         :: SCC energy               -93.579257027705 Eh    ::
         :: -> dispersion             -0.082243573284 Eh    ::
         :: repulsion energy           1.788245991050 Eh    ::

    * Orbital Energies and Occupations

         #    Occupation            Energy/Eh            Energy/eV
      -------------------------------------------------------------
         1        2.0000           -0.6734837             -18.3264
       ...           ...                  ...                  ...
        74        2.0000           -0.4198213             -11.4239
        75        2.0000           -0.4162537             -11.3268
        76        2.0000           -0.4153521             -11.3023
        77        2.0000           -0.4108249             -11.1791
        78        2.0000           -0.4087295             -11.1221
        79        2.0000           -0.4058531             -11.0438
        80        2.0000           -0.4041009             -10.9961
        81        2.0000           -0.4022800             -10.9466
        82        2.0000           -0.3945001             -10.7349
        83        2.0000           -0.3814405             -10.3795
        84        2.0000           -0.3779135             -10.2835
        85        2.0000           -0.3757233             -10.2240
        86        2.0000           -0.3597901              -9.7904 (HOMO)
        87                         -0.2631211              -7.1599 (LUMO)
        88                         -0.2570823              -6.9956
        89                         -0.2434858              -6.6256
        90                         -0.2410547              -6.5594
        91                         -0.2319528              -6.3118
        92                         -0.2275950              -6.1932
        93                         -0.2190043              -5.9594
        94                         -0.1949270              -5.3042
        95                         -0.1932723              -5.2592
        96                         -0.1883826              -5.1262
        97                         -0.1831447              -4.9836
       ...                                ...                  ...
       171                          0.7490298              20.3821
      -------------------------------------------------------------
                  HL-Gap            0.0966690 Eh            2.6305 eV

     #   Z          covCN         q      C6AA      α(0)
     1   6 C        2.918    -0.029    28.731     8.790
     2   6 C        2.924    -0.039    28.959     8.825
     3   6 C        2.977     0.012    27.743     8.640
     4   6 C        2.976     0.007    27.856     8.657
     5   6 C        2.921    -0.036    28.898     8.816
     6   6 C        2.921    -0.036    28.904     8.816
     7   6 C        2.979     0.005    27.909     8.666
     8   6 C        2.979     0.006    27.875     8.660
     9   6 C        2.923    -0.036    28.887     8.814
    10   6 C        2.917    -0.031    28.781     8.797
    11   6 C        2.917    -0.031    28.780     8.797
    12   6 C        2.923    -0.035    28.883     8.813
    13   6 C        2.979     0.006    27.876     8.661
    14   6 C        2.979     0.006    27.873     8.660
    15   6 C        2.923    -0.035    28.883     8.813
    16   6 C        2.917    -0.031    28.778     8.797
    17   6 C        2.917    -0.031    28.777     8.797
    18   6 C        2.923    -0.035    28.872     8.812
    19   6 C        2.979     0.006    27.880     8.661
    20   6 C        2.978     0.006    27.884     8.662
    21   6 C        2.930    -0.041    29.013     8.833
    22   6 C        2.929    -0.049    29.205     8.863
    23   6 C        2.911     0.064    26.564     8.451
    24   7 N        2.803    -0.044    22.096     6.981
    25   6 C        3.076     0.047    26.869     8.499
    26   6 C        2.910    -0.051    29.266     8.871
    27   6 C        2.924    -0.034    28.837     8.806
    28   6 C        2.920    -0.041    29.021     8.834
    29   6 C        2.913    -0.033    28.820     8.803
    30   6 C        3.068    -0.017    28.369     8.734
    31   6 C        3.068    -0.017    28.366     8.733
    32   6 C        2.913    -0.033    28.817     8.803
    33   6 C        2.920    -0.041    29.023     8.834
    34   6 C        2.924    -0.034    28.838     8.806
    35   6 C        2.910    -0.050    29.248     8.868
    36   6 C        3.076     0.047    26.870     8.499
    37   6 C        2.922    -0.045    29.129     8.851
    38   1 H        0.926     0.035     2.513     2.479
    39   1 H        0.926     0.036     2.506     2.475
    40   1 H        0.926     0.031     2.568     2.506
    41   1 H        0.926     0.034     2.528     2.486
    42   1 H        0.926     0.033     2.547     2.496
    43   1 H        0.926     0.029     2.597     2.520
    44   1 H        0.926     0.029     2.596     2.519
    45   1 H        0.926     0.033     2.541     2.493
    46   1 H        0.926     0.033     2.541     2.493
    47   1 H        0.926     0.030     2.593     2.518
    48   1 H        0.926     0.030     2.591     2.517
    49   1 H        0.926     0.033     2.549     2.497
    50   1 H        0.926     0.035     2.521     2.483
    51   1 H        0.926     0.042     2.428     2.437
    52   1 H        0.926     0.027     2.628     2.535
    53   1 H        0.926     0.028     2.612     2.527
    54   1 H        0.926     0.027     2.626     2.534
    55   1 H        0.926     0.030     2.583     2.513
    56   1 H        0.926     0.030     2.582     2.513
    57   1 H        0.926     0.027     2.627     2.534
    58   1 H        0.926     0.027     2.623     2.532
    59   1 H        0.926     0.024     2.671     2.556
    60   1 H        0.926     0.040     2.450     2.448

molecular dipole:
                 x           y           z       tot (Debye)
 q only:        0.459      -0.296       0.169
   full:        0.500      -0.353       0.200       1.637

 projected vibrational frequencies (cm⁻¹)
eigval :       -0.00    -0.00     0.00     0.00     0.00     0.00
eigval :        8.82    15.91    18.76    27.82    39.54    60.14
eigval :       63.06    74.97    98.66   105.38   118.10   143.77
eigval :      149.60   202.96   210.18   216.96   235.75   247.98
eigval :      268.66   272.00   280.36   313.96   316.48   358.44
eigval :      380.56   391.93   394.96   396.61   398.84   408.71
eigval :      423.44   435.23   440.47   449.63   468.33   515.04
eigval :      517.32   522.63   527.85   540.46   541.23   556.86
eigval :      582.79   586.95   588.26   597.50   602.08   614.40
eigval :      639.18   670.92   674.02   676.57   677.64   688.13
eigval :      703.32   708.49   738.26   748.89   757.96   759.26
eigval :      765.88   769.14   779.01   780.51   797.47   822.27
eigval :      842.46   846.49   860.47   863.84   868.38   872.01
eigval :      894.04   897.49   900.38   903.68   905.07   908.06
eigval :      908.51   914.94   921.98   922.98   923.76   925.55
eigval :      932.21   940.89   977.95  1001.30  1012.31  1020.33
eigval :     1033.23  1070.19  1073.88  1095.92  1099.67  1118.44
eigval :     1127.40  1129.09  1145.72  1152.09  1155.18  1171.84
eigval :     1175.67  1181.53  1182.50  1184.42  1192.32  1203.38
eigval :     1236.69  1236.96  1246.68  1257.68  1263.49  1266.02
eigval :     1271.45  1291.31  1301.62  1305.24  1313.30  1318.44
eigval :     1319.35  1336.92  1341.61  1355.07  1359.68  1361.65
eigval :     1366.66  1398.52  1416.38  1422.12  1428.35  1431.36
eigval :     1435.65  1450.15  1475.36  1478.75  1480.91  1488.93
eigval :     1497.05  1542.42  1562.05  1568.64  1572.57  1576.69
eigval :     1586.58  1589.29  1593.50  1594.99  1599.72  1606.66
eigval :     1615.69  3074.21  3075.66  3075.89  3076.38  3078.63
eigval :     3080.06  3081.33  3081.64  3085.61  3086.61  3086.86
eigval :     3088.93  3089.67  3091.90  3094.44  3096.09  3098.90
eigval :     3101.78  3102.51  3103.82  3115.43  3116.07  3116.95

   temp. (K)  partition function   enthalpy   heat capacity  entropy
                                   cal/mol     cal/K/mol   cal/K/mol   J/K/mol
 298.15  VIB  0.684E+12            15635.288    103.905     95.378
         ROT  0.401E+08              888.752      2.981     37.774
         INT  0.275E+20            16524.040    106.886    133.152
         TR   0.984E+28             1481.254      4.968     44.308
         TOT                       18005.2941   111.8537   177.4598   742.4917

       T/K    H(0)-H(T)+PV         H(T)/Eh          T*S/Eh         G(T)/Eh
   ------------------------------------------------------------------------
    298.15    0.286933E-01    0.492543E+00    0.843169E-01    0.408226E+00
   ------------------------------------------------------------------------

         :::::::::::::::::::::::::::::::::::::::::::::::::::::
         ::                  THERMODYNAMIC                  ::
         :::::::::::::::::::::::::::::::::::::::::::::::::::::
         :: total free energy         -91.382785138440 Eh   ::
         ::.................................................::
         :: total energy              -91.791011036654 Eh   ::
         :: zero point energy           0.463849501803 Eh   ::
         :: G(RRHO) w/o ZPVE           -0.055623603589 Eh   ::
         :: G(RRHO) contrib.            0.408225898214 Eh   ::
         :::::::::::::::::::::::::::::::::::::::::::::::::::::

           -------------------------------------------------
          | TOTAL ENERGY              -91.791011036654 Eh   |
          | TOTAL ENTHALPY            -91.298468272240 Eh   |
          | TOTAL FREE ENERGY         -91.382785138440 Eh   |
          | GRADIENT NORM               0.000067302520 Eh/α |
          | HOMO-LUMO GAP               2.630496158513 eV   |
           -------------------------------------------------

 * finished run on 2025/09/04 at 21:58:15.666
