   * xtb version 6.7.1 (edcfbbe) compiled by 'albert@albert-system' on 2024-07-22

   ID    Z sym.   atoms
    1    6 C      1-23, 25-37
    2    7 N      24
    3    1 H      38-60

          program call               : xtb data2507/gas/D6/D6_gas_S0_crest.xyz --gfn 2 --ohess vtight --parallel 40 --molden --ceasefiles --namespace data2507/gas/D6/D6_gas_S0_finalOpt
          :  Hamiltonian                  GFN2-xTB          :
 * total energy  :   -91.7911071 Eh     change       -0.7228351E-09 Eh
 * total energy  :   -91.7911077 Eh     change       -0.6564135E-06 Eh
 * total energy  :   -91.7911086 Eh     change       -0.8291076E-06 Eh
 * total energy  :   -91.7911105 Eh     change       -0.1935904E-05 Eh
 * total energy  :   -91.7911130 Eh     change       -0.2490317E-05 Eh
 * total energy  :   -91.7911148 Eh     change       -0.1750463E-05 Eh
 * total energy  :   -91.7911156 Eh     change       -0.8832517E-06 Eh
 * total energy  :   -91.7911163 Eh     change       -0.6908609E-06 Eh
 * total energy  :   -91.7911171 Eh     change       -0.7313253E-06 Eh
 * total energy  :   -91.7911179 Eh     change       -0.8051041E-06 Eh
 * total energy  :   -91.7911206 Eh     change       -0.5474439E-06 Eh
 * total energy  :   -91.7911210 Eh     change       -0.4529674E-06 Eh
 * total energy  :   -91.7911214 Eh     change       -0.3453520E-06 Eh
 * total energy  :   -91.7911216 Eh     change       -0.2552711E-06 Eh
 * total energy  :   -91.7911219 Eh     change       -0.2176767E-06 Eh
 * total energy  :   -91.7911221 Eh     change       -0.2140974E-06 Eh
 * total energy  :   -91.7911223 Eh     change       -0.1822890E-06 Eh
 * total energy  :   -91.7911224 Eh     change       -0.1675956E-06 Eh
 * total energy  :   -91.7911224 Eh     change       -0.1943121E-08 Eh
   *** GEOMETRY OPTIMIZATION CONVERGED AFTER 22 ITERATIONS ***

 final structure:
================
60
 xtb: 6.7.1 (edcfbbe)
C           -2.19734033636928        3.24638353908557       -1.78741816976898
C           -0.86683882216191        3.04447688392125       -1.46953384238013
C           -0.48088592034483        1.93568819947051       -0.71866943353026
C            0.93143897168365        1.69779615652526       -0.39148594759080
C            1.78553028086819        2.75147242970824       -0.05661743532618
C            3.10755460319153        2.50787825168899        0.21777687632706
C            3.65099403483553        1.21530726071797        0.18301834355447
C            5.06059037827332        0.97070560545994        0.42232235816528
C            5.95041796919978        2.01766956255086        0.70219840726612
C            7.29399819816628        1.79799024208774        0.88789141152855
C            7.79873957629292        0.50767112063083        0.79080137462616
C            6.94657653224570       -0.53782777201535        0.52737882083898
C            5.56957717208627       -0.34447341892123        0.34905604608095
C            4.67025363640729       -1.45869988160923        0.10572070733584
C            5.12644417758536       -2.78450863259312        0.10731100838856
C            4.27734772261675       -3.84474379866529       -0.10125378475458
C            2.92463145996129       -3.61104235693108       -0.31149165998208
C            2.45066678627329       -2.32120154470175       -0.31607701540973
C            3.29722731785353       -1.22115344340830       -0.11906015294335
C            2.78924289796574        0.13942718207944       -0.12040779588340
C            1.45040866461702        0.41651719715714       -0.41520539967233
C           -1.45821798661437        1.04539421838848       -0.28703701735408
C           -2.79285467601850        1.23922344839903       -0.62014670234836
N           -3.75258058848217        0.30675425620261       -0.20259628167552
C           -4.94163043584527        0.58889302206079        0.43890362841485
C           -5.45258301363721        1.80901088595274        0.85772108314843
C           -6.67158538340653        1.80865477383303        1.50800039343461
C           -7.36833033886992        0.62623655737309        1.74791441829546
C           -6.85355915402282       -0.59296844576515        1.35550857714773
C           -5.62969543878716       -0.61866363582843        0.69992665803073
C           -4.80839459036298       -1.67675285205994        0.18218694106543
C           -4.95029967099089       -3.05707753467071        0.12549556685873
C           -3.95635594874907       -3.80056291836539       -0.47845523988907
C           -2.83988863924298       -3.18310886589153       -1.03821112591205
C           -2.67693982634497       -1.81198416043675       -0.99496634587722
C           -3.65892737343900       -1.06117588928026       -0.36423112834373
C           -3.16438037224104        2.34718886181571       -1.37594001512936
H           -2.48411435645766        4.10516502408568       -2.37642038694298
H           -0.11803782847900        3.73667961184765       -1.82396297907828
H            1.40005459180125        3.75877941501173       -0.00092176595415
H            3.73163382270251        3.35091959486050        0.46540089641098
H            5.58961090233396        3.03060442778840        0.77481094466951
H            7.95396108702619        2.62570186092007        1.10194721373793
H            8.85506187636742        0.32539642247833        0.92272431838161
H            7.36892720312518       -1.52665908784502        0.45496189977124
H            6.16748941768208       -2.99946173650681        0.28430643669593
H            4.66011174970543       -4.85463601558891       -0.09321455986213
H            2.24669417916486       -4.43768180608019       -0.46460025444157
H            1.39340942972480       -2.17419913395649       -0.46552574669329
H            0.78895405736731       -0.38417734450696       -0.70230866729945
H           -1.18816458239430        0.20763420294237        0.33860954280746
H           -4.91190127385192        2.72882628388408        0.69258098455299
H           -7.09229513741276        2.74610757731273        1.84103176780136
H           -8.31998778186084        0.66873888730586        2.25656917423540
H           -7.38566099610553       -1.51088746112708        1.55537028197175
H           -5.82441004466076       -3.53391156242413        0.54277717958600
H           -4.04589807368615       -4.87549651736882       -0.53021285720289
H           -2.08769662740105       -3.78965486088347       -1.52128630476249
H           -1.82080215047662       -1.34013928586101       -1.45376565935644
H           -4.19919300610752        2.48743811404724       -1.64896652986524

          :  Hamiltonian                  GFN2-xTB          :
         :: gradient norm              0.000033677978 Eh/a0 ::
         :: HOMO-LUMO gap              2.614957368250 eV    ::
         :: SCC energy               -93.579255306377 Eh    ::
         :: -> dispersion             -0.082387254535 Eh    ::
         :: repulsion energy           1.788132878190 Eh    ::

    * Orbital Energies and Occupations

         #    Occupation            Energy/Eh            Energy/eV
      -------------------------------------------------------------
         1        2.0000           -0.6735424             -18.3280
       ...           ...                  ...                  ...
        74        2.0000           -0.4198540             -11.4248
        75        2.0000           -0.4163138             -11.3285
        76        2.0000           -0.4153804             -11.3031
        77        2.0000           -0.4107610             -11.1774
        78        2.0000           -0.4083602             -11.1120
        79        2.0000           -0.4058851             -11.0447
        80        2.0000           -0.4045001             -11.0070
        81        2.0000           -0.4023182             -10.9476
        82        2.0000           -0.3944042             -10.7323
        83        2.0000           -0.3814668             -10.3802
        84        2.0000           -0.3777320             -10.2786
        85        2.0000           -0.3757670             -10.2251
        86        2.0000           -0.3598415              -9.7918 (HOMO)
        87                         -0.2637436              -7.1768 (LUMO)
        88                         -0.2570109              -6.9936
        89                         -0.2434831              -6.6255
        90                         -0.2412401              -6.5645
        91                         -0.2320204              -6.3136
        92                         -0.2275896              -6.1930
        93                         -0.2190409              -5.9604
        94                         -0.1950013              -5.3063
        95                         -0.1930694              -5.2537
        96                         -0.1884442              -5.1278
        97                         -0.1831931              -4.9849
       ...                                ...                  ...
       171                          0.7490140              20.3817
      -------------------------------------------------------------
                  HL-Gap            0.0960979 Eh            2.6150 eV

     #   Z          covCN         q      C6AA      α(0)
     1   6 C        2.918    -0.029    28.731     8.790
     2   6 C        2.924    -0.039    28.958     8.825
     3   6 C        2.977     0.012    27.744     8.640
     4   6 C        2.975     0.007    27.860     8.658
     5   6 C        2.922    -0.036    28.900     8.816
     6   6 C        2.921    -0.036    28.905     8.817
     7   6 C        2.979     0.005    27.908     8.666
     8   6 C        2.979     0.006    27.875     8.660
     9   6 C        2.923    -0.036    28.886     8.814
    10   6 C        2.917    -0.031    28.782     8.797
    11   6 C        2.917    -0.031    28.780     8.797
    12   6 C        2.923    -0.035    28.883     8.813
    13   6 C        2.979     0.006    27.875     8.660
    14   6 C        2.979     0.006    27.874     8.660
    15   6 C        2.923    -0.035    28.883     8.813
    16   6 C        2.917    -0.031    28.777     8.797
    17   6 C        2.917    -0.031    28.776     8.797
    18   6 C        2.923    -0.035    28.874     8.812
    19   6 C        2.980     0.006    27.882     8.662
    20   6 C        2.978     0.006    27.885     8.662
    21   6 C        2.930    -0.041    29.017     8.834
    22   6 C        2.929    -0.048    29.203     8.862
    23   6 C        2.912     0.064    26.564     8.451
    24   7 N        2.803    -0.045    22.099     6.982
    25   6 C        3.076     0.047    26.867     8.498
    26   6 C        2.910    -0.051    29.265     8.871
    27   6 C        2.924    -0.034    28.836     8.806
    28   6 C        2.920    -0.041    29.021     8.834
    29   6 C        2.912    -0.033    28.820     8.803
    30   6 C        3.069    -0.017    28.370     8.734
    31   6 C        3.068    -0.017    28.367     8.733
    32   6 C        2.913    -0.033    28.817     8.803
    33   6 C        2.920    -0.041    29.024     8.835
    34   6 C        2.924    -0.034    28.840     8.807
    35   6 C        2.910    -0.050    29.253     8.869
    36   6 C        3.077     0.047    26.870     8.499
    37   6 C        2.922    -0.045    29.124     8.850
    38   1 H        0.926     0.035     2.513     2.479
    39   1 H        0.926     0.036     2.503     2.474
    40   1 H        0.926     0.031     2.567     2.505
    41   1 H        0.926     0.034     2.529     2.487
    42   1 H        0.926     0.033     2.548     2.496
    43   1 H        0.926     0.029     2.597     2.520
    44   1 H        0.926     0.029     2.596     2.519
    45   1 H        0.926     0.033     2.541     2.493
    46   1 H        0.926     0.033     2.542     2.493
    47   1 H        0.926     0.030     2.593     2.518
    48   1 H        0.926     0.030     2.588     2.516
    49   1 H        0.926     0.033     2.546     2.495
    50   1 H        0.926     0.035     2.512     2.479
    51   1 H        0.926     0.042     2.429     2.437
    52   1 H        0.926     0.027     2.630     2.536
    53   1 H        0.926     0.028     2.612     2.527
    54   1 H        0.926     0.027     2.626     2.534
    55   1 H        0.926     0.030     2.583     2.513
    56   1 H        0.926     0.030     2.582     2.513
    57   1 H        0.926     0.027     2.627     2.535
    58   1 H        0.926     0.027     2.623     2.533
    59   1 H        0.926     0.024     2.670     2.555
    60   1 H        0.926     0.040     2.452     2.449

molecular dipole:
                 x           y           z       tot (Debye)
 q only:        0.472       0.304      -0.127
   full:        0.512       0.365      -0.152       1.646

 projected vibrational frequencies (cm⁻¹)
eigval :       -0.00    -0.00    -0.00    -0.00     0.00     0.00
eigval :       10.06    16.62    18.59    29.36    38.11    60.64
eigval :       64.00    74.44    99.22   106.30   118.37   144.09
eigval :      147.37   202.32   212.32   218.22   236.16   247.92
eigval :      266.44   271.97   281.00   313.52   318.24   359.19
eigval :      383.61   391.89   394.60   395.67   399.47   409.50
eigval :      423.55   435.31   440.39   450.55   467.89   514.66
eigval :      517.12   522.03   528.10   540.22   541.25   556.32
eigval :      581.92   586.96   588.34   596.81   603.85   614.23
eigval :      638.81   670.71   673.57   676.35   678.28   688.81
eigval :      703.00   708.46   738.09   748.88   757.76   759.49
eigval :      766.00   769.40   779.13   780.74   797.06   822.01
eigval :      843.72   846.51   860.84   863.77   869.11   872.13
eigval :      893.76   897.53   900.48   903.62   904.82   908.23
eigval :      908.59   914.88   922.00   923.47   923.86   925.62
eigval :      931.73   940.89   977.74  1001.70  1012.34  1020.40
eigval :     1033.69  1070.02  1073.66  1095.61  1099.45  1118.80
eigval :     1127.55  1128.74  1145.79  1152.03  1155.45  1172.09
eigval :     1175.90  1181.55  1182.70  1184.94  1192.56  1203.56
eigval :     1236.86  1237.11  1246.94  1258.06  1264.07  1266.66
eigval :     1271.73  1291.02  1301.54  1305.53  1313.55  1318.45
eigval :     1319.70  1336.86  1341.86  1355.11  1359.71  1361.78
eigval :     1366.56  1398.40  1416.29  1422.01  1428.40  1431.39
eigval :     1435.70  1449.77  1475.70  1478.64  1480.80  1488.89
eigval :     1497.09  1542.11  1561.95  1568.61  1572.48  1576.54
eigval :     1585.78  1589.31  1593.52  1595.01  1599.73  1606.60
eigval :     1615.67  3073.72  3075.61  3075.92  3076.45  3078.74
eigval :     3079.76  3081.26  3081.93  3085.64  3086.26  3086.87
eigval :     3088.73  3090.35  3092.50  3094.29  3096.00  3098.95
eigval :     3101.82  3102.61  3103.89  3115.71  3116.04  3117.02

   temp. (K)  partition function   enthalpy   heat capacity  entropy
                                   cal/mol     cal/K/mol   cal/K/mol   J/K/mol
 298.15  VIB  0.557E+12            15626.344    103.898     95.144
         ROT  0.397E+08              888.752      2.981     37.753
         INT  0.221E+20            16515.096    106.879    132.896
         TR   0.984E+28             1481.254      4.968     44.308
         TOT                       17996.3502   111.8475   177.2044   741.4233

       T/K    H(0)-H(T)+PV         H(T)/Eh          T*S/Eh         G(T)/Eh
   ------------------------------------------------------------------------
    298.15    0.286790E-01    0.492561E+00    0.841955E-01    0.408365E+00
   ------------------------------------------------------------------------

         :::::::::::::::::::::::::::::::::::::::::::::::::::::
         ::                  THERMODYNAMIC                  ::
         :::::::::::::::::::::::::::::::::::::::::::::::::::::
         :: total free energy         -91.382757056748 Eh   ::
         ::.................................................::
         :: total energy              -91.791122428187 Eh   ::
         :: zero point energy           0.463881905719 Eh   ::
         :: G(RRHO) w/o ZPVE           -0.055516534281 Eh   ::
         :: G(RRHO) contrib.            0.408365371439 Eh   ::
         :::::::::::::::::::::::::::::::::::::::::::::::::::::

           -------------------------------------------------
          | TOTAL ENERGY              -91.791122428187 Eh   |
          | TOTAL ENTHALPY            -91.298561512855 Eh   |
          | TOTAL FREE ENERGY         -91.382757056748 Eh   |
          | GRADIENT NORM               0.000033676225 Eh/α |
          | HOMO-LUMO GAP               2.614957210208 eV   |
           -------------------------------------------------

 * finished run on 2025/09/04 at 22:00:40.770
