   * xtb version 6.7.1 (edcfbbe) compiled by 'albert@albert-system' on 2024-07-22

   ID    Z sym.   atoms
    1    6 C      1-23, 25-37
    2    7 N      24
    3    1 H      38-60

          program call               : xtb data2507/gas/D6/D6_gas_S0_finalOpt.xtbopt.xyz --gfn 2 --spinpol --tblite --uhf 2 --ohess vtight --parallel 40 --molden --ceasefiles --namespace data2507/gas/D6/D6_gas_T1_preOpt
 * total energy  :   -91.6835539 Eh     change        0.2710806E-07 Eh
 * total energy  :   -91.6904969 Eh     change       -0.6943028E-02 Eh
 * total energy  :   -91.6931517 Eh     change       -0.2654753E-02 Eh
 * total energy  :   -91.6934283 Eh     change       -0.2765852E-03 Eh
 * total energy  :   -91.6937729 Eh     change       -0.3445821E-03 Eh
 * total energy  :   -91.6939561 Eh     change       -0.1832821E-03 Eh
 * total energy  :   -91.6941243 Eh     change       -0.1681864E-03 Eh
 * total energy  :   -91.6942146 Eh     change       -0.9029454E-04 Eh
 * total energy  :   -91.6942673 Eh     change       -0.5271100E-04 Eh
 * total energy  :   -91.6943090 Eh     change       -0.4169572E-04 Eh
 * total energy  :   -91.6951755 Eh     change       -0.5684658E-06 Eh
 * total energy  :   -91.6951766 Eh     change       -0.1029284E-05 Eh
 * total energy  :   -91.6951768 Eh     change       -0.2156990E-06 Eh
 * total energy  :   -91.6951771 Eh     change       -0.2827607E-06 Eh
 * total energy  :   -91.6951773 Eh     change       -0.2030802E-06 Eh
 * total energy  :   -91.6951774 Eh     change       -0.1226811E-06 Eh
 * total energy  :   -91.6951776 Eh     change       -0.1516999E-06 Eh
 * total energy  :   -91.6951777 Eh     change       -0.1191808E-06 Eh
 * total energy  :   -91.6951778 Eh     change       -0.9745398E-07 Eh
   *** GEOMETRY OPTIMIZATION CONVERGED AFTER 76 ITERATIONS ***

 final structure:
================
60
 xtb: 6.7.1 (edcfbbe)
C           -2.28390521225973        3.36996180993440       -1.65026597289119
C           -0.94138463570196        3.15742487915156       -1.46643542414995
C           -0.45197780330957        1.96913941530304       -0.84996726895307
C            0.93413920938036        1.72314711490659       -0.67404220123425
C            1.92222535798345        2.75581219033558       -0.77869766023586
C            3.22857938210468        2.51081611795189       -0.54472258188151
C            3.72099034534993        1.20357255959601       -0.19267174309363
C            5.02734735110508        0.97324167356266        0.25452071087022
C            5.96306857382386        2.03349484973089        0.44856150075694
C            7.19981087078323        1.81411589809724        0.97938074455759
C            7.58181737029006        0.52180796405847        1.35823141191840
C            6.71397860133482       -0.53499667998530        1.15409351185939
C            5.45568678340095       -0.36080918356142        0.58869682403660
C            4.57736463030188       -1.47967280387304        0.30293219990632
C            5.02150251707152       -2.80371448233292        0.40017286519982
C            4.19638075127939       -3.87144257746410        0.10588774359597
C            2.90062241715359       -3.63996354826006       -0.31796277440505
C            2.44422867911942       -2.33977113487526       -0.43765463868419
C            3.25054781556278       -1.24641838938734       -0.12008639877360
C            2.76347088145987        0.12178594685026       -0.25419474956531
C            1.43740031429196        0.40637014155897       -0.42715486425870
C           -1.42974787186034        1.04012721937271       -0.41199051017894
C           -2.77355961823457        1.26287570935987       -0.60216132890542
N           -3.70528530692780        0.30326168290554       -0.17797003538926
C           -4.83350936624358        0.54778829215767        0.57529955092221
C           -5.28663013734297        1.73888849038853        1.12612326360070
C           -6.45332717427876        1.70403521914344        1.86587948777839
C           -7.15096308230593        0.51544932851993        2.06802860597208
C           -6.69010922321010       -0.67810388912954        1.54533440948699
C           -5.52200284422026       -0.66827717748851        0.79700135385370
C           -4.75975457512644       -1.69298327906300        0.13743312879406
C           -4.92791268802281       -3.06216260745957       -0.01201554776538
C           -3.99354109431974       -3.76751215200028       -0.74616232406253
C           -2.91311961973600       -3.12075190051963       -1.34179498032850
C           -2.72461242885988       -1.75853712873889       -1.20709320049969
C           -3.64512877026652       -1.04816547322887       -0.44836068308121
C           -3.22461470538759        2.43203131690669       -1.23580842078085
H           -2.62116859481169        4.27297657778136       -2.13839572736333
H           -0.24359542929820        3.89126707805252       -1.83555121181136
H            1.61292564904892        3.76220924731053       -1.01328374849754
H            3.92832567349634        3.32709498017992       -0.62375503997654
H            5.68277573624285        3.04061467521380        0.18717324136388
H            7.88433661875163        2.63775962161586        1.12172535537187
H            8.54978710458857        0.35071355663365        1.80384573052040
H            7.03718310021606       -1.51769048735772        1.45950090183488
H            6.03649877602854       -3.01324822705988        0.69680210299337
H            4.57015589217489       -4.88088929444997        0.19493355472397
H            2.24936574957560       -4.46496591047633       -0.56593272004937
H            1.44180641607169       -2.18492944635450       -0.80446783442563
H            0.72574642679013       -0.40160583348941       -0.42372599531632
H           -1.13042276065646        0.15836641855613        0.13188837814010
H           -4.74030084490489        2.66013298337246        0.99190356401861
H           -6.82953556415205        2.61772580201346        2.30165756218353
H           -8.05952189260722        0.52968090566594        2.65132206725309
H           -7.22278897775943       -1.60127100000388        1.71680753318260
H           -5.77490214186050       -3.56131519881784        0.43385009873088
H           -4.10408822574836       -4.83432489373792       -0.87104124835534
H           -2.20913292347826       -3.69619766653204       -1.92467639928741
H           -1.89660683902116       -1.26165875019011       -1.68987401327836
H           -4.27682782741431        2.57716441331025       -1.42083869820190

 projected vibrational frequencies (cm⁻¹)
eigval :       -0.00    -0.00    -0.00     0.00     0.00     0.00
eigval :       11.13    14.64    22.00    34.56    52.05    59.91
eigval :       69.28    72.50    93.43   103.75   116.40   140.90
eigval :      141.89   177.48   201.60   215.73   234.21   240.56
eigval :      250.68   271.29   284.28   289.20   311.73   348.99
eigval :      360.58   374.64   388.53   392.94   395.78   402.10
eigval :      411.49   422.81   436.18   446.48   460.22   472.71
eigval :      499.40   512.13   517.96   539.05   539.89   551.45
eigval :      560.63   573.36   579.92   585.97   590.51   607.22
eigval :      614.64   637.32   648.48   666.53   667.97   674.89
eigval :      685.64   709.15   723.89   732.44   736.77   752.84
eigval :      756.87   759.15   761.82   769.71   777.02   779.52
eigval :      807.36   829.69   831.29   835.44   846.81   850.54
eigval :      872.93   876.67   884.21   889.84   897.33   899.59
eigval :      903.02   904.68   909.61   910.81   917.89   921.58
eigval :      922.43   930.60   942.74   967.29   985.95  1007.91
eigval :     1012.49  1041.42  1069.12  1072.41  1081.21  1112.28
eigval :     1113.86  1120.87  1122.82  1141.04  1148.36  1162.24
eigval :     1172.95  1174.69  1179.00  1180.46  1185.50  1190.05
eigval :     1200.81  1233.86  1234.33  1238.76  1243.76  1246.21
eigval :     1256.80  1269.92  1285.03  1295.00  1297.78  1310.89
eigval :     1328.18  1329.79  1343.92  1348.59  1352.69  1357.88
eigval :     1360.68  1364.76  1376.14  1378.20  1400.34  1407.40
eigval :     1419.95  1434.75  1436.56  1451.21  1464.51  1469.88
eigval :     1485.92  1489.88  1492.98  1502.97  1532.91  1553.96
eigval :     1562.15  1569.48  1570.37  1584.51  1588.76  1596.76
eigval :     1610.42  3074.34  3074.90  3075.80  3077.44  3078.46
eigval :     3082.57  3084.00  3084.10  3086.91  3088.33  3089.02
eigval :     3091.07  3095.89  3096.62  3097.66  3097.93  3100.59
eigval :     3101.87  3105.06  3109.73  3110.12  3113.87  3119.25

   temp. (K)  partition function   enthalpy   heat capacity  entropy
                                   cal/mol     cal/K/mol   cal/K/mol   J/K/mol
 298.15  VIB  0.539E+12            15987.186    106.640     97.336
         ROT  0.400E+08              888.752      2.981     37.767
         INT  0.216E+20            16875.938    109.621    135.103
         TR   0.984E+28             1481.254      4.968     44.308
         TOT                       18357.1924   114.5887   179.4114   750.6573

       T/K    H(0)-H(T)+PV         H(T)/Eh          T*S/Eh         G(T)/Eh
   ------------------------------------------------------------------------
    298.15    0.292540E-01    0.488252E+00    0.852441E-01    0.403008E+00
   ------------------------------------------------------------------------

         :::::::::::::::::::::::::::::::::::::::::::::::::::::
         ::                  THERMODYNAMIC                  ::
         :::::::::::::::::::::::::::::::::::::::::::::::::::::
         :: total free energy         -91.292169698491 Eh   ::
         ::.................................................::
         :: total energy              -91.695177767241 Eh   ::
         :: zero point energy           0.458998162874 Eh   ::
         :: G(RRHO) w/o ZPVE           -0.055990094124 Eh   ::
         :: G(RRHO) contrib.            0.403008068750 Eh   ::
         :::::::::::::::::::::::::::::::::::::::::::::::::::::

           -------------------------------------------------
          | TOTAL ENERGY              -91.695177767241 Eh   |
          | TOTAL ENTHALPY            -91.206925556219 Eh   |
          | TOTAL FREE ENERGY         -91.292169698491 Eh   |
          | GRADIENT NORM               0.000065734691 Eh/α |
           -------------------------------------------------

 * finished run on 2025/09/04 at 22:00:48.967
