   * xtb version 6.7.1 (edcfbbe) compiled by 'albert@albert-system' on 2024-07-22

   ID    Z sym.   atoms
    1    6 C      1-23, 25-37
    2    7 N      24
    3    1 H      38-60

          program call               : xtb data2507/gas/D6/D6_gas_T1_crest.xyz --gfn 2 --spinpol --tblite --uhf 2 --ohess vtight --parallel 40 --molden --ceasefiles --namespace data2507/gas/D6/D6_gas_T1_finalOpt
 * total energy  :   -91.6951450 Eh     change       -0.9756647E-08 Eh
 * total energy  :   -91.6951608 Eh     change       -0.1584456E-04 Eh
 * total energy  :   -91.6951664 Eh     change       -0.5541402E-05 Eh
 * total energy  :   -91.6951674 Eh     change       -0.1043498E-05 Eh
 * total energy  :   -91.6951686 Eh     change       -0.1209268E-05 Eh
 * total energy  :   -91.6951696 Eh     change       -0.9809932E-06 Eh
 * total energy  :   -91.6951705 Eh     change       -0.8774971E-06 Eh
 * total energy  :   -91.6951709 Eh     change       -0.4579419E-06 Eh
 * total energy  :   -91.6951712 Eh     change       -0.2818453E-06 Eh
 * total energy  :   -91.6951716 Eh     change       -0.3318356E-06 Eh
 * total energy  :   -91.6951740 Eh     change       -0.3160015E-06 Eh
 * total energy  :   -91.6951744 Eh     change       -0.3695982E-06 Eh
 * total energy  :   -91.6951747 Eh     change       -0.3276327E-06 Eh
 * total energy  :   -91.6951751 Eh     change       -0.3507560E-06 Eh
 * total energy  :   -91.6951754 Eh     change       -0.2953542E-06 Eh
 * total energy  :   -91.6951756 Eh     change       -0.2940095E-06 Eh
 * total energy  :   -91.6951759 Eh     change       -0.2929531E-06 Eh
 * total energy  :   -91.6951759 Eh     change        0.9055725E-09 Eh
 * total energy  :   -91.6951760 Eh     change       -0.1772740E-07 Eh
   *** GEOMETRY OPTIMIZATION CONVERGED AFTER 23 ITERATIONS ***

 final structure:
================
60
 xtb: 6.7.1 (edcfbbe)
C           -2.27507798444794        3.41445441120183       -1.57239457958737
C           -0.93278851038382        3.19346329760500       -1.39652235289106
C           -0.44659388396257        1.99101026161340       -0.80611310804705
C            0.93903152966369        1.73504526832981       -0.64000049078412
C            1.93106333550460        2.76617002200345       -0.72024409034532
C            3.23617580401292        2.51076962071970       -0.49052122628291
C            3.72229172673080        1.19338620823302       -0.16852144565322
C            5.02370334391385        0.94699745057205        0.28390245716505
C            5.95933452183270        1.99897645606300        0.51914727926922
C            7.18894621408062        1.76116101394987        1.05856379218685
C            7.56339743928016        0.45755033378010        1.40498399998993
C            6.69618417226250       -0.59104964746236        1.15927524258859
C            5.44563381397055       -0.39733525698524        0.58353664012063
C            4.56900910034222       -1.50517143310795        0.25293475846485
C            5.01160516404357       -2.83205152298104        0.30762383964296
C            4.18760722739630       -3.88804333223778       -0.02948313078568
C            2.89512649292064       -3.64074551501645       -0.45447966312653
C            2.44060955468495       -2.33669143919928       -0.53291430775476
C            3.24577986647215       -1.25613170282381       -0.17195314710080
C            2.76190220900104        0.11646786390586       -0.26446308041657
C            1.43695388927250        0.40996594272560       -0.42982874675588
C           -1.42624942122444        1.05718503968680       -0.38342649855598
C           -2.76986537815053        1.28854447084326       -0.56521320936716
N           -3.70391244079342        0.32426873000397       -0.15717144063890
C           -4.83078687844321        0.55826346898383        0.60157297166881
C           -5.28035426254844        1.74038685507213        1.17422609534012
C           -6.44642490421727        1.69524904554297        1.91443303494619
C           -7.14695356300389        0.50504742732286        2.09595556250189
C           -6.68956709813481       -0.68009701292792        1.55157560400863
C           -5.52214876923302       -0.65980677926870        0.80236491344125
C           -4.76301874226372       -1.67465543969418        0.12426063482659
C           -4.93457468112224       -3.04066244508618       -0.04860687907295
C           -4.00232514463063       -3.73555434097355       -0.79528800961708
C           -2.92092229376779       -3.08115236965480       -1.38067548883257
C           -2.72931384241223       -1.72184796206961       -1.22301394097827
C           -3.64736697869160       -1.02242748312011       -0.45123807775060
C           -3.21799634341113        2.47162960192345       -1.17450625831801
H           -2.61039627001138        4.32831521010460       -2.04129929299493
H           -0.23300876835993        3.93182251380740       -1.75271051437029
H            1.62545987454479        3.77880798865890       -0.93177035096530
H            3.93983697492864        3.32538082640237       -0.55009922097193
H            5.68376160636024        3.01386465063293        0.28400905785221
H            7.87340940792527        2.57863330643834        1.23316946777036
H            8.52511817151901        0.27147955888853        1.85806308166245
H            7.01305101790792       -1.58308564318047        1.44029437837534
H            6.02447891060918       -3.05239728478934        0.60381285431706
H            4.55990182025493       -4.90037661641315        0.02710092546587
H            2.24520451339150       -4.45609966693256       -0.73566278425972
H            1.44135232016880       -2.16744564183675       -0.90211060569103
H            0.72258077167024       -0.39551173501604       -0.44995565962857
H           -1.12795523516582        0.16431163589162        0.14264436575259
H           -4.73181537941030        2.66253434495568        1.05624979331564
H           -6.81982211554415        2.60194933006772        2.36691316230511
H           -8.05495357947164        0.51113503961945        2.68026825159020
H           -7.22440904722426       -1.60485081264549        1.70702730424293
H           -5.78243781028128       -3.54538694623715        0.38924659995841
H           -4.11533706323578       -4.79984316875959       -0.93816351860509
H           -2.21861833375497       -3.64815957854715       -1.97376088069079
H           -1.90077122289702       -1.21871137176122       -1.69829106359532
H           -4.27009861606698        2.62425286437843       -1.35408833233425

 projected vibrational frequencies (cm⁻¹)
eigval :       -0.00    -0.00    -0.00     0.00     0.00     0.00
eigval :       11.63    15.11    22.23    35.31    52.97    61.02
eigval :       69.92    72.81    95.01   103.90   116.46   140.97
eigval :      142.05   178.01   201.11   215.98   234.23   240.81
eigval :      250.67   271.41   284.71   289.26   312.02   349.32
eigval :      360.32   374.57   388.44   392.94   395.92   402.29
eigval :      411.98   422.89   436.27   446.32   460.35   472.68
eigval :      499.63   512.25   517.95   539.09   539.91   551.40
eigval :      560.79   573.41   579.94   585.99   590.53   607.26
eigval :      614.86   637.60   648.67   666.58   668.01   674.94
eigval :      685.71   709.15   723.96   732.25   736.84   753.29
eigval :      756.83   759.12   762.02   769.79   777.32   779.66
eigval :      808.50   829.80   831.60   835.90   847.64   851.06
eigval :      873.11   876.88   884.53   890.02   897.28   899.74
eigval :      903.17   904.84   909.71   911.01   918.02   921.75
eigval :      922.57   930.48   942.43   967.54   985.97  1007.59
eigval :     1012.40  1041.48  1069.14  1072.27  1080.74  1111.93
eigval :     1113.58  1121.11  1122.60  1140.97  1148.51  1162.11
eigval :     1173.12  1174.87  1179.29  1180.78  1186.01  1190.05
eigval :     1200.85  1234.05  1234.75  1239.02  1243.70  1246.26
eigval :     1256.53  1269.58  1285.06  1295.18  1297.90  1310.47
eigval :     1327.96  1329.96  1343.90  1348.60  1352.78  1357.68
eigval :     1360.62  1364.75  1376.28  1378.25  1400.51  1407.74
eigval :     1420.22  1434.86  1436.58  1451.23  1464.71  1469.96
eigval :     1485.93  1489.87  1493.02  1503.23  1532.94  1553.97
eigval :     1562.00  1569.33  1570.40  1584.45  1588.80  1596.72
eigval :     1610.53  3074.55  3075.23  3076.09  3077.80  3078.76
eigval :     3082.87  3084.28  3084.45  3086.96  3088.18  3089.57
eigval :     3091.61  3096.17  3096.59  3097.72  3098.07  3100.39
eigval :     3101.96  3104.92  3109.23  3110.00  3113.49  3118.15

   temp. (K)  partition function   enthalpy   heat capacity  entropy
                                   cal/mol     cal/K/mol   cal/K/mol   J/K/mol
 298.15  VIB  0.456E+12            15974.900    106.682     97.163
         ROT  0.400E+08              888.752      2.981     37.767
         INT  0.183E+20            16863.652    109.663    134.930
         TR   0.984E+28             1481.254      4.968     44.308
         TOT                       18344.9059   114.6311   179.2378   749.9308

       T/K    H(0)-H(T)+PV         H(T)/Eh          T*S/Eh         G(T)/Eh
   ------------------------------------------------------------------------
    298.15    0.292345E-01    0.488278E+00    0.851617E-01    0.403117E+00
   ------------------------------------------------------------------------

         :::::::::::::::::::::::::::::::::::::::::::::::::::::
         ::                  THERMODYNAMIC                  ::
         :::::::::::::::::::::::::::::::::::::::::::::::::::::
         :: total free energy         -91.292059373325 Eh   ::
         ::.................................................::
         :: total energy              -91.695176016916 Eh   ::
         :: zero point energy           0.459043825677 Eh   ::
         :: G(RRHO) w/o ZPVE           -0.055927182087 Eh   ::
         :: G(RRHO) contrib.            0.403116643591 Eh   ::
         :::::::::::::::::::::::::::::::::::::::::::::::::::::

           -------------------------------------------------
          | TOTAL ENERGY              -91.695176016916 Eh   |
          | TOTAL ENTHALPY            -91.206897722813 Eh   |
          | TOTAL FREE ENERGY         -91.292059373325 Eh   |
          | GRADIENT NORM               0.000035684949 Eh/α |
           -------------------------------------------------

 * finished run on 2025/09/04 at 22:04:46.475
