   * xtb version 6.7.1 (edcfbbe) compiled by 'albert@albert-system' on 2024-07-22

   ID    Z sym.   atoms
    1    6 C      1-4, 6-16, 18-22, 24-37, 39-43, 45-58, 60-63
    2    7 N      5, 17, 23, 38, 44, 59
    3    1 H      64-105

          program call               : xtb data2507/gas/TRZ3DPA/TRZ3DPA.xyz --gfn 2 --ohess vtight --parallel 40 --molden --ceasefiles --namespace data2507/gas/TRZ3DPA/TRZ3DPA_gas_S0_preOpt
          :  Hamiltonian                  GFN2-xTB          :
 * total energy  :  -161.0118555 Eh     change       -0.1566377E-08 Eh
 * total energy  :  -161.0292706 Eh     change       -0.1741511E-01 Eh
 * total energy  :  -161.0376613 Eh     change       -0.8390701E-02 Eh
 * total energy  :  -161.0417049 Eh     change       -0.4043581E-02 Eh
 * total energy  :  -161.0443838 Eh     change       -0.2678829E-02 Eh
 * total energy  :  -161.0456909 Eh     change       -0.1307189E-02 Eh
 * total energy  :  -161.0463014 Eh     change       -0.6104877E-03 Eh
 * total energy  :  -161.0465646 Eh     change       -0.2632094E-03 Eh
 * total energy  :  -161.0467049 Eh     change       -0.1402146E-03 Eh
 * total energy  :  -161.0468765 Eh     change       -0.1716574E-03 Eh
 * total energy  :  -161.0476457 Eh     change       -0.4285809E-06 Eh
 * total energy  :  -161.0476462 Eh     change       -0.4633158E-06 Eh
 * total energy  :  -161.0476466 Eh     change       -0.4274409E-06 Eh
 * total energy  :  -161.0476470 Eh     change       -0.3333687E-06 Eh
 * total energy  :  -161.0476472 Eh     change       -0.2683898E-06 Eh
 * total energy  :  -161.0476474 Eh     change       -0.2170073E-06 Eh
 * total energy  :  -161.0476477 Eh     change       -0.2470991E-06 Eh
 * total energy  :  -161.0476481 Eh     change       -0.3829656E-06 Eh
 * total energy  :  -161.0476481 Eh     change       -0.2402714E-08 Eh
   *** GEOMETRY OPTIMIZATION CONVERGED AFTER 122 ITERATIONS ***

 final structure:
================
105
 xtb: 6.7.1 (edcfbbe)
C            1.99174918677776       -9.30645572302144       -2.13005847268232
C            2.60790308429159       -9.49039018985789       -0.90311476847128
C            3.08903959251534       -8.40797640992729       -0.19233496553855
C            2.96553060673425       -7.11871392824625       -0.70852537809827
N            3.46341517921078       -6.01921081359840        0.00367609198792
C            4.66883655594478       -6.14291026106300        0.70777335170452
C            4.82813727852812       -5.52887089049752        1.94957000631976
C            6.01727376192185       -5.65689621440556        2.64058034126471
C            7.05902597840986       -6.40227843996113        2.11303781201201
C            6.90362553533706       -7.01806339372167        0.88197138900540
C            5.72130380797897       -6.88913834342562        0.17924854281055
C            2.76794971763608       -4.81255387996060        0.00884857847742
C            1.36975939871367       -4.79795840314812       -0.01532897784349
C            0.68473486881032       -3.60462946227267       -0.01132677563529
C            1.37249252577519       -2.39110503332948        0.01509577347092
C            0.64507093405856       -1.12747453266929        0.01368353302234
N           -0.68503942097036       -1.17225810598040        0.03653932452822
C           -1.30715189665027        0.00467082651929        0.03517982373319
C           -2.76414248125723        0.00743006307595        0.08491600204447
C           -3.47263981404740        1.20851073377290        0.04116417604900
C           -4.84750788086422        1.21323392238924        0.09398039942273
C           -5.55739170715558        0.01246179847733        0.19611831460766
N           -6.94840002909355        0.01535944204483        0.25494750680360
C           -7.62786083445058        1.06041049583864        0.89614135919008
C           -8.82400898110430        1.54873624050992        0.37209808916134
C           -9.49759780071960        2.57080414799414        1.01240060182006
C           -8.98909601183569        3.12572192557456        2.17530331748268
C           -7.79940726677207        2.64570847958968        2.69814785045129
C           -7.12273674099797        1.61829742530539        2.06999365113852
C           -7.68395955879452       -1.02875685335321       -0.32264482296094
C           -8.83068464620555       -1.51375717677118        0.30477002398258
C           -9.55975217487482       -2.53525614052255       -0.27256581868225
C           -9.15603707308410       -3.09284994626804       -1.47462856924298
C           -8.01565483474470       -2.61614272400809       -2.10026590564740
C           -7.28452476769913       -1.58936575542286       -1.53527214096930
C           -4.84613962481250       -1.19103716061996        0.23938506990590
C           -3.47143631103310       -1.19117395952564        0.18302259059318
N           -0.68140526353306        1.17886591235933       -0.00805343437610
C            0.64855130477325        1.12895988034042       -0.03229135825655
C            1.38024782215806        2.38892511367056       -0.08535789928081
C            0.69702804994364        3.60493542132931       -0.11592913597278
C            1.38639960548578        4.79445238896680       -0.17177963464228
C            2.78463088131270        4.80274923448816       -0.19843292546872
N            3.48453992688879        6.00532299212164       -0.25714322461980
C            2.96537045217380        7.09116074878529       -0.97512603647862
C            2.30154181008515        6.88697550320637       -2.18431209000563
C            1.79532576403274        7.96161255892295       -2.88917974613553
C            1.94906281739404        9.25172327536574       -2.40844321481614
C            2.61214737657754        9.45984688407298       -1.21016513733728
C            3.11458928083351        8.39105382239595       -0.49353695107685
C            4.71633957869303        6.13845744255124        0.39800858736220
C            5.75179946279785        6.86587581412149       -0.18726099804422
C            6.96055499819677        7.00401836410555        0.46708859482338
C            7.15934202493796        6.41613062059377        1.70552887215197
C            6.13450086198046        5.68958192571876        2.28945451211554
C            4.91938915127584        5.55266688642980        1.64704165445982
C            3.46862436603125        3.58337736399191       -0.16581034518342
C            2.77518491340204        2.39633036578061       -0.11047557614170
N            1.35283039916848       -0.00044936550092       -0.01181216856870
C            2.76735033100589       -2.40471964826396        0.03947579073071
C            3.45642818949229       -3.59564570952411        0.03750393786991
C            2.34888286766361       -6.93894078890743       -1.94623514527740
C            1.86355519315960       -8.02691610021967       -2.64529988533526
H            1.61467699730338      -10.15446146460571       -2.68124725685585
H            2.70809346907402      -10.48398554633061       -0.49163781323566
H            3.56176527666418       -8.55252478461422        0.76815424267936
H            4.01301657591698       -4.95632963075029        2.36728614677577
H            6.12749274459409       -5.17827945089878        3.60252735291459
H            7.98538015592476       -6.50304197572529        2.65785102374520
H            7.71223096426218       -7.59723248388154        0.46089399528098
H            5.60500863383457       -7.36299701541058       -0.78451433383754
H            0.83112245380870       -5.73428825771605       -0.02805686436179
H           -0.39357355833715       -3.58891876897284       -0.02189600216951
H           -2.92211721752845        2.13191971343989       -0.04446754291523
H           -5.38992424055984        2.14632639487121        0.04837936338140
H           -9.21772449657499        1.12268398431432       -0.53915821496362
H          -10.42231618369758        2.94165971314418        0.59534498927930
H           -9.51667750401929        3.92628412038965        2.67115081462261
H           -7.39882957063569        3.06824037148676        3.60784770319132
H           -6.20102624964037        1.23780141156319        2.48515633891220
H           -9.14220434340139       -1.08579428809073        1.24642888355609
H          -10.44509094936286       -2.90366658918324        0.22444857498057
H           -9.72656741166758       -3.89300165697700       -1.92112736374323
H           -7.69701958007285       -3.04087255485504       -3.04081181549044
H           -6.40171065940726       -1.21151478703303       -2.02980061964835
H           -5.38645042818833       -2.12220371744291        0.32847426820196
H           -2.91910338095163       -2.11647322351292        0.22608282526809
H           -0.38098372045242        3.59440491300980       -0.08638412878491
H            0.85149999166134        5.73289440170400       -0.18638694484826
H            2.19054213380822        5.88273983047105       -2.56626728509969
H            1.28504207932611        7.79046983409967       -3.82559996809541
H            1.55541315203548       10.08916497981321       -2.96417202837514
H            2.73268293310551       10.46190893443347       -0.82555261872874
H            3.62407237680123        8.55461089496881        0.44485686231914
H            5.60150232606254        7.31782635024337       -1.15682678191259
H            7.75559390031741        7.56832802554678        0.00227527421503
H            8.10621393975288        6.52390669808328        2.21240822173707
H            6.27864329120679        5.23284077997230        3.25753125823783
H            4.11775340950189        4.99491695192958        2.10856310758919
H            4.54849166807538        3.58152110985285       -0.19526453501459
H            3.29848170254785        1.45346453448054       -0.09581527292628
H            3.29446703887824       -1.46394042659461        0.05148748212523
H            4.53665102953629       -3.59901837735456        0.04750169568670
H            2.25800720028075       -5.94312006699741       -2.35463416077076
H            1.38998472871567       -7.87471854728352       -3.60401484064633

          :  Hamiltonian                  GFN2-xTB          :
         :: gradient norm              0.000034498565 Eh/a0 ::
         :: HOMO-LUMO gap              2.135795853870 eV    ::
         :: SCC energy              -164.027777592661 Eh    ::
         :: -> dispersion             -0.143323244978 Eh    ::
         :: repulsion energy           2.980129510352 Eh    ::

    * Orbital Energies and Occupations

         #    Occupation            Energy/Eh            Energy/eV
      -------------------------------------------------------------
         1        2.0000           -0.6670903             -18.1525
       ...           ...                  ...                  ...
       138        2.0000           -0.4060232             -11.0485
       139        2.0000           -0.4058771             -11.0445
       140        2.0000           -0.4041334             -10.9970
       141        2.0000           -0.4041170             -10.9966
       142        2.0000           -0.4040694             -10.9953
       143        2.0000           -0.4033890             -10.9768
       144        2.0000           -0.4006072             -10.9011
       145        2.0000           -0.4005569             -10.8997
       146        2.0000           -0.3556765              -9.6784
       147        2.0000           -0.3556665              -9.6782
       148        2.0000           -0.3514748              -9.5641
       149        2.0000           -0.3513932              -9.5619
       150        2.0000           -0.3503231              -9.5328 (HOMO)
       151                         -0.2718341              -7.3970 (LUMO)
       152                         -0.2717868              -7.3957
       153                         -0.2385965              -6.4925
       154                         -0.2316575              -6.3037
       155                         -0.2314878              -6.2991
       156                         -0.2314577              -6.2983
       157                         -0.2277089              -6.1963
       158                         -0.2275697              -6.1925
       159                         -0.2275436              -6.1918
       160                         -0.2228075              -6.0629
       161                         -0.2226499              -6.0586
       ...                                ...                  ...
       294                          0.7069597              19.2374
      -------------------------------------------------------------
                  HL-Gap            0.0784890 Eh            2.1358 eV

     #   Z          covCN         q      C6AA      α(0)
     1   6 C        2.919    -0.037    28.929     8.820
     2   6 C        2.920    -0.029    28.723     8.789
     3   6 C        2.922    -0.047    29.156     8.855
     4   6 C        2.925     0.065    26.547     8.449
     5   7 N        2.752    -0.070    22.605     7.061
     6   6 C        2.925     0.065    26.547     8.449
     7   6 C        2.922    -0.046    29.152     8.854
     8   6 C        2.920    -0.029    28.718     8.788
     9   6 C        2.919    -0.037    28.929     8.820
    10   6 C        2.920    -0.029    28.723     8.789
    11   6 C        2.922    -0.047    29.156     8.855
    12   6 C        2.924     0.069    26.458     8.435
    13   6 C        2.920    -0.049    29.206     8.862
    14   6 C        2.923    -0.025    28.630     8.775
    15   6 C        2.984    -0.010    28.262     8.720
    16   6 C        2.980     0.200    23.753     7.995
    17   7 N        1.844    -0.305    28.745     7.946
    18   6 C        2.980     0.200    23.754     7.995
    19   6 C        2.984    -0.010    28.265     8.721
    20   6 C        2.923    -0.025    28.630     8.775
    21   6 C        2.920    -0.049    29.212     8.863
    22   6 C        2.924     0.069    26.458     8.435
    23   7 N        2.752    -0.070    22.601     7.061
    24   6 C        2.925     0.065    26.547     8.450
    25   6 C        2.922    -0.046    29.154     8.854
    26   6 C        2.920    -0.029    28.723     8.789
    27   6 C        2.919    -0.037    28.927     8.820
    28   6 C        2.920    -0.029    28.717     8.788
    29   6 C        2.922    -0.046    29.149     8.854
    30   6 C        2.925     0.065    26.547     8.450
    31   6 C        2.922    -0.046    29.153     8.854
    32   6 C        2.920    -0.029    28.722     8.789
    33   6 C        2.919    -0.037    28.927     8.820
    34   6 C        2.920    -0.029    28.718     8.788
    35   6 C        2.922    -0.046    29.149     8.854
    36   6 C        2.920    -0.049    29.212     8.863
    37   6 C        2.923    -0.025    28.630     8.775
    38   7 N        1.844    -0.305    28.743     7.946
    39   6 C        2.980     0.200    23.754     7.995
    40   6 C        2.984    -0.010    28.263     8.721
    41   6 C        2.923    -0.025    28.630     8.775
    42   6 C        2.920    -0.049    29.207     8.862
    43   6 C        2.924     0.069    26.458     8.435
    44   7 N        2.752    -0.070    22.604     7.061
    45   6 C        2.925     0.065    26.547     8.450
    46   6 C        2.922    -0.046    29.152     8.854
    47   6 C        2.920    -0.029    28.717     8.788
    48   6 C        2.919    -0.037    28.929     8.820
    49   6 C        2.920    -0.029    28.723     8.789
    50   6 C        2.922    -0.047    29.156     8.855
    51   6 C        2.925     0.065    26.547     8.449
    52   6 C        2.922    -0.047    29.155     8.855
    53   6 C        2.920    -0.029    28.723     8.789
    54   6 C        2.919    -0.037    28.928     8.820
    55   6 C        2.920    -0.029    28.718     8.788
    56   6 C        2.922    -0.046    29.151     8.854
    57   6 C        2.920    -0.049    29.207     8.862
    58   6 C        2.923    -0.025    28.630     8.775
    59   7 N        1.845    -0.305    28.746     7.946
    60   6 C        2.923    -0.025    28.630     8.775
    61   6 C        2.920    -0.049    29.206     8.862
    62   6 C        2.922    -0.046    29.152     8.854
    63   6 C        2.920    -0.029    28.718     8.788
    64   1 H        0.926     0.031     2.566     2.505
    65   1 H        0.926     0.032     2.551     2.498
    66   1 H        0.926     0.032     2.552     2.498
    67   1 H        0.926     0.034     2.530     2.488
    68   1 H        0.926     0.033     2.542     2.493
    69   1 H        0.926     0.031     2.566     2.505
    70   1 H        0.926     0.033     2.551     2.498
    71   1 H        0.926     0.032     2.552     2.498
    72   1 H        0.926     0.035     2.510     2.477
    73   1 H        0.926     0.056     2.250     2.346
    74   1 H        0.926     0.056     2.252     2.347
    75   1 H        0.926     0.035     2.511     2.478
    76   1 H        0.926     0.032     2.552     2.498
    77   1 H        0.926     0.033     2.550     2.497
    78   1 H        0.926     0.032     2.565     2.504
    79   1 H        0.926     0.033     2.540     2.492
    80   1 H        0.926     0.034     2.527     2.486
    81   1 H        0.926     0.032     2.552     2.498
    82   1 H        0.926     0.033     2.550     2.497
    83   1 H        0.926     0.032     2.565     2.504
    84   1 H        0.926     0.033     2.540     2.492
    85   1 H        0.926     0.034     2.527     2.486
    86   1 H        0.926     0.035     2.511     2.478
    87   1 H        0.926     0.056     2.251     2.346
    88   1 H        0.926     0.056     2.250     2.346
    89   1 H        0.926     0.035     2.510     2.477
    90   1 H        0.926     0.034     2.530     2.487
    91   1 H        0.926     0.033     2.541     2.493
    92   1 H        0.926     0.031     2.566     2.505
    93   1 H        0.926     0.033     2.551     2.498
    94   1 H        0.926     0.032     2.552     2.498
    95   1 H        0.926     0.032     2.552     2.498
    96   1 H        0.926     0.033     2.551     2.498
    97   1 H        0.926     0.031     2.566     2.505
    98   1 H        0.926     0.033     2.541     2.493
    99   1 H        0.926     0.034     2.530     2.487
   100   1 H        0.926     0.035     2.510     2.478
   101   1 H        0.926     0.056     2.249     2.345
   102   1 H        0.926     0.056     2.250     2.346
   103   1 H        0.926     0.035     2.510     2.477
   104   1 H        0.926     0.034     2.531     2.488
   105   1 H        0.926     0.033     2.542     2.493

molecular dipole:
                 x           y           z       tot (Debye)
 q only:       -0.017       0.003      -0.001
   full:       -0.017       0.003      -0.001       0.043

 projected vibrational frequencies (cm⁻¹)
eigval :       -0.00    -0.00    -0.00     0.00     0.00     0.00
eigval :        5.39     6.33     6.36    10.43    14.94    15.26
eigval :       26.57    27.70    35.14    40.78    41.03    44.14
eigval :       46.73    47.37    57.25    61.21    63.54    64.72
eigval :       66.45    75.25    75.41    92.91    93.23   100.30
eigval :      102.73   102.97   130.52   136.72   159.69   160.44
eigval :      168.74   180.55   180.98   215.92   217.22   221.21
eigval :      235.40   236.63   236.84   281.70   282.78   295.86
eigval :      297.86   308.61   313.83   314.87   329.33   334.29
eigval :      365.36   367.35   376.05   376.85   377.13   378.04
eigval :      378.08   378.22   380.87   386.33   386.77   390.47
eigval :      398.25   400.34   408.60   434.93   435.69   471.06
eigval :      471.18   487.31   490.70   491.67   492.08   497.57
eigval :      497.86   504.07   554.13   581.11   581.34   583.20
eigval :      585.03   585.11   586.16   592.39   592.47   593.21
eigval :      605.90   606.21   613.80   614.09   614.42   627.23
eigval :      631.91   632.23   659.88   660.70   660.80   665.56
eigval :      665.64   667.76   679.25   703.00   703.08   704.89
eigval :      704.98   726.27   757.69   757.72   757.83   760.37
eigval :      760.38   761.56   776.94   826.17   826.23   826.43
eigval :      843.87   843.88   868.77   870.71   870.94   875.13
eigval :      875.17   875.29   876.33   876.56   876.59   893.66
eigval :      893.70   893.81   893.89   894.34   894.46   910.10
eigval :      910.16   910.18   915.90   920.26   920.35   922.69
eigval :      926.09   927.37   927.82   927.91   927.95   928.02
eigval :      928.93   928.98   929.43   929.70   929.76   929.90
eigval :      930.31   930.48   930.58   931.28   931.52   982.19
eigval :      986.87   986.88  1005.22  1005.24  1005.25  1009.53
eigval :     1019.90  1019.97  1045.24  1082.78  1082.82  1082.83
eigval :     1083.92  1083.94  1083.94  1088.94  1121.18  1121.54
eigval :     1121.57  1123.61  1123.69  1123.78  1125.27  1130.55
eigval :     1130.82  1162.49  1162.80  1180.64  1180.65  1180.65
eigval :     1180.73  1180.74  1180.76  1185.82  1186.15  1186.21
eigval :     1190.42  1195.13  1195.16  1195.21  1200.84  1200.88
eigval :     1210.87  1213.67  1220.52  1220.67  1259.07  1261.78
eigval :     1261.96  1278.02  1278.08  1278.11  1281.44  1281.46
eigval :     1281.47  1312.76  1313.16  1313.30  1318.82  1319.14
eigval :     1319.18  1322.63  1322.79  1323.61  1326.70  1326.89
eigval :     1326.92  1335.59  1335.71  1337.67  1368.53  1368.81
eigval :     1389.93  1415.16  1415.20  1417.16  1436.40  1436.43
eigval :     1436.76  1442.32  1442.35  1442.96  1469.27  1469.31
eigval :     1471.61  1475.19  1475.35  1475.49  1488.82  1488.95
eigval :     1496.18  1501.34  1501.58  1556.24  1560.85  1561.02
eigval :     1577.80  1577.90  1577.92  1581.60  1581.62  1581.68
eigval :     1591.43  1591.45  1592.40  1594.32  1594.42  1594.51
eigval :     1600.58  1600.76  1600.78  3076.57  3076.58  3076.61
eigval :     3077.13  3077.16  3077.20  3078.02  3078.05  3078.11
eigval :     3078.33  3078.36  3078.41  3082.58  3082.71  3082.86
eigval :     3083.75  3083.87  3084.21  3086.72  3086.75  3086.76
eigval :     3087.68  3087.71  3087.73  3090.17  3090.23  3090.33
eigval :     3090.75  3090.79  3090.88  3097.88  3097.92  3097.94
eigval :     3098.33  3098.38  3098.47  3108.35  3108.70  3108.81
eigval :     3110.31  3110.43  3111.01

   temp. (K)  partition function   enthalpy   heat capacity  entropy
                                   cal/mol     cal/K/mol   cal/K/mol   J/K/mol
 298.15  VIB  0.178E+28            30999.442    188.514    199.651
         ROT  0.344E+09              888.752      2.981     42.042
         INT  0.612E+36            31888.194    191.495    241.693
         TR   0.223E+29             1481.254      4.968     45.936
         TOT                       33369.4481   196.4633   287.6295  1203.4419

       T/K    H(0)-H(T)+PV         H(T)/Eh          T*S/Eh         G(T)/Eh
   ------------------------------------------------------------------------
    298.15    0.531776E-01    0.866924E+00    0.136662E+00    0.730262E+00
   ------------------------------------------------------------------------

         :::::::::::::::::::::::::::::::::::::::::::::::::::::
         ::                  THERMODYNAMIC                  ::
         :::::::::::::::::::::::::::::::::::::::::::::::::::::
         :: total free energy        -160.317386217923 Eh   ::
         ::.................................................::
         :: total energy             -161.047648082308 Eh   ::
         :: zero point energy           0.813746330011 Eh   ::
         :: G(RRHO) w/o ZPVE           -0.083484465626 Eh   ::
         :: G(RRHO) contrib.            0.730261864385 Eh   ::
         :::::::::::::::::::::::::::::::::::::::::::::::::::::

           -------------------------------------------------
          | TOTAL ENERGY             -161.047648082308 Eh   |
          | TOTAL ENTHALPY           -160.180724151896 Eh   |
          | TOTAL FREE ENERGY        -160.317386217923 Eh   |
          | GRADIENT NORM               0.000034499925 Eh/α |
          | HOMO-LUMO GAP               2.135795761362 eV   |
           -------------------------------------------------

 * finished run on 2025/09/11 at 23:36:54.858
