   * xtb version 6.7.1 (edcfbbe) compiled by 'albert@albert-system' on 2024-07-22

   ID    Z sym.   atoms
    1    6 C      1-4, 6-16, 18-22, 24-37, 39-43, 45-58, 60-63
    2    7 N      5, 17, 23, 38, 44, 59
    3    1 H      64-105

          program call               : xtb data2507/gas/TRZ3DPA/TRZ3DPA_gas_T1_crest.xyz --gfn 2 --spinpol --tblite --uhf 2 --ohess vtight --parallel 40 --molden --ceasefiles --namespace data2507/gas/TRZ3DPA/TRZ3DPA_gas_T1_finalOpt
 * total energy  :  -160.9714642 Eh     change        0.4647853E-07 Eh
 * total energy  :  -160.9715016 Eh     change       -0.3738316E-04 Eh
 * total energy  :  -160.9715232 Eh     change       -0.2155578E-04 Eh
 * total energy  :  -160.9715283 Eh     change       -0.5138774E-05 Eh
 * total energy  :  -160.9690968 Eh     change        0.2431525E-02 Eh
 * total energy  :  -160.9690967 Eh     change        0.4416876E-07 Eh
 * total energy  :  -160.9710301 Eh     change       -0.1933321E-02 Eh
 * total energy  :  -160.9717297 Eh     change       -0.6996599E-03 Eh
 * total energy  :  -160.9717964 Eh     change       -0.6672414E-04 Eh
 * total energy  :  -160.9718307 Eh     change       -0.3428523E-04 Eh
 * total energy  :  -160.9719775 Eh     change        0.7127025E-06 Eh
 * total energy  :  -160.9719776 Eh     change       -0.1303359E-06 Eh
 * total energy  :  -160.9719779 Eh     change       -0.2665977E-06 Eh
 * total energy  :  -160.9719779 Eh     change        0.1492370E-07 Eh
 * total energy  :  -160.9719782 Eh     change       -0.2936362E-06 Eh
 * total energy  :  -160.9719784 Eh     change       -0.2287678E-06 Eh
 * total energy  :  -160.9719787 Eh     change       -0.3086864E-06 Eh
 * total energy  :  -160.9719791 Eh     change       -0.4317276E-06 Eh
 * total energy  :  -160.9719791 Eh     change       -0.1738698E-07 Eh
   *** GEOMETRY OPTIMIZATION CONVERGED AFTER 76 ITERATIONS ***

 final structure:
================
105
 xtb: 6.7.1 (edcfbbe)
C            0.48396522852734        9.34313293832028        2.63324965037458
C            0.28297952752820        8.03444391364776        3.04319822151296
C           -0.47794348551136        7.17090865705782        2.28122165868909
C           -1.05147867229679        7.60736513458480        1.08480792952354
N           -1.81105373739534        6.73300465129878        0.30750282420125
C           -2.91847375753256        7.19302840732621       -0.40495071282575
C           -3.73461130384442        8.19840783755476        0.11866023529550
C           -4.83242029058310        8.64259665800027       -0.59069567326142
C           -5.14115545328649        8.09334374726712       -1.82518410683703
C           -4.33820657517498        7.09143688064727       -2.34721829076273
C           -3.23515924886684        6.64285984500481       -1.64907265006340
C           -1.45759915972884        5.37828500291192        0.24160082220569
C           -2.44614151011081        4.38542550149115        0.24452414728872
C           -2.10123662993726        3.05975857959925        0.17873119412317
C           -0.75193177257034        2.66945732367125        0.11167913799805
C           -0.38833737150616        1.28714786058937        0.04525509686455
N           -1.32621592479138        0.35200941890332        0.06650870634210
C           -0.97594077469723       -0.92196718150968       -0.01537600406866
C           -1.97853829889341       -1.94342382245908       -0.00750416800367
C           -3.34369169566444       -1.61561601267502        0.06930136721287
C           -4.30190560174431       -2.59675283419109        0.07578101871461
C           -3.93708712922748       -3.94741588129747        0.00144437475596
N           -4.91741640786564       -4.94906634926247        0.00331098369560
C           -6.10075585448864       -4.75826414564870       -0.71025648262924
C           -6.09176559144424       -4.05377750977500       -1.91622984240964
C           -7.26568385693191       -3.85662293688827       -2.61508552951320
C           -8.46434662465299       -4.35739783634273       -2.13188649064160
C           -8.47971107603067       -5.05661518495847       -0.93532574252941
C           -7.31265579306308       -5.25529748263462       -0.22523889229212
C           -4.69916430667215       -6.12777837235150        0.71667229150452
C           -3.99587375432931       -6.10232477219896        1.92309472922670
C           -3.77217636231198       -7.27127959516146        2.62229561086856
C           -4.24447880103798       -8.48132130356035        2.13873777653107
C           -4.94193765304014       -8.51308737463589        0.94147144220483
C           -5.16724584700500       -7.35098639553533        0.23120883207641
C           -2.57990560734611       -4.28205460847780       -0.07603416160224
C           -1.62047528510030       -3.30113456273696       -0.07818495249699
N            0.34106701651681       -1.29078104960360       -0.10346078657971
C            1.24484700120565       -0.32713172326102       -0.08455771038631
C            2.65558120573957       -0.70095418105942       -0.14064004240591
C            3.03012897984558       -2.04257756730951       -0.21036465257247
C            4.35866424819747       -2.39734977684032       -0.26494738489572
C            5.35464229375783       -1.41620538146412       -0.24641008960059
N            6.70142102800890       -1.77277779202607       -0.29979204220925
C            7.14652318997109       -2.94227498100297        0.32928328400996
C            6.61094636982635       -3.33332386165608        1.55628131138023
C            7.05500221229476       -4.48710526561384        2.17215874302430
C            8.04068681700159       -5.26256546614877        1.58355161435311
C            8.57862949050648       -4.87605318694860        0.36682393638464
C            8.13588462628443       -3.72818672761885       -0.26107115861672
C            7.61778087020368       -0.96347411660120       -0.98333299170807
C            8.90628409750841       -0.77860035627003       -0.48282215821127
C            9.80965717545333        0.01352467476878       -1.16427465293238
C            9.44420609140037        0.63772912311117       -2.34579808102987
C            8.16420292929149        0.45988236110709       -2.84514998916147
C            7.25590991237804       -0.33650395306217       -2.17546616716741
C            4.97855882272706       -0.07146835323722       -0.17365442478583
C            3.64855554315068        0.27829903260114       -0.12369288591362
N            0.93940335948693        0.95628302194909       -0.02971777949180
C            0.23408049000717        3.67191754860030        0.11030058159340
C           -0.11197661613142        4.99815149659621        0.17180451443943
C           -0.84077033907835        8.92564715512466        0.67397347430222
C           -0.08197953327175        9.78182297725153        1.44657938833842
H            1.07819174302804       10.01556593027632        3.23295597253121
H            0.71659774079210        7.68540623273330        3.96869394855048
H           -0.64280080730016        6.15472919665078        2.60728175552236
H           -3.50611621015162        8.61702739247285        1.08786278472118
H           -5.45768577285869        9.41757625401364       -0.17230031913302
H           -6.00172109272367        8.44241525640850       -2.37517642441867
H           -4.56891810938729        6.66076345150506       -3.31037609927328
H           -2.60421819211997        5.86983092762428       -2.06191584598489
H           -3.48454615445053        4.67757082492829        0.31108838559353
H           -2.85858613728265        2.29174467414434        0.18889901878059
H           -3.61967112816247       -0.57487401853280        0.13415932484819
H           -5.34866972856219       -2.33813008672244        0.14952953888441
H           -5.15694031807221       -3.67269631179234       -2.29961205721947
H           -7.24376219378230       -3.31420646344396       -3.54872187346712
H           -9.37965241429624       -4.20277711370519       -2.68254325828141
H           -9.41059823982869       -5.44282635104285       -0.54686146909207
H           -7.33067985846766       -5.78642464986691        0.71517436869147
H           -3.63699201240448       -5.15876833487677        2.30655181046745
H           -3.23140163311030       -7.23673015915449        3.55651760148510
H           -4.06919601511047       -9.39273078457090        2.68967704934574
H           -5.30584494008591       -9.45277679792031        0.55265750493506
H           -5.69701488081165       -7.38135709991009       -0.70965443384215
H           -2.29758019913967       -5.32298389452338       -0.14600491638625
H           -0.57395789051115       -3.55391099981158       -0.14597934062259
H            2.25825391239059       -2.79606752247140       -0.23203737899051
H            4.64170971638610       -3.43771117665663       -0.33218364329869
H            5.85033850939134       -2.72412259958968        2.02206392720812
H            6.63407613546393       -4.77780836269563        3.12335656407609
H            8.38743869749756       -6.16165654689619        2.06979259986430
H            9.34368647347399       -5.47733364820869       -0.10188360301240
H            8.54962849107224       -3.43362225579532       -1.21443522169448
H            9.18994827189013       -1.25668051344854        0.44337460065763
H           10.80375507570061        0.15079445236321       -0.76493892463575
H           10.15211658351594        1.25819991343491       -2.87391696398723
H            7.87258995034034        0.93794583627821       -3.76865530122018
H            6.26196007886026       -0.48287928852617       -2.57200339043776
H            5.74311002040398        0.69128493884428       -0.14778299429200
H            3.35432803780899        1.31434669988260       -0.06040726067503
H            1.26922129639756        3.37466745503932        0.04873260356346
H            0.65099255177473        5.76352640079828        0.15579972638763
H           -1.26692472410467        9.26595428448749       -0.25844026946046
H            0.07665895490165       10.79749440180751        1.11512932186951

 projected vibrational frequencies (cm⁻¹)
eigval :       -0.00    -0.00     0.00     0.00     0.00     0.00
eigval :        3.38     6.23     8.51    10.04    13.35    14.81
eigval :       25.76    27.51    35.05    39.96    40.87    44.60
eigval :       49.29    50.28    56.79    60.31    63.46    64.09
eigval :       67.97    75.81    76.62    93.20    96.40   100.56
eigval :      104.89   108.25   126.32   136.57   155.87   161.31
eigval :      172.65   176.73   185.93   213.06   213.86   219.00
eigval :      230.94   233.15   235.01   276.28   285.52   290.60
eigval :      295.27   309.48   311.15   314.00   324.56   329.62
eigval :      345.89   360.16   375.93   376.66   376.83   377.04
eigval :      377.79   378.20   381.44   384.15   386.11   388.02
eigval :      390.06   393.81   396.70   405.19   417.90   448.10
eigval :      462.47   463.91   474.63   477.95   485.04   497.83
eigval :      498.86   501.47   549.28   553.51   558.16   569.33
eigval :      575.93   580.87   583.66   585.37   588.37   589.74
eigval :      590.23   591.71   592.49   594.70   601.76   608.15
eigval :      611.94   624.92   625.79   653.46   657.43   659.17
eigval :      661.06   661.90   662.51   666.04   672.46   677.33
eigval :      687.25   689.12   693.51   722.15   755.28   755.36
eigval :      757.29   758.37   758.87   760.54   805.18   806.84
eigval :      807.98   815.73   821.41   851.35   852.15   867.44
eigval :      870.82   870.88   873.83   874.28   874.45   875.52
eigval :      890.68   890.70   892.76   893.42   893.46   893.96
eigval :      905.14   906.07   909.17   909.92   910.00   910.13
eigval :      915.59   916.19   918.22   920.43   923.96   925.63
eigval :      926.22   926.22   927.55   927.57   927.62   927.65
eigval :      927.69   929.12   929.36   929.41   929.48   929.82
eigval :      948.85   980.34   982.61   985.40   999.42  1002.25
eigval :     1002.30  1004.80  1008.42  1014.84  1038.94  1081.53
eigval :     1081.67  1082.43  1082.44  1082.72  1083.72  1110.38
eigval :     1113.17  1121.10  1121.71  1121.74  1123.81  1123.88
eigval :     1124.40  1124.47  1130.85  1131.27  1172.84  1174.91
eigval :     1179.82  1179.86  1179.94  1179.97  1180.24  1180.43
eigval :     1180.61  1184.32  1186.18  1189.00  1193.30  1193.37
eigval :     1194.72  1198.77  1210.28  1212.20  1219.70  1255.89
eigval :     1257.67  1257.75  1270.65  1276.76  1276.81  1277.64
eigval :     1278.22  1280.79  1282.29  1307.46  1311.61  1312.28
eigval :     1312.96  1313.70  1318.64  1319.05  1320.71  1320.91
eigval :     1326.92  1328.44  1328.64  1331.41  1333.70  1336.19
eigval :     1349.13  1354.49  1398.91  1417.73  1422.42  1424.97
eigval :     1435.14  1435.62  1437.50  1442.28  1443.26  1443.68
eigval :     1455.50  1464.82  1465.31  1466.41  1466.56  1469.72
eigval :     1474.32  1475.53  1489.35  1507.38  1508.62  1554.01
eigval :     1559.22  1568.11  1568.21  1571.47  1572.76  1573.50
eigval :     1576.65  1580.37  1585.16  1585.26  1586.25  1591.51
eigval :     1592.51  1593.09  1598.58  3074.25  3074.56  3075.80
eigval :     3076.13  3077.05  3077.06  3077.18  3077.76  3077.77
eigval :     3077.85  3078.71  3078.97  3079.82  3079.84  3080.03
eigval :     3080.07  3082.32  3083.49  3087.19  3087.60  3087.67
eigval :     3088.25  3089.00  3089.06  3090.95  3091.57  3092.48
eigval :     3092.53  3092.84  3092.90  3098.25  3098.37  3098.41
eigval :     3098.84  3098.89  3099.05  3101.22  3101.46  3102.29
eigval :     3103.22  3103.64  3104.50

   temp. (K)  partition function   enthalpy   heat capacity  entropy
                                   cal/mol     cal/K/mol   cal/K/mol   J/K/mol
 298.15  VIB  0.339E+28            31433.098    191.868    202.143
         ROT  0.344E+09              888.752      2.981     42.041
         INT  0.116E+37            32321.850    194.849    244.184
         TR   0.223E+29             1481.254      4.968     45.936
         TOT                       33803.1039   199.8169   290.1204  1213.8637

       T/K    H(0)-H(T)+PV         H(T)/Eh          T*S/Eh         G(T)/Eh
   ------------------------------------------------------------------------
    298.15    0.538687E-01    0.861056E+00    0.137846E+00    0.723210E+00
   ------------------------------------------------------------------------

         :::::::::::::::::::::::::::::::::::::::::::::::::::::
         ::                  THERMODYNAMIC                  ::
         :::::::::::::::::::::::::::::::::::::::::::::::::::::
         :: total free energy        -160.248768863915 Eh   ::
         ::.................................................::
         :: total energy             -160.971979097581 Eh   ::
         :: zero point energy           0.807187112907 Eh   ::
         :: G(RRHO) w/o ZPVE           -0.083976879240 Eh   ::
         :: G(RRHO) contrib.            0.723210233666 Eh   ::
         :::::::::::::::::::::::::::::::::::::::::::::::::::::

           -------------------------------------------------
          | TOTAL ENERGY             -160.971979097581 Eh   |
          | TOTAL ENTHALPY           -160.110923309776 Eh   |
          | TOTAL FREE ENERGY        -160.248768863915 Eh   |
          | GRADIENT NORM               0.000140385659 Eh/α |
           -------------------------------------------------

 * finished run on 2025/09/12 at 00:18:50.458
