   * xtb version 6.7.1 (edcfbbe) compiled by 'albert@albert-system' on 2024-07-22

   ID    Z sym.   atoms
    1    6 C      1-4, 6-16, 18-22, 24-37, 39-43, 45-58, 60-63
    2    7 N      5, 17, 23, 38, 44, 59
    3    1 H      64-105

          program call               : xtb data2507/gas/TRZ3DPA/TRZ3DPA_gas_S0_finalOpt.xtbopt.xyz --gfn 2 --spinpol --tblite --uhf 2 --ohess vtight --parallel 40 --molden --ceasefiles --namespace data2507/gas/TRZ3DPA/TRZ3DPA_gas_T1_preOpt
 * total energy  :  -160.9689084 Eh     change       -0.1672365E-07 Eh
 * total energy  :  -160.9704982 Eh     change       -0.1589827E-02 Eh
 * total energy  :  -160.9710619 Eh     change       -0.5636850E-03 Eh
 * total energy  :  -160.9710933 Eh     change       -0.3143409E-04 Eh
 * total energy  :  -160.9711188 Eh     change       -0.2544470E-04 Eh
 * total energy  :  -160.9711323 Eh     change       -0.1352623E-04 Eh
 * total energy  :  -160.9711547 Eh     change       -0.2243708E-04 Eh
 * total energy  :  -160.9712009 Eh     change       -0.4616943E-04 Eh
 * total energy  :  -160.9713095 Eh     change       -0.1085433E-03 Eh
 * total energy  :  -160.9713478 Eh     change       -0.3839961E-04 Eh
 * total energy  :  -160.9719107 Eh     change       -0.9756093E-06 Eh
 * total energy  :  -160.9719114 Eh     change       -0.6561744E-06 Eh
 * total energy  :  -160.9719121 Eh     change       -0.7103351E-06 Eh
 * total energy  :  -160.9719126 Eh     change       -0.5286022E-06 Eh
 * total energy  :  -160.9719131 Eh     change       -0.5105705E-06 Eh
 * total energy  :  -160.9719136 Eh     change       -0.4809270E-06 Eh
 * total energy  :  -160.9719142 Eh     change       -0.5891461E-06 Eh
 * total energy  :  -160.9719142 Eh     change        0.3142873E-08 Eh
 * total energy  :  -160.9719142 Eh     change       -0.3905299E-07 Eh
   *** GEOMETRY OPTIMIZATION CONVERGED AFTER 95 ITERATIONS ***

 final structure:
================
105
 xtb: 6.7.1 (edcfbbe)
C            8.11239012907167        4.90460500385346       -2.18058502256963
C            7.08108395555626        4.11022598831533       -2.65652088938534
C            6.64389097514106        3.02073060142051       -1.93041975037472
C            7.23538229885369        2.70942489121949       -0.70405538946520
N            6.78808941668124        1.61574695128799        0.03753075626730
C            7.68405796056367        0.85190942885045        0.78576621675181
C            8.98034055419058        0.61821460983636        0.32082520210267
C            9.85887435989735       -0.14410055240986        1.06423636416008
C            9.46431523878669       -0.69106701201943        2.27506401607391
C            8.17750103884582       -0.46722022427011        2.73885300107967
C            7.29216027480014        0.29772575753656        2.00644059234498
C            5.42710331870467        1.28192012249389        0.03089279077965
C            5.02482435671410       -0.06004197681655        0.00466640483501
C            3.69322426378323       -0.38771692794612        0.00134287610356
C            2.70537646012735        0.61307208210097        0.01690907434564
C            1.31528592914519        0.27426708800044        0.00926339549793
N            0.94155196971251       -0.99639670557004        0.00367310072050
C           -0.34770936375172       -1.29595020064646       -0.00538525272540
C           -0.76649042679735       -2.66460082581041       -0.00984918182796
C           -2.13210699640087       -2.99745308005851       -0.03682191359288
C           -2.53591805952086       -4.30881342703106       -0.04533835748985
C           -1.59222082397238       -5.34267017543831       -0.02010384771084
N           -2.00425908353390       -6.68188599168698       -0.02622203013809
C           -1.28903286720709       -7.62243761432714       -0.76803567836893
C           -0.70774601464355       -7.26694745257408       -1.98717312539485
C            0.00887938628013       -8.19702187583267       -2.71302500380242
C            0.15678929538603       -9.49285396859198       -2.24398626373253
C           -0.41759306916854       -9.85144820081474       -1.03468320032637
C           -1.13213442747562       -8.92829784745217       -0.29787796723158
C           -3.12720629490692       -7.06396803646409        0.70823199169952
C           -3.99023655064568       -8.05059438669421        0.22583638181086
C           -5.10263710077624       -8.41881566052235        0.95567167769872
C           -5.37943791435586       -7.81095801651148        2.17007719222453
C           -4.52950469898589       -6.82751106781143        2.65127693477744
C           -3.41158169739949       -6.45479861188643        1.93241146742973
C           -0.22932328280347       -5.01895230378605        0.01075920548924
C            0.17513212456296       -3.70853567432343        0.01227547178151
N           -1.30302391182170       -0.31318533338274       -0.01550801985604
C           -0.88600639282549        0.94034740349284       -0.00316647491075
C           -1.88897271083069        2.00218604712990       -0.00647004854921
C           -3.24731230491329        1.69293701050804        0.05885928411035
C           -4.19421674471188        2.69154058140954        0.06109963180400
C           -3.80832968538686        4.03362134149175       -0.01063333677799
N           -4.76531561146746        5.04692387422830       -0.01149960547280
C           -6.00600609824936        4.84652210742878       -0.63044245893701
C           -6.09451916796190        4.13186328585545       -1.82479462802375
C           -7.32130406126616        3.93831938087922       -2.42923914011366
C           -8.47348254178078        4.45784684588868       -1.86181355285199
C           -8.38991463863154        5.17284482717484       -0.67820531407155
C           -7.16890669369412        5.36522524064773       -0.06170424411395
C           -4.49507704305713        6.27382375249054        0.60844554036446
C           -4.94634309032694        7.46471166009203        0.04015225638647
C           -4.68520071931436        8.67238108831470        0.65764992103681
C           -3.96743886000847        8.71433459947958        1.84179357083180
C           -3.51477586127891        7.53408393328825        2.40879921286494
C           -3.77744826414516        6.32072048223697        1.80337842359326
C           -2.44636361207504        4.34255025351136       -0.08099655165103
C           -1.50303556123334        3.34060068358373       -0.07458756215811
N            0.38870541513368        1.28438587772955        0.01231128971146
C            3.11714468343855        1.95732699837915        0.03999955989121
C            4.44966017666254        2.28419409030559        0.05033370584596
C            8.27052086906923        3.51686174434335       -0.22694445422186
C            8.70298240147155        4.60097087899368       -0.96405879091307
H            8.45234370129085        5.75452763482241       -2.75240313724229
H            6.61822593270611        4.33694361844887       -3.60559860071527
H            5.84780492001046        2.39618957736887       -2.30765044152516
H            9.28559126285577        1.02949778691169       -0.63021975261416
H           10.85694884603035       -0.32054966585496        0.69097986747631
H           10.15393669813766       -1.28831411396687        2.85180125111224
H            7.86305313117725       -0.88602968597048        3.68335786678600
H            6.29349741722912        0.48046806388369        2.37436529151795
H            5.77813806389951       -0.83444011848571       -0.02458329151434
H            3.37940258738351       -1.41936024202798       -0.02604539414514
H           -2.85583742916731       -2.19799432907491       -0.06395085463588
H           -3.58731871289576       -4.55628155497407       -0.08308122006613
H           -0.83146437186892       -6.26073791896487       -2.35911442929542
H            0.44932304119383       -7.91027354284880       -3.65650657298513
H            0.71651193543420      -10.21738059432692       -2.81554583797607
H           -0.30014984336274      -10.85667330497515       -0.65741132971313
H           -1.56504723376604       -9.20629199934475        0.65193042303546
H           -3.78580288859961       -8.51481584114024       -0.72785842760401
H           -5.76413789305499       -9.18005662266649        0.56897037984087
H           -6.25152760576479       -8.10054718176886        2.73621778308637
H           -4.73516774166738       -6.35188145987275        3.59883945990318
H           -2.74426194554086       -5.69623740527548        2.31371297495444
H            0.49994604914226       -5.81583219269981        0.04472146208161
H            1.22315688741053       -3.45507462265441        0.04296424360612
H           -3.54117036846359        0.65667484344669        0.12054027153612
H           -5.24385704708898        2.44510742816545        0.12784871558541
H           -5.19599379440552        3.73547037667680       -2.27436813764090
H           -7.37646276293082        3.38481249077095       -3.35500303086777
H           -9.42984863494461        4.30686017281892       -2.33889781809341
H           -9.28357473274400        5.57729962485330       -0.22618200579077
H           -7.10680765596942        5.91478962005888        0.86619659011717
H           -5.49795196545474        7.43457090416650       -0.88812501220622
H           -5.03782624513383        9.58792079732038        0.20601347811628
H           -3.76258327665430        9.66023525345175        2.31964759631986
H           -2.95971230063579        7.55699741868270        3.33498854077490
H           -3.43323928012483        5.40079027737091        2.25264127824256
H           -2.14072152866320        5.37639198308205       -0.14943970281596
H           -0.45164810159291        3.57506017229054       -0.13467028062500
H            2.36105441652589        2.72639108305804        0.06249155889192
H            4.75783373928557        3.31955408112456        0.08487290296000
H            8.72185582745379        3.29233556499396        0.72841113806491
H            9.50145409406966        5.21956371789860       -0.58144550546452

 projected vibrational frequencies (cm⁻¹)
eigval :       -0.00    -0.00    -0.00     0.00     0.00     0.00
eigval :        6.23     8.34     8.73    10.20    14.28    14.34
eigval :       26.81    27.81    33.75    41.25    41.26    44.76
eigval :       48.86    49.85    57.16    60.29    63.67    64.02
eigval :       68.44    75.41    76.45    93.44    96.86   101.07
eigval :      104.66   108.19   126.13   136.28   155.15   161.37
eigval :      172.57   176.90   184.63   212.85   213.41   220.46
eigval :      231.32   233.20   235.11   274.59   285.73   292.95
eigval :      297.88   309.38   311.15   313.22   314.67   337.27
eigval :      347.93   356.60   376.03   376.26   377.07   377.23
eigval :      377.76   377.96   381.10   385.50   386.16   389.54
eigval :      390.18   391.76   402.57   408.69   410.40   448.35
eigval :      461.69   464.03   474.81   477.88   485.43   498.08
eigval :      499.40   501.22   549.09   553.09   558.78   570.79
eigval :      575.82   580.72   583.70   585.40   587.07   588.66
eigval :      590.10   590.83   592.09   592.78   604.52   608.42
eigval :      612.48   625.27   628.55   653.47   657.59   659.30
eigval :      661.17   662.17   662.83   666.15   672.25   676.45
eigval :      686.91   689.83   693.37   722.08   755.55   755.61
eigval :      757.61   758.65   759.11   760.75   805.38   807.19
eigval :      807.92   816.05   822.16   850.39   852.86   867.41
eigval :      871.17   871.27   873.47   874.14   874.87   875.34
eigval :      891.02   891.07   892.82   893.60   893.88   894.25
eigval :      905.63   906.55   908.84   909.93   910.01   910.26
eigval :      915.37   916.92   918.66   920.92   924.54   925.97
eigval :      926.45   926.49   927.86   927.89   927.92   927.96
eigval :      928.03   929.19   929.37   929.49   929.76   930.19
eigval :      949.24   980.77   982.74   985.44  1000.64  1002.26
eigval :     1002.33  1004.84  1008.70  1015.11  1043.37  1081.66
eigval :     1081.75  1082.53  1082.54  1082.61  1083.64  1113.20
eigval :     1116.22  1121.27  1121.76  1121.91  1123.81  1124.43
eigval :     1124.56  1124.70  1131.56  1132.92  1174.54  1175.89
eigval :     1180.16  1180.18  1180.28  1180.29  1180.61  1180.76
eigval :     1181.53  1184.62  1186.29  1189.62  1193.60  1193.62
eigval :     1194.96  1199.15  1210.64  1212.63  1220.46  1256.35
eigval :     1258.13  1258.23  1270.99  1276.96  1276.98  1277.85
eigval :     1278.46  1281.04  1282.67  1307.64  1311.36  1312.03
eigval :     1312.55  1313.85  1318.69  1318.89  1320.59  1320.72
eigval :     1326.70  1328.43  1328.53  1331.97  1333.83  1336.35
eigval :     1349.19  1354.39  1398.94  1417.66  1422.62  1425.12
eigval :     1435.16  1435.58  1436.90  1442.11  1442.84  1443.07
eigval :     1455.59  1464.65  1465.40  1466.43  1466.58  1469.54
eigval :     1473.98  1476.13  1489.56  1507.42  1508.85  1554.21
eigval :     1559.31  1567.95  1568.15  1571.69  1572.67  1573.63
eigval :     1576.58  1580.25  1584.99  1585.14  1586.33  1591.44
eigval :     1591.69  1592.76  1597.64  3074.54  3074.77  3075.97
eigval :     3076.23  3077.12  3077.15  3077.25  3077.85  3077.86
eigval :     3077.94  3078.88  3079.11  3079.95  3080.00  3080.18
eigval :     3080.23  3082.73  3083.83  3087.27  3087.63  3087.69
eigval :     3088.17  3089.01  3089.06  3091.00  3091.58  3092.52
eigval :     3092.61  3092.89  3092.98  3098.23  3098.27  3098.47
eigval :     3098.96  3098.99  3099.14  3101.33  3101.45  3102.47
eigval :     3103.31  3103.54  3104.58

   temp. (K)  partition function   enthalpy   heat capacity  entropy
                                   cal/mol     cal/K/mol   cal/K/mol   J/K/mol
 298.15  VIB  0.123E+28            31418.141    191.844    201.132
         ROT  0.172E+09              888.752      2.981     40.664
         INT  0.212E+36            32306.894    194.825    241.796
         TR   0.223E+29             1481.254      4.968     45.936
         TOT                       33788.1474   199.7931   287.7319  1203.8703

       T/K    H(0)-H(T)+PV         H(T)/Eh          T*S/Eh         G(T)/Eh
   ------------------------------------------------------------------------
    298.15    0.538448E-01    0.861151E+00    0.136711E+00    0.724440E+00
   ------------------------------------------------------------------------

         :::::::::::::::::::::::::::::::::::::::::::::::::::::
         ::                  THERMODYNAMIC                  ::
         :::::::::::::::::::::::::::::::::::::::::::::::::::::
         :: total free energy        -160.247473929830 Eh   ::
         ::.................................................::
         :: total energy             -160.971914216101 Eh   ::
         :: zero point energy           0.807306157949 Eh   ::
         :: G(RRHO) w/o ZPVE           -0.082865871678 Eh   ::
         :: G(RRHO) contrib.            0.724440286271 Eh   ::
         :::::::::::::::::::::::::::::::::::::::::::::::::::::

           -------------------------------------------------
          | TOTAL ENERGY             -160.971914216101 Eh   |
          | TOTAL ENTHALPY           -160.110763217829 Eh   |
          | TOTAL FREE ENERGY        -160.247473929830 Eh   |
          | GRADIENT NORM               0.000112478096 Eh/α |
           -------------------------------------------------

 * finished run on 2025/09/11 at 23:49:58.877
