   * xtb version 6.7.1 (edcfbbe) compiled by 'albert@albert-system' on 2024-07-22

   ID    Z sym.   atoms
    1    6 C      1-4, 6-16, 18-22, 24-37, 39-43, 45-58, 60-63
    2    7 N      5, 17, 23, 38, 44, 59
    3    1 H      64-105

          program call               : xtb data2507/gas/TRZ3DPA/TRZ3DPA_gas_S0_crest.xyz --gfn 2 --ohess vtight --parallel 40 --molden --ceasefiles --namespace data2507/gas/TRZ3DPA/TRZ3DPA_gas_S0_finalOpt
          :  Hamiltonian                  GFN2-xTB          :
 * total energy  :  -161.0476497 Eh     change       -0.1676369E-08 Eh
 * total energy  :  -161.0476512 Eh     change       -0.1493932E-05 Eh
 * total energy  :  -161.0476532 Eh     change       -0.1925758E-05 Eh
 * total energy  :  -161.0476551 Eh     change       -0.1932871E-05 Eh
 * total energy  :  -161.0476574 Eh     change       -0.2348442E-05 Eh
 * total energy  :  -161.0476609 Eh     change       -0.3488652E-05 Eh
 * total energy  :  -161.0476645 Eh     change       -0.3522344E-05 Eh
 * total energy  :  -161.0476662 Eh     change       -0.1791046E-05 Eh
 * total energy  :  -161.0476666 Eh     change       -0.3374450E-06 Eh
 * total energy  :  -161.0476673 Eh     change       -0.6748330E-06 Eh
 * total energy  :  -161.0477019 Eh     change       -0.4406394E-06 Eh
 * total energy  :  -161.0477025 Eh     change       -0.5390283E-06 Eh
 * total energy  :  -161.0477030 Eh     change       -0.5245255E-06 Eh
 * total energy  :  -161.0477035 Eh     change       -0.4804267E-06 Eh
 * total energy  :  -161.0477040 Eh     change       -0.4898467E-06 Eh
 * total energy  :  -161.0477045 Eh     change       -0.5703530E-06 Eh
 * total energy  :  -161.0477052 Eh     change       -0.7051843E-06 Eh
 * total energy  :  -161.0477060 Eh     change       -0.7319490E-06 Eh
 * total energy  :  -161.0477060 Eh     change       -0.9164751E-08 Eh
   *** GEOMETRY OPTIMIZATION CONVERGED AFTER 68 ITERATIONS ***

 final structure:
================
105
 xtb: 6.7.1 (edcfbbe)
C            8.11094603927874        5.09182795203526       -1.87118034999118
C            7.08625636362161        4.34836857527617       -2.43369173737533
C            6.63879964274274        3.19539993804143       -1.81856865625022
C            7.20962447751615        2.77388271935457       -0.61817445231768
N            6.76136352336998        1.60383727621133        0.00989583303318
C            7.68912075850177        0.76055386714143        0.63646104614567
C            8.94522945039164        0.54949289250592        0.06943285449786
C            9.86131640631964       -0.27323807761788        0.69571942554181
C            9.53988263078598       -0.90231986532657        1.88727430493770
C            8.29180898316019       -0.69818294284046        2.45276895489531
C            7.37189978284319        0.12921855959542        1.83863007010769
C            5.40653028235834        1.28205053262892        0.01074628947802
C            4.99262005208893       -0.05243860427754       -0.05040936280989
C            3.65334359833172       -0.36787530142921       -0.04985822463548
C            2.68703512766498        0.63672893799933        0.00879410403955
C            1.26849898371479        0.30026559332817        0.00576776258359
N            0.93252968690364       -0.98777149843035        0.01110591102957
C           -0.37277781331728       -1.24868925144651        0.00387557836069
C           -0.79076475822139       -2.64529945715237        0.00270977299202
C           -2.14131574415609       -2.98015351151145       -0.09866176895739
C           -2.53790669194369       -4.29765167205074       -0.10362718739747
C           -1.59224120520789       -5.32308545628772       -0.00203700732454
N           -1.99109215590155       -6.65705232166775       -0.00509322060745
C           -1.17836843598125       -7.63719092942697       -0.59139593340703
C           -0.48412259810846       -7.36845146233631       -1.77045235027144
C            0.31306337996004       -8.33974748755645       -2.34412498105092
C            0.42405282614956       -9.59145482109169       -1.76095179723740
C           -0.26824784776550       -9.86481642771269       -0.59267972578263
C           -1.06134785003810       -8.89741777151299       -0.00659998392310
C           -3.20956940558601       -7.03348338069040        0.57655295354484
C           -3.99645837646897       -8.02150396333827       -0.01384489376229
C           -5.19131635904342       -8.39860493987837        0.56789369470542
C           -5.62364171007543       -7.79505248491667        1.73737488907747
C           -4.84664611107169       -6.81066069861776        2.32595613602225
C           -3.64622594628822       -6.43258987951302        1.75665751799715
C           -0.23882922480819       -4.98607280391797        0.10221705047578
C            0.15364876715978       -3.66735740947968        0.10181572953404
N           -1.32027967973959       -0.31377545481013       -0.00279429309243
C           -0.89358791985097        0.94712073483905       -0.00399233779167
C           -1.89432900885806        2.00715541340415       -0.00649442779118
C           -3.25195889641203        1.69946860099889        0.08607001462192
C           -4.19811831388894        2.69838718309876        0.08852603756849
C           -3.81332564683241        4.03965231824490       -0.00690698281122
N           -4.76861728967278        5.05240844912490       -0.00554558757157
C           -6.02504576016006        4.84249196063189       -0.59043120062016
C           -6.14253631219089        4.11285463714062       -1.77286879089139
C           -7.38373306174560        3.91181873610599       -2.34475815651699
C           -8.52159603183341        4.43935526403186       -1.75641630478946
C           -8.40907401227735        5.16986571981169       -0.58486383266332
C           -7.17327246899577        5.36935589693166       -0.00062527282854
C           -4.48481296242118        6.29199807940400        0.58432462496579
C           -4.94290231751982        7.47167318671336       -0.00072654760328
C           -4.67025925008823        8.69116027253527        0.58825364350517
C           -3.93400255708207        8.75553059068456        1.75985173921168
C           -3.47483767934616        7.58609718916853        2.34359845989952
C           -3.74931991594177        6.36130718903789        1.76693503407569
C           -2.45215627771726        4.34666041565464       -0.10294277687688
C           -1.50915880025913        3.34479201365459       -0.09992262083771
N            0.38987762872031        1.30022315978212       -0.00263606043661
C            3.09884973617656        1.96832594629096        0.06950355144724
C            4.43703705703977        2.28818798466703        0.07212861775811
C            8.23869782697260        3.52689069884481       -0.05438233621982
C            8.68497450985581        4.67386450742440       -0.68179203134867
H            8.46012412571396        5.99038536428288       -2.35674658094878
H            6.63702306437314        4.66338996366145       -3.36401879890390
H            5.84721102894715        2.61106485146987       -2.26424716968971
H            9.19453979995099        1.03260429276991       -0.86403720030994
H           10.83038857850426       -0.43023346676629        0.24534173434673
H           10.25730129118541       -1.54672836750406        2.37220976463408
H            8.03486083043104       -1.17986780070974        3.38471237154562
H            6.40322255355496        0.29583308140075        2.28651532856236
H            5.73541696222223       -0.83466335375824       -0.10834559575548
H            3.32977715321454       -1.39510133988397       -0.10692756106560
H           -2.86657920945975       -2.18671088738659       -0.18602624472644
H           -3.58421654861032       -4.54992531032140       -0.19608868083797
H           -0.57807113794855       -6.39659216596199       -2.23237372151550
H            0.84443684695613       -8.11987227330460       -3.25838189677132
H            1.04530251882500      -10.34888667976007       -2.21423736355235
H           -0.18416148199735      -10.83657419722338       -0.12877354060931
H           -1.59388596351328       -9.10951427691735        0.90901884680240
H           -3.66492909418347       -8.48732416235704       -0.93037862356011
H           -5.79272109567620       -9.16391938935498        0.09969733959424
H           -6.55934522046791       -8.09018891614625        2.18735081616381
H           -5.17310592177889       -6.33896809704246        3.24110876099361
H           -3.03644583935700       -5.67267111796967        2.22291584069829
H            0.49677366395459       -5.77199884404541        0.19257581694521
H            1.19552416522960       -3.40317615171143        0.19052586221988
H           -3.54407321149967        0.66456908567381        0.16873754506095
H           -5.24671022497801        2.45341584670035        0.17442878863633
H           -5.25521557053377        3.70998504419628       -2.23875927127898
H           -7.46147835075746        3.34630620687197       -3.26166330459660
H           -9.48931193365552        4.28280162775116       -2.20823092044840
H           -9.29134832869329        5.58122387472423       -0.11693006594325
H           -7.08827463488232        5.93208281928940        0.91754774760557
H           -5.51006411253943        7.42370122222338       -0.91885624519058
H           -5.02862782872491        9.59815597398399        0.12402800251762
H           -3.72008177767773        9.71047624865024        2.21529264888883
H           -2.90553883054669        7.62647552588200        3.26056147472377
H           -3.39976906372400        5.44979317634483        2.22915643205861
H           -2.14741258227978        5.37947844071434       -0.18874073093288
H           -0.45915857874894        3.57706049143802       -0.18183092798783
H            2.34818178757783        2.74063614940076        0.12585052943846
H            4.74911076371106        3.32071280035442        0.13105602959062
H            8.68173280868086        3.20720941765810        0.87751556441676
H            9.48148744948515        5.24962359328704       -0.23385155117898

          :  Hamiltonian                  GFN2-xTB          :
         :: gradient norm              0.000067636978 Eh/a0 ::
         :: HOMO-LUMO gap              2.145065282745 eV    ::
         :: SCC energy              -164.027799042518 Eh    ::
         :: -> dispersion             -0.143332260537 Eh    ::
         :: repulsion energy           2.980093074360 Eh    ::

    * Orbital Energies and Occupations

         #    Occupation            Energy/Eh            Energy/eV
      -------------------------------------------------------------
         1        2.0000           -0.6669414             -18.1484
       ...           ...                  ...                  ...
       138        2.0000           -0.4060327             -11.0487
       139        2.0000           -0.4059725             -11.0471
       140        2.0000           -0.4040214             -10.9940
       141        2.0000           -0.4040101             -10.9937
       142        2.0000           -0.4039715             -10.9926
       143        2.0000           -0.4032962             -10.9742
       144        2.0000           -0.4005597             -10.8998
       145        2.0000           -0.4005342             -10.8991
       146        2.0000           -0.3555058              -9.6738
       147        2.0000           -0.3554915              -9.6734
       148        2.0000           -0.3513724              -9.5613
       149        2.0000           -0.3513423              -9.5605
       150        2.0000           -0.3504331              -9.5358 (HOMO)
       151                         -0.2716033              -7.3907 (LUMO)
       152                         -0.2715413              -7.3890
       153                         -0.2384347              -6.4881
       154                         -0.2316161              -6.3026
       155                         -0.2315813              -6.3016
       156                         -0.2314947              -6.2993
       157                         -0.2276636              -6.1950
       158                         -0.2276320              -6.1942
       159                         -0.2275630              -6.1923
       160                         -0.2227851              -6.0623
       161                         -0.2227314              -6.0608
       ...                                ...                  ...
       294                          0.7069956              19.2383
      -------------------------------------------------------------
                  HL-Gap            0.0788298 Eh            2.1451 eV

     #   Z          covCN         q      C6AA      α(0)
     1   6 C        2.919    -0.037    28.928     8.820
     2   6 C        2.920    -0.029    28.718     8.788
     3   6 C        2.922    -0.046    29.151     8.854
     4   6 C        2.925     0.065    26.547     8.450
     5   7 N        2.752    -0.070    22.602     7.061
     6   6 C        2.925     0.065    26.547     8.449
     7   6 C        2.922    -0.047    29.155     8.855
     8   6 C        2.920    -0.029    28.723     8.789
     9   6 C        2.919    -0.037    28.928     8.820
    10   6 C        2.920    -0.029    28.718     8.788
    11   6 C        2.922    -0.046    29.150     8.854
    12   6 C        2.924     0.069    26.459     8.435
    13   6 C        2.920    -0.049    29.209     8.863
    14   6 C        2.923    -0.025    28.631     8.775
    15   6 C        2.984    -0.010    28.263     8.721
    16   6 C        2.980     0.200    23.754     7.995
    17   7 N        1.844    -0.305    28.747     7.946
    18   6 C        2.980     0.200    23.753     7.995
    19   6 C        2.984    -0.010    28.264     8.721
    20   6 C        2.923    -0.025    28.631     8.775
    21   6 C        2.920    -0.049    29.212     8.863
    22   6 C        2.924     0.069    26.459     8.435
    23   7 N        2.752    -0.070    22.601     7.061
    24   6 C        2.925     0.065    26.547     8.450
    25   6 C        2.922    -0.046    29.149     8.854
    26   6 C        2.920    -0.029    28.718     8.788
    27   6 C        2.919    -0.037    28.927     8.820
    28   6 C        2.920    -0.029    28.723     8.789
    29   6 C        2.922    -0.046    29.154     8.854
    30   6 C        2.925     0.065    26.547     8.450
    31   6 C        2.922    -0.046    29.155     8.855
    32   6 C        2.920    -0.029    28.723     8.789
    33   6 C        2.919    -0.037    28.927     8.820
    34   6 C        2.920    -0.029    28.718     8.788
    35   6 C        2.922    -0.046    29.150     8.854
    36   6 C        2.920    -0.049    29.212     8.863
    37   6 C        2.923    -0.025    28.630     8.775
    38   7 N        1.845    -0.305    28.747     7.946
    39   6 C        2.980     0.200    23.753     7.995
    40   6 C        2.984    -0.010    28.265     8.721
    41   6 C        2.923    -0.025    28.631     8.775
    42   6 C        2.920    -0.049    29.213     8.863
    43   6 C        2.924     0.069    26.459     8.435
    44   7 N        2.752    -0.070    22.601     7.061
    45   6 C        2.925     0.065    26.547     8.450
    46   6 C        2.922    -0.046    29.149     8.854
    47   6 C        2.920    -0.029    28.718     8.788
    48   6 C        2.919    -0.037    28.927     8.820
    49   6 C        2.920    -0.029    28.723     8.789
    50   6 C        2.922    -0.046    29.154     8.855
    51   6 C        2.925     0.065    26.547     8.450
    52   6 C        2.922    -0.046    29.153     8.854
    53   6 C        2.920    -0.029    28.723     8.789
    54   6 C        2.919    -0.037    28.926     8.820
    55   6 C        2.920    -0.029    28.717     8.788
    56   6 C        2.922    -0.046    29.148     8.854
    57   6 C        2.920    -0.049    29.213     8.863
    58   6 C        2.923    -0.025    28.630     8.775
    59   7 N        1.844    -0.305    28.747     7.946
    60   6 C        2.923    -0.025    28.631     8.775
    61   6 C        2.920    -0.049    29.209     8.863
    62   6 C        2.922    -0.047    29.156     8.855
    63   6 C        2.920    -0.029    28.723     8.789
    64   1 H        0.926     0.031     2.566     2.505
    65   1 H        0.926     0.033     2.541     2.493
    66   1 H        0.926     0.034     2.529     2.487
    67   1 H        0.926     0.032     2.552     2.498
    68   1 H        0.926     0.033     2.551     2.498
    69   1 H        0.926     0.031     2.566     2.505
    70   1 H        0.926     0.033     2.541     2.493
    71   1 H        0.926     0.034     2.529     2.487
    72   1 H        0.926     0.035     2.511     2.478
    73   1 H        0.926     0.056     2.250     2.346
    74   1 H        0.926     0.056     2.251     2.346
    75   1 H        0.926     0.035     2.511     2.478
    76   1 H        0.926     0.034     2.527     2.486
    77   1 H        0.926     0.033     2.540     2.492
    78   1 H        0.926     0.032     2.565     2.504
    79   1 H        0.926     0.033     2.550     2.497
    80   1 H        0.926     0.032     2.552     2.498
    81   1 H        0.926     0.032     2.553     2.498
    82   1 H        0.926     0.033     2.551     2.497
    83   1 H        0.926     0.031     2.565     2.505
    84   1 H        0.926     0.033     2.540     2.492
    85   1 H        0.926     0.034     2.527     2.486
    86   1 H        0.926     0.035     2.511     2.478
    87   1 H        0.926     0.056     2.252     2.347
    88   1 H        0.926     0.056     2.251     2.346
    89   1 H        0.926     0.035     2.511     2.478
    90   1 H        0.926     0.034     2.527     2.486
    91   1 H        0.926     0.033     2.540     2.492
    92   1 H        0.926     0.032     2.565     2.504
    93   1 H        0.926     0.033     2.550     2.497
    94   1 H        0.926     0.032     2.553     2.499
    95   1 H        0.926     0.032     2.552     2.498
    96   1 H        0.926     0.033     2.550     2.497
    97   1 H        0.926     0.032     2.564     2.504
    98   1 H        0.926     0.033     2.540     2.492
    99   1 H        0.926     0.034     2.527     2.486
   100   1 H        0.926     0.035     2.511     2.478
   101   1 H        0.926     0.055     2.252     2.347
   102   1 H        0.926     0.056     2.250     2.346
   103   1 H        0.926     0.035     2.510     2.478
   104   1 H        0.926     0.032     2.552     2.498
   105   1 H        0.926     0.033     2.551     2.498

molecular dipole:
                 x           y           z       tot (Debye)
 q only:       -0.009       0.001      -0.000
   full:       -0.010       0.001      -0.000       0.025

 projected vibrational frequencies (cm⁻¹)
eigval :       -0.00    -0.00    -0.00     0.00     0.00     0.00
eigval :        5.89     6.52     6.63    10.52    14.62    14.69
eigval :       28.01    28.29    33.85    41.07    41.08    43.72
eigval :       47.40    47.49    57.46    61.70    63.77    63.86
eigval :       66.66    74.82    74.91    93.01    93.17   100.63
eigval :      103.04   103.29   131.37   136.81   160.35   160.40
eigval :      169.60   180.79   180.87   215.55   215.64   222.24
eigval :      235.46   236.75   236.83   283.35   283.69   296.18
eigval :      296.52   308.55   314.57   314.60   324.29   338.24
eigval :      366.25   366.67   376.88   377.08   377.12   378.10
eigval :      378.15   378.25   380.58   386.87   386.99   390.56
eigval :      400.02   400.08   408.99   434.12   434.27   471.25
eigval :      471.33   487.36   490.88   491.79   491.97   498.03
eigval :      498.14   504.00   553.97   581.45   581.52   583.27
eigval :      585.04   585.05   586.16   592.52   592.57   593.28
eigval :      605.77   605.79   613.53   613.65   614.37   627.18
eigval :      632.55   632.70   659.95   660.82   660.89   665.64
eigval :      665.71   667.85   679.39   702.91   702.97   704.93
eigval :      704.97   726.24   757.71   757.85   757.90   760.38
eigval :      760.42   761.58   777.11   826.32   826.34   826.45
eigval :      843.98   843.99   868.88   870.90   870.98   875.21
eigval :      875.32   875.34   876.43   876.59   876.62   893.76
eigval :      893.84   893.91   893.95   894.49   894.55   910.09
eigval :      910.12   910.15   915.86   920.60   920.67   922.54
eigval :      926.64   927.14   927.24   927.95   928.01   928.02
eigval :      928.95   928.99   929.38   929.82   929.92   929.98
eigval :      930.49   930.54   930.81   931.64   931.75   982.17
eigval :      986.87   986.90  1005.21  1005.23  1005.24  1009.49
eigval :     1020.00  1020.01  1045.25  1082.75  1082.80  1082.82
eigval :     1083.88  1083.92  1083.94  1089.05  1121.21  1121.52
eigval :     1121.55  1123.58  1123.64  1123.72  1125.73  1130.89
eigval :     1131.03  1162.94  1163.16  1180.63  1180.66  1180.66
eigval :     1180.73  1180.75  1180.76  1186.00  1186.06  1186.26
eigval :     1190.46  1195.09  1195.17  1195.19  1200.92  1200.97
eigval :     1210.90  1213.55  1220.58  1220.60  1259.35  1262.00
eigval :     1262.09  1278.00  1278.06  1278.09  1281.39  1281.43
eigval :     1281.45  1312.68  1312.86  1313.15  1318.76  1318.82
eigval :     1319.03  1322.76  1322.89  1323.72  1326.62  1326.82
eigval :     1326.87  1335.68  1335.71  1337.68  1368.70  1368.81
eigval :     1390.20  1415.26  1415.35  1417.29  1436.43  1436.45
eigval :     1436.79  1442.30  1442.38  1442.98  1469.20  1469.24
eigval :     1471.53  1475.26  1475.31  1475.36  1489.02  1489.20
eigval :     1496.41  1501.44  1501.52  1556.21  1560.82  1560.89
eigval :     1577.81  1577.89  1577.91  1581.59  1581.61  1581.67
eigval :     1591.37  1591.41  1592.33  1594.34  1594.39  1594.42
eigval :     1600.52  1600.71  1600.73  3076.49  3076.55  3076.58
eigval :     3077.08  3077.13  3077.18  3078.01  3078.06  3078.09
eigval :     3078.30  3078.36  3078.38  3082.64  3082.79  3082.88
eigval :     3083.84  3083.90  3084.25  3086.67  3086.73  3086.74
eigval :     3087.64  3087.70  3087.73  3090.15  3090.21  3090.28
eigval :     3090.72  3090.77  3090.82  3097.85  3097.91  3097.94
eigval :     3098.31  3098.38  3098.47  3108.01  3108.39  3108.46
eigval :     3109.75  3109.92  3110.47

   temp. (K)  partition function   enthalpy   heat capacity  entropy
                                   cal/mol     cal/K/mol   cal/K/mol   J/K/mol
 298.15  VIB  0.150E+28            30991.343    188.509    199.459
         ROT  0.172E+09              888.752      2.981     40.660
         INT  0.257E+36            31880.095    191.490    240.120
         TR   0.223E+29             1481.254      4.968     45.936
         TOT                       33361.3493   196.4583   286.0560  1196.8585

       T/K    H(0)-H(T)+PV         H(T)/Eh          T*S/Eh         G(T)/Eh
   ------------------------------------------------------------------------
    298.15    0.531647E-01    0.866938E+00    0.135914E+00    0.731023E+00
   ------------------------------------------------------------------------

         :::::::::::::::::::::::::::::::::::::::::::::::::::::
         ::                  THERMODYNAMIC                  ::
         :::::::::::::::::::::::::::::::::::::::::::::::::::::
         :: total free energy        -160.316682690686 Eh   ::
         ::.................................................::
         :: total energy             -161.047705968157 Eh   ::
         :: zero point energy           0.813773042333 Eh   ::
         :: G(RRHO) w/o ZPVE           -0.082749764862 Eh   ::
         :: G(RRHO) contrib.            0.731023277471 Eh   ::
         :::::::::::::::::::::::::::::::::::::::::::::::::::::

           -------------------------------------------------
          | TOTAL ENERGY             -161.047705968157 Eh   |
          | TOTAL ENTHALPY           -160.180768231589 Eh   |
          | TOTAL FREE ENERGY        -160.316682690686 Eh   |
          | GRADIENT NORM               0.000067611169 Eh/α |
          | HOMO-LUMO GAP               2.145066731176 eV   |
           -------------------------------------------------

 * finished run on 2025/09/11 at 23:49:18.951
