   * xtb version 6.7.1 (edcfbbe) compiled by 'albert@albert-system' on 2024-07-22

   ID    Z sym.   atoms
    1    7 N      1, 5
    2    6 C      2-4, 6-28
    3    9 F      29
    4    1 H      30-42

          program call               : xtb data2507/gas/2C/2C_gas_S0_finalOpt.xtbopt.xyz --gfn 2 --spinpol --tblite --uhf 2 --ohess vtight --parallel 40 --molden --ceasefiles --namespace data2507/gas/2C/2C_gas_T1_preOpt
 * total energy  :   -72.7416986 Eh     change       -0.3110681E-07 Eh
 * total energy  :   -72.7471092 Eh     change       -0.5410628E-02 Eh
 * total energy  :   -72.7488130 Eh     change       -0.1703776E-02 Eh
 * total energy  :   -72.7490656 Eh     change       -0.2526875E-03 Eh
 * total energy  :   -72.7493999 Eh     change       -0.3343010E-03 Eh
 * total energy  :   -72.7496543 Eh     change       -0.2543759E-03 Eh
 * total energy  :   -72.7497649 Eh     change       -0.1105635E-03 Eh
 * total energy  :   -72.7499476 Eh     change       -0.1827480E-03 Eh
 * total energy  :   -72.7500202 Eh     change       -0.7255869E-04 Eh
 * total energy  :   -72.7501296 Eh     change       -0.1094178E-03 Eh
 * total energy  :   -72.7507122 Eh     change       -0.4094440E-06 Eh
 * total energy  :   -72.7507123 Eh     change       -0.2771525E-07 Eh
 * total energy  :   -72.7507125 Eh     change       -0.2354069E-06 Eh
 * total energy  :   -72.7507127 Eh     change       -0.2282096E-06 Eh
 * total energy  :   -72.7507130 Eh     change       -0.3038963E-06 Eh
 * total energy  :   -72.7507133 Eh     change       -0.2814126E-06 Eh
 * total energy  :   -72.7507136 Eh     change       -0.2628215E-06 Eh
 * total energy  :   -72.7507137 Eh     change       -0.1487752E-06 Eh
 * total energy  :   -72.7507138 Eh     change       -0.9534858E-07 Eh
   *** GEOMETRY OPTIMIZATION CONVERGED AFTER 61 ITERATIONS ***

 final structure:
================
42
 xtb: 6.7.1 (edcfbbe)
N            4.85313105381176        3.06604969741861       -1.28794404008550
C            5.20095384914447        2.06330673282892       -0.84175087180784
C            5.70481316500620        0.87442818565018       -0.29595061135354
C            7.10670133654386        0.86248068010250       -0.17447069063475
N            8.25142637139553        0.84782629060382       -0.07450160009109
C            4.98313362089583       -0.22903976852017        0.12553227432452
C            3.58888839905265       -0.42882071645421        0.08767905442256
C            2.64514256221755        0.47233363811491       -0.46774699345230
C            1.30524288826158        0.22056492067685       -0.44049078771209
C            0.77339288842093       -0.96861796160466        0.12125070621949
C           -0.62593342416990       -1.24085647671719        0.12645185867385
C           -1.08576553276190       -2.56597360127247       -0.06679840499751
C           -2.39189130400962       -2.84224635098176       -0.32690259847543
C           -3.37306694973380       -1.80818643455152       -0.36824967101282
C           -4.71157895517125       -2.06865559132725       -0.67873634482580
C           -5.65050961070386       -1.05988036868068       -0.68157856888569
C           -5.29525968057534        0.25595104749691       -0.33095512101305
C           -6.24216201258957        1.30270882522722       -0.29253401663039
C           -5.86970601506355        2.58292415699449        0.07675290180595
C           -4.56503587004543        2.86267558640530        0.42796948659984
C           -3.57815601280074        1.84914104001213        0.40173932527309
C           -2.25005706786234        2.08382572587469        0.79078990351909
C           -1.30123281810143        1.08304383341805        0.72893954227608
C           -1.61526651944336       -0.19408300492398        0.24569377713637
C           -2.97161911569683       -0.48544515314228       -0.04968852819065
C           -3.94571476140924        0.53868687527183        0.00387341903920
C            1.70600205318792       -1.90776652885980        0.62432759744313
C            3.03820428183444       -1.62675345847935        0.61923770575533
F            3.88064624415370       -2.53201194577987        1.16238558406877
H            5.57223043029381       -1.03777832357293        0.54112289880499
H            3.00397891848917        1.37426453045821       -0.93560053135246
H            0.63198843054168        0.91134992720804       -0.92496657978511
H           -0.36091725125354       -3.36486233295360       -0.10173104375143
H           -2.70538524578415       -3.85440411649467       -0.53612447209865
H           -5.00456859629778       -3.08073009079464       -0.91795988182331
H           -6.67721030888502       -1.27297562283959       -0.94016096056044
H           -7.26783317232912        1.08658138020462       -0.55184479491919
H           -6.61047766284132        3.36859956477833        0.09852795146725
H           -4.27942276932978        3.85902164209761        0.73017852125049
H           -1.97355216368338        3.06445840604834        1.14887998954317
H           -0.30282525406926        1.28444903655018        1.08577657011053
H            1.37298791225877       -2.82564821526654        1.08242967724453

 projected vibrational frequencies (cm⁻¹)
eigval :       -0.00    -0.00    -0.00     0.00     0.00     0.00
eigval :       21.28    22.30    30.23    48.32    78.41    84.65
eigval :      106.66   118.77   134.66   164.66   171.93   185.63
eigval :      204.17   205.29   235.05   243.79   254.22   270.33
eigval :      316.35   343.12   378.72   390.35   396.83   409.62
eigval :      429.93   439.60   441.93   450.11   458.37   491.60
eigval :      492.06   502.03   504.80   515.48   550.52   560.58
eigval :      581.91   584.92   598.80   626.00   633.83   658.97
eigval :      668.52   674.24   687.92   730.04   740.85   756.93
eigval :      782.66   783.20   788.27   801.98   817.60   826.96
eigval :      835.05   846.02   859.88   860.63   868.71   894.70
eigval :      900.40   900.68   911.62   918.52   947.34   990.30
eigval :     1017.37  1082.60  1104.78  1116.53  1123.43  1140.05
eigval :     1163.08  1171.88  1182.08  1191.36  1194.08  1209.56
eigval :     1217.00  1229.22  1236.19  1262.92  1289.24  1306.30
eigval :     1325.49  1330.82  1339.86  1350.16  1358.03  1365.20
eigval :     1380.76  1394.97  1412.30  1422.55  1444.77  1451.85
eigval :     1464.96  1473.70  1488.25  1498.96  1517.43  1519.11
eigval :     1536.85  1557.50  1583.14  2294.45  2332.91  3064.79
eigval :     3076.29  3079.47  3081.40  3083.05  3087.28  3089.56
eigval :     3091.77  3095.26  3096.29  3097.54  3108.62  3132.09

   temp. (K)  partition function   enthalpy   heat capacity  entropy
                                   cal/mol     cal/K/mol   cal/K/mol   J/K/mol
 298.15  VIB  0.590E+09            12586.550     81.793     75.800
         ROT  0.198E+08              888.752      2.981     36.370
         INT  0.117E+17            13475.302     84.774    112.169
         TR   0.695E+28             1481.254      4.968     43.617
         TOT                       14956.5560    89.7423   155.7863   651.8100

       T/K    H(0)-H(T)+PV         H(T)/Eh          T*S/Eh         G(T)/Eh
   ------------------------------------------------------------------------
    298.15    0.238348E-01    0.320896E+00    0.740191E-01    0.246877E+00
   ------------------------------------------------------------------------

         :::::::::::::::::::::::::::::::::::::::::::::::::::::
         ::                  THERMODYNAMIC                  ::
         :::::::::::::::::::::::::::::::::::::::::::::::::::::
         :: total free energy         -72.503836609896 Eh   ::
         ::.................................................::
         :: total energy              -72.750713820494 Eh   ::
         :: zero point energy           0.297061538344 Eh   ::
         :: G(RRHO) w/o ZPVE           -0.050184327746 Eh   ::
         :: G(RRHO) contrib.            0.246877210599 Eh   ::
         :::::::::::::::::::::::::::::::::::::::::::::::::::::

           -------------------------------------------------
          | TOTAL ENERGY              -72.750713820494 Eh   |
          | TOTAL ENTHALPY            -72.429817493048 Eh   |
          | TOTAL FREE ENERGY         -72.503836609896 Eh   |
          | GRADIENT NORM               0.000047633728 Eh/α |
           -------------------------------------------------

 * finished run on 2025/08/24 at 14:17:53.037
