   * xtb version 6.7.1 (edcfbbe) compiled by 'albert@albert-system' on 2024-07-22

   ID    Z sym.   atoms
    1    7 N      1, 5
    2    6 C      2-4, 6-28
    3    9 F      29
    4    1 H      30-42

          program call               : xtb data2507/gas/2C/2C.xyz --gfn 2 --ohess vtight --parallel 40 --molden --ceasefiles --namespace data2507/gas/2C/2C_gas_S0_preOpt
          :  Hamiltonian                  GFN2-xTB          :
 * total energy  :   -72.7954300 Eh     change       -0.1289479E-08 Eh
 * total energy  :   -72.8034698 Eh     change       -0.8039813E-02 Eh
 * total energy  :   -72.8052248 Eh     change       -0.1754916E-02 Eh
 * total energy  :   -72.8044504 Eh     change        0.7743092E-03 Eh
 * total energy  :   -72.8061878 Eh     change       -0.1737335E-02 Eh
 * total energy  :   -72.8066906 Eh     change       -0.5028500E-03 Eh
 * total energy  :   -72.8074233 Eh     change       -0.7326912E-03 Eh
 * total energy  :   -72.8081192 Eh     change       -0.6958739E-03 Eh
 * total energy  :   -72.8086181 Eh     change       -0.4989234E-03 Eh
 * total energy  :   -72.8090327 Eh     change       -0.4145902E-03 Eh
 * total energy  :   -72.8122529 Eh     change       -0.2336485E-06 Eh
 * total energy  :   -72.8122531 Eh     change       -0.2115606E-06 Eh
 * total energy  :   -72.8122533 Eh     change       -0.2053445E-06 Eh
 * total energy  :   -72.8122535 Eh     change       -0.1962828E-06 Eh
 * total energy  :   -72.8122536 Eh     change       -0.1725956E-06 Eh
 * total energy  :   -72.8122538 Eh     change       -0.1445894E-06 Eh
 * total energy  :   -72.8122539 Eh     change       -0.1304712E-06 Eh
 * total energy  :   -72.8122540 Eh     change       -0.1113549E-06 Eh
 * total energy  :   -72.8122541 Eh     change       -0.9695742E-07 Eh
   *** GEOMETRY OPTIMIZATION CONVERGED AFTER 59 ITERATIONS ***

 final structure:
================
42
 xtb: 6.7.1 (edcfbbe)
N            6.83509477631171        1.22956775729302        2.24714939251147
C            6.70020567167697        0.51464386388634        1.35974274537347
C            6.62834737307204       -0.38207423070461        0.27135924016246
C            7.88369868460491       -0.95264567769007       -0.05539268593159
N            8.89816827865495       -1.41458471119791       -0.32036977512389
C            5.53085471675301       -0.72638906872616       -0.44974740461470
C            4.17532053079480       -0.27624816437296       -0.29397789855439
C            3.73887008278036        0.63139574563007        0.68204573556946
C            2.41961170587674        1.01450078898719        0.76281479760925
C            1.46031599819499        0.50405756676148       -0.11567551712739
C            0.06475217702266        0.94845320661989       -0.03413506460443
C           -0.18805266080511        2.31925790798420       -0.01322603932855
C           -1.47443735862261        2.81216477498093       -0.01088285861205
C           -2.56905239655028        1.94524757721396       -0.01881933622427
C           -3.91051086029777        2.42483765280432       -0.03920343581449
C           -4.96080024809944        1.57181607865604       -0.03920044859363
C           -4.76340529839664        0.16028648131419       -0.01079321460113
C           -5.83238559789373       -0.73741176510436       -0.00590158139145
C           -5.61034788263003       -2.10194095420973        0.02885916567942
C           -4.32228403726636       -2.60326517307085        0.06293360715865
C           -3.22346564410285       -1.74241570324218        0.05647900544291
C           -1.88286615589660       -2.21985749996305        0.11492379158878
C           -0.82916154913489       -1.37052429665024        0.09327637401659
C           -1.01158779993450        0.04164265451056        0.00120333275567
C           -2.33712687490091        0.54732964341704       -0.00089641921943
C           -3.43889964148660       -0.34340951024142        0.01399814483201
C            1.87186113754413       -0.39484531426137       -1.09993730890166
C            3.19497429985095       -0.76343261596208       -1.17526129781069
F            3.55859636563210       -1.62694473700064       -2.14447463453480
H            5.69327995380050       -1.43555577789744       -1.25363925881536
H            4.45014939298918        1.03543558993751        1.38359195562894
H            2.11309221940432        1.70714259358144        1.53179633206790
H            0.64792095434228        3.00354424446513       -0.03558604766046
H           -1.64456061262763        3.87890693182257       -0.01314009817982
H           -4.06639776361660        3.49409947949807       -0.05543190247666
H           -5.97524096071425        1.94392987760017       -0.05667651147333
H           -6.84191914762775       -0.35297388248918       -0.02963116067145
H           -6.45014204288042       -2.78136432960034        0.03229997919464
H           -4.15520244466196       -3.67023400656473        0.09590387516351
H           -1.72467913122969       -3.28654382494471        0.18677672916527
H            0.17585601700697       -1.75811819624807        0.16783584145526
H            1.17155477306148       -0.78747897682414       -1.82099014510789

          :  Hamiltonian                  GFN2-xTB          :
         :: gradient norm              0.000033762998 Eh/a0 ::
         :: HOMO-LUMO gap              1.463746066802 eV    ::
         :: SCC energy               -74.201799163193 Eh    ::
         :: -> dispersion             -0.055897763435 Eh    ::
         :: repulsion energy           1.389545034462 Eh    ::

    * Orbital Energies and Occupations

         #    Occupation            Energy/Eh            Energy/eV
      -------------------------------------------------------------
         1        2.0000           -0.8389138             -22.8280
       ...           ...                  ...                  ...
        55        2.0000           -0.4522390             -12.3061
        56        2.0000           -0.4496587             -12.2358
        57        2.0000           -0.4466127             -12.1529
        58        2.0000           -0.4424838             -12.0406
        59        2.0000           -0.4365008             -11.8778
        60        2.0000           -0.4337431             -11.8027
        61        2.0000           -0.4320855             -11.7576
        62        2.0000           -0.4238880             -11.5346
        63        2.0000           -0.4212946             -11.4640
        64        2.0000           -0.4189783             -11.4010
        65        2.0000           -0.4162897             -11.3278
        66        2.0000           -0.4057594             -11.0413
        67        2.0000           -0.3792682             -10.3204 (HOMO)
        68                         -0.3254765              -8.8567 (LUMO)
        69                         -0.2918289              -7.9411
        70                         -0.2577704              -7.0143
        71                         -0.2561135              -6.9692
        72                         -0.2404943              -6.5442
        73                         -0.2395523              -6.5185
        74                         -0.2351394              -6.3985
        75                         -0.2192660              -5.9665
        76                         -0.2126197              -5.7857
        77                         -0.2013206              -5.4782
        78                         -0.1942748              -5.2865
       ...                                ...                  ...
       129                          1.1617813              31.6137
      -------------------------------------------------------------
                  HL-Gap            0.0537917 Eh            1.4637 eV

     #   Z          covCN         q      C6AA      α(0)
     1   7 N        0.911    -0.228    25.997     7.374
     2   6 C        1.924     0.125    28.032     8.550
     3   6 C        2.944     0.018    27.612     8.618
     4   6 C        1.936     0.120    28.140     8.567
     5   7 N        0.911    -0.216    25.720     7.335
     6   6 C        2.919     0.001    28.013     8.679
     7   6 C        2.965    -0.004    28.118     8.698
     8   6 C        2.923    -0.030    28.758     8.794
     9   6 C        2.920    -0.037    28.916     8.818
    10   6 C        2.981     0.026    27.414     8.589
    11   6 C        2.976     0.000    28.013     8.682
    12   6 C        2.921    -0.033    28.831     8.805
    13   6 C        2.918    -0.036    28.901     8.816
    14   6 C        2.983     0.014    27.697     8.633
    15   6 C        2.913    -0.035    28.874     8.811
    16   6 C        2.914    -0.033    28.821     8.803
    17   6 C        2.982     0.013    27.713     8.635
    18   6 C        2.921    -0.034    28.847     8.808
    19   6 C        2.914    -0.028    28.709     8.786
    20   6 C        2.920    -0.034    28.850     8.808
    21   6 C        2.982     0.013    27.719     8.636
    22   6 C        2.913    -0.033    28.832     8.805
    23   6 C        2.912    -0.037    28.923     8.819
    24   6 C        2.981     0.010    27.788     8.647
    25   6 C        2.995     0.005    27.910     8.666
    26   6 C        2.997     0.004    27.912     8.667
    27   6 C        2.919    -0.052    29.285     8.874
    28   6 C        2.791     0.168    24.379     8.088
    29   9 F        0.787    -0.217    11.414     3.991
    30   1 H        0.925     0.071     2.077     2.254
    31   1 H        0.926     0.063     2.160     2.298
    32   1 H        0.926     0.054     2.269     2.355
    33   1 H        0.926     0.035     2.514     2.480
    34   1 H        0.926     0.038     2.478     2.462
    35   1 H        0.926     0.036     2.509     2.477
    36   1 H        0.926     0.036     2.503     2.474
    37   1 H        0.926     0.035     2.512     2.478
    38   1 H        0.926     0.035     2.520     2.482
    39   1 H        0.926     0.035     2.512     2.478
    40   1 H        0.926     0.036     2.506     2.475
    41   1 H        0.926     0.033     2.544     2.494
    42   1 H        0.926     0.066     2.126     2.280

molecular dipole:
                 x           y           z       tot (Debye)
 q only:       -2.846       0.375      -0.069
   full:       -3.238       0.281      -0.306       8.298

 projected vibrational frequencies (cm⁻¹)
eigval :       -0.00    -0.00    -0.00     0.00     0.00     0.00
eigval :       13.45    24.06    29.54    45.73    68.94    81.11
eigval :       98.04   119.75   131.21   158.29   167.24   196.70
eigval :      206.10   228.63   230.79   241.61   250.73   290.17
eigval :      316.18   332.31   384.68   392.77   402.24   417.27
eigval :      426.80   455.83   466.38   473.01   477.63   490.29
eigval :      497.43   503.01   505.71   522.70   550.11   577.37
eigval :      591.19   608.71   611.51   635.30   653.21   664.29
eigval :      679.89   684.69   694.84   738.21   758.00   773.99
eigval :      785.53   794.73   803.49   818.26   834.34   836.89
eigval :      853.12   865.68   879.19   888.08   892.88   912.57
eigval :      914.09   920.64   924.02   925.86   933.28   996.22
eigval :     1034.81  1098.77  1110.39  1121.49  1141.25  1161.09
eigval :     1166.75  1179.48  1190.20  1197.69  1207.60  1217.79
eigval :     1224.49  1237.71  1260.87  1267.85  1301.41  1312.81
eigval :     1321.10  1336.18  1354.55  1362.31  1386.94  1391.14
eigval :     1412.12  1415.31  1420.07  1450.55  1470.21  1487.47
eigval :     1501.41  1531.05  1542.21  1554.70  1564.76  1578.04
eigval :     1599.65  1604.86  1606.38  2342.40  2374.54  3058.82
eigval :     3069.83  3072.49  3074.41  3075.49  3079.39  3083.32
eigval :     3087.55  3089.96  3091.81  3098.02  3107.12  3132.16

   temp. (K)  partition function   enthalpy   heat capacity  entropy
                                   cal/mol     cal/K/mol   cal/K/mol   J/K/mol
 298.15  VIB  0.941E+09            12441.287     80.319     75.569
         ROT  0.190E+08              888.752      2.981     36.287
         INT  0.179E+17            13330.040     83.300    111.856
         TR   0.695E+28             1481.254      4.968     43.617
         TOT                       14811.2937    88.2680   155.4730   650.4990

       T/K    H(0)-H(T)+PV         H(T)/Eh          T*S/Eh         G(T)/Eh
   ------------------------------------------------------------------------
    298.15    0.236033E-01    0.323883E+00    0.738702E-01    0.250012E+00
   ------------------------------------------------------------------------

         :::::::::::::::::::::::::::::::::::::::::::::::::::::
         ::                  THERMODYNAMIC                  ::
         :::::::::::::::::::::::::::::::::::::::::::::::::::::
         :: total free energy         -72.562241856230 Eh   ::
         ::.................................................::
         :: total energy              -72.812254128730 Eh   ::
         :: zero point energy           0.300279203809 Eh   ::
         :: G(RRHO) w/o ZPVE           -0.050266931310 Eh   ::
         :: G(RRHO) contrib.            0.250012272499 Eh   ::
         :::::::::::::::::::::::::::::::::::::::::::::::::::::

           -------------------------------------------------
          | TOTAL ENERGY              -72.812254128730 Eh   |
          | TOTAL ENTHALPY            -72.488371626072 Eh   |
          | TOTAL FREE ENERGY         -72.562241856230 Eh   |
          | GRADIENT NORM               0.000033760645 Eh/α |
          | HOMO-LUMO GAP               1.463747103565 eV   |
           -------------------------------------------------

 * finished run on 2025/08/24 at 14:16:55.501
