   * xtb version 6.7.1 (edcfbbe) compiled by 'albert@albert-system' on 2024-07-22

   ID    Z sym.   atoms
    1    7 N      1, 5
    2    6 C      2-4, 6-28
    3    9 F      29
    4    1 H      30-42

          program call               : xtb data2507/gas/2C/2C_gas_S0_crest.xyz --gfn 2 --ohess vtight --parallel 40 --molden --ceasefiles --namespace data2507/gas/2C/2C_gas_S0_finalOpt
          :  Hamiltonian                  GFN2-xTB          :
 * total energy  :   -72.8123217 Eh     change       -0.1554994E-08 Eh
 * total energy  :   -72.8123216 Eh     change        0.6176589E-07 Eh
 * total energy  :   -72.8123218 Eh     change       -0.1474257E-06 Eh
 * total energy  :   -72.8123219 Eh     change       -0.1668810E-06 Eh
 * total energy  :   -72.8123216 Eh     change        0.2936888E-06 Eh
 * total energy  :   -72.8123221 Eh     change       -0.4927551E-06 Eh
 * total energy  :   -72.8123221 Eh     change        0.4533541E-07 Eh
 * total energy  :   -72.8123221 Eh     change       -0.1325627E-07 Eh
 * total energy  :   -72.8123223 Eh     change       -0.1758716E-06 Eh
 * total energy  :   -72.8123222 Eh     change        0.3715893E-07 Eh
 * total energy  :   -72.8123223 Eh     change       -0.8335569E-07 Eh
   *** GEOMETRY OPTIMIZATION CONVERGED AFTER 11 ITERATIONS ***

 final structure:
================
42
 xtb: 6.7.1 (edcfbbe)
N            5.14821385990699        2.81905635935921       -1.54484958540194
C            5.39369650251640        1.87431023301534       -0.94154820827095
C            5.78493344631598        0.74231403730061       -0.19369139783391
C            7.17768786147075        0.70679566654661        0.06538434266612
N            8.30380059639404        0.67600325967900        0.27438059892013
C            4.99248818274650       -0.25300871016413        0.28004598960123
C            3.57275452998496       -0.41792063011248        0.13347394148745
C            2.74004020653920        0.42776274142892       -0.61425034106842
C            1.38508788953640        0.20366884226955       -0.70217731329809
C            0.78600578478158       -0.87834859740239       -0.05020150959779
C           -0.65160652952044       -1.14331355558529       -0.17092868968754
C           -1.05636554060715       -2.41700450854984       -0.56749079308956
C           -2.38523298219630       -2.71723886961056       -0.77170613313166
C           -3.37207845248088       -1.74911403299353       -0.57509233263677
C           -4.75225504967619       -2.02313799369892       -0.79855615635550
C           -5.69735914051945       -1.07624227329935       -0.59620838815101
C           -5.34704565752755        0.22945545204419       -0.14385283546571
C           -6.30613174254147        1.21970948556244        0.07560904892284
C           -5.93708387188607        2.47573159110035        0.52135446543917
C           -4.60845771864190        2.77340522921610        0.76165008146756
C           -3.61553288872385        1.81470931666241        0.55289578057067
C           -2.23945671224603        2.07621232357034        0.81101282380591
C           -1.28863091442093        1.13859907961554        0.58960188746497
C           -1.61947228903225       -0.15166390226899        0.07801490028624
C           -2.98820044245589       -0.45778752852020       -0.13529064879459
C           -3.98132966188904        0.52731598009668        0.09002260623442
C            1.59707026392165       -1.74432019110883        0.68229418531062
C            2.94913069754291       -1.50608320540109        0.76695937595794
F            3.69946809963256       -2.35548409940767        1.49632518649511
H            5.49202927448067       -1.02861267001325        0.84961525074384
H            3.17091081282807        1.26611884927153       -1.13672143299920
H            0.77551406355910        0.85968291748983       -1.30485844521271
H           -0.30324590917823       -3.16978137493566       -0.75137395287614
H           -2.67226817658725       -3.70670553774350       -1.09651879302523
H           -5.02444584965929       -3.01289149528330       -1.13651198172290
H           -6.74196485335400       -1.29179305243775       -0.77002700680060
H           -7.34675348259381        0.99359574922631       -0.10741688337077
H           -6.69336752527296        3.22931445241297        0.68573270481832
H           -4.32679549057914        3.75473465461893        1.11525830408600
H           -1.96966300129460        3.04769815334241        1.20003017894674
H           -0.25585775842331        1.35424931500491        0.81942655908200
H            1.17548686835018       -2.59019551649738        1.20294278078368

          :  Hamiltonian                  GFN2-xTB          :
         :: gradient norm              0.000043659993 Eh/a0 ::
         :: HOMO-LUMO gap              1.460382443527 eV    ::
         :: SCC energy               -74.201891880091 Eh    ::
         :: -> dispersion             -0.055896054747 Eh    ::
         :: repulsion energy           1.389569556595 Eh    ::

    * Orbital Energies and Occupations

         #    Occupation            Energy/Eh            Energy/eV
      -------------------------------------------------------------
         1        2.0000           -0.8388964             -22.8275
       ...           ...                  ...                  ...
        55        2.0000           -0.4529986             -12.3267
        56        2.0000           -0.4483746             -12.2009
        57        2.0000           -0.4465196             -12.1504
        58        2.0000           -0.4423786             -12.0377
        59        2.0000           -0.4368192             -11.8865
        60        2.0000           -0.4332881             -11.7904
        61        2.0000           -0.4320351             -11.7563
        62        2.0000           -0.4238177             -11.5327
        63        2.0000           -0.4212094             -11.4617
        64        2.0000           -0.4191730             -11.4063
        65        2.0000           -0.4158362             -11.3155
        66        2.0000           -0.4055901             -11.0367
        67        2.0000           -0.3790789             -10.3153 (HOMO)
        68                         -0.3254108              -8.8549 (LUMO)
        69                         -0.2916428              -7.9360
        70                         -0.2575586              -7.0085
        71                         -0.2561040              -6.9689
        72                         -0.2404349              -6.5426
        73                         -0.2395137              -6.5175
        74                         -0.2349194              -6.3925
        75                         -0.2192713              -5.9667
        76                         -0.2124585              -5.7813
        77                         -0.2013989              -5.4803
        78                         -0.1941198              -5.2823
       ...                                ...                  ...
       129                          1.1618136              31.6146
      -------------------------------------------------------------
                  HL-Gap            0.0536681 Eh            1.4604 eV

     #   Z          covCN         q      C6AA      α(0)
     1   7 N        0.911    -0.229    26.003     7.375
     2   6 C        1.924     0.125    28.033     8.551
     3   6 C        2.944     0.018    27.614     8.619
     4   6 C        1.936     0.120    28.141     8.567
     5   7 N        0.911    -0.216    25.721     7.335
     6   6 C        2.919     0.001    28.012     8.679
     7   6 C        2.965    -0.004    28.119     8.698
     8   6 C        2.923    -0.031    28.777     8.797
     9   6 C        2.919    -0.036    28.886     8.814
    10   6 C        2.980     0.026    27.414     8.588
    11   6 C        2.976     0.000    28.015     8.682
    12   6 C        2.921    -0.033    28.834     8.806
    13   6 C        2.918    -0.036    28.906     8.816
    14   6 C        2.983     0.014    27.698     8.633
    15   6 C        2.913    -0.035    28.876     8.812
    16   6 C        2.914    -0.033    28.821     8.803
    17   6 C        2.982     0.013    27.713     8.635
    18   6 C        2.921    -0.034    28.846     8.808
    19   6 C        2.914    -0.028    28.708     8.786
    20   6 C        2.920    -0.034    28.847     8.808
    21   6 C        2.982     0.013    27.716     8.636
    22   6 C        2.913    -0.033    28.831     8.805
    23   6 C        2.912    -0.037    28.924     8.819
    24   6 C        2.981     0.010    27.786     8.647
    25   6 C        2.995     0.005    27.909     8.666
    26   6 C        2.997     0.004    27.913     8.667
    27   6 C        2.920    -0.053    29.318     8.879
    28   6 C        2.791     0.168    24.363     8.085
    29   9 F        0.787    -0.217    11.410     3.990
    30   1 H        0.925     0.071     2.076     2.253
    31   1 H        0.926     0.063     2.165     2.301
    32   1 H        0.926     0.055     2.254     2.348
    33   1 H        0.926     0.035     2.520     2.482
    34   1 H        0.926     0.038     2.481     2.463
    35   1 H        0.926     0.035     2.510     2.478
    36   1 H        0.926     0.036     2.503     2.474
    37   1 H        0.926     0.035     2.511     2.478
    38   1 H        0.926     0.035     2.518     2.482
    39   1 H        0.926     0.036     2.508     2.476
    40   1 H        0.926     0.036     2.501     2.473
    41   1 H        0.926     0.033     2.538     2.491
    42   1 H        0.926     0.065     2.140     2.288

molecular dipole:
                 x           y           z       tot (Debye)
 q only:       -2.792      -0.495      -0.033
   full:       -3.080      -0.851       0.117       8.127

 projected vibrational frequencies (cm⁻¹)
eigval :       -0.00    -0.00     0.00     0.00     0.00     0.00
eigval :       14.36    23.14    28.94    40.81    76.70    81.28
eigval :       99.36   119.86   135.79   166.09   170.12   188.67
eigval :      208.65   209.54   232.32   243.18   248.53   285.23
eigval :      318.33   340.30   383.93   394.37   401.59   416.27
eigval :      435.65   450.84   466.32   471.38   477.42   493.54
eigval :      497.60   504.53   505.60   518.89   553.63   579.29
eigval :      583.17   608.68   618.60   636.25   653.36   662.54
eigval :      680.19   686.32   693.37   735.41   757.91   773.92
eigval :      784.45   792.36   804.20   817.99   834.21   840.95
eigval :      853.67   866.81   876.67   884.33   888.79   912.61
eigval :      916.61   919.01   921.39   926.66   941.13   996.24
eigval :     1036.83  1100.67  1110.98  1120.02  1139.32  1161.37
eigval :     1166.50  1180.80  1185.74  1197.82  1208.64  1218.91
eigval :     1225.24  1237.68  1258.53  1270.25  1303.60  1313.67
eigval :     1320.67  1337.68  1352.40  1361.39  1387.40  1392.07
eigval :     1410.93  1415.03  1420.87  1450.57  1470.14  1487.33
eigval :     1501.60  1531.11  1541.81  1554.74  1564.74  1578.06
eigval :     1599.52  1604.81  1606.28  2342.52  2374.44  3058.85
eigval :     3069.68  3072.78  3074.47  3075.02  3079.51  3083.17
eigval :     3087.13  3089.92  3091.68  3098.10  3107.34  3131.38

   temp. (K)  partition function   enthalpy   heat capacity  entropy
                                   cal/mol     cal/K/mol   cal/K/mol   J/K/mol
 298.15  VIB  0.926E+09            12437.535     80.266     75.372
         ROT  0.196E+08              888.752      2.981     36.353
         INT  0.182E+17            13326.287     83.247    111.724
         TR   0.695E+28             1481.254      4.968     43.617
         TOT                       14807.5412    88.2153   155.3418   649.9499

       T/K    H(0)-H(T)+PV         H(T)/Eh          T*S/Eh         G(T)/Eh
   ------------------------------------------------------------------------
    298.15    0.235973E-01    0.323886E+00    0.738079E-01    0.250078E+00
   ------------------------------------------------------------------------

         :::::::::::::::::::::::::::::::::::::::::::::::::::::
         ::                  THERMODYNAMIC                  ::
         :::::::::::::::::::::::::::::::::::::::::::::::::::::
         :: total free energy         -72.562244061578 Eh   ::
         ::.................................................::
         :: total energy              -72.812322323497 Eh   ::
         :: zero point energy           0.300288824692 Eh   ::
         :: G(RRHO) w/o ZPVE           -0.050210562773 Eh   ::
         :: G(RRHO) contrib.            0.250078261919 Eh   ::
         :::::::::::::::::::::::::::::::::::::::::::::::::::::

           -------------------------------------------------
          | TOTAL ENERGY              -72.812322323497 Eh   |
          | TOTAL ENTHALPY            -72.488436179849 Eh   |
          | TOTAL FREE ENERGY         -72.562244061578 Eh   |
          | GRADIENT NORM               0.000043668196 Eh/α |
          | HOMO-LUMO GAP               1.460382551077 eV   |
           -------------------------------------------------

 * finished run on 2025/08/24 at 14:17:48.686
