   * xtb version 6.7.1 (edcfbbe) compiled by 'albert@albert-system' on 2024-07-22

   ID    Z sym.   atoms
    1    7 N      1, 5
    2    6 C      2-4, 6-28
    3    9 F      29
    4    1 H      30-42

          program call               : xtb data2507/gas/2C/2C_gas_T1_crest.xyz --gfn 2 --spinpol --tblite --uhf 2 --ohess vtight --parallel 40 --molden --ceasefiles --namespace data2507/gas/2C/2C_gas_T1_finalOpt
 * total energy  :   -72.7506922 Eh     change       -0.1258320E-07 Eh
 * total energy  :   -72.7507036 Eh     change       -0.1143556E-04 Eh
 * total energy  :   -72.7506999 Eh     change        0.3749487E-05 Eh
 * total energy  :   -72.7507118 Eh     change       -0.1186497E-04 Eh
 * total energy  :   -72.7507104 Eh     change        0.1341987E-05 Eh
 * total energy  :   -72.7507106 Eh     change       -0.1921783E-06 Eh
 * total energy  :   -72.7507123 Eh     change       -0.1687096E-05 Eh
 * total energy  :   -72.7507136 Eh     change       -0.1297688E-05 Eh
 * total energy  :   -72.7507137 Eh     change       -0.1024384E-06 Eh
 * total energy  :   -72.7507137 Eh     change       -0.1870710E-07 Eh
   *** GEOMETRY OPTIMIZATION CONVERGED AFTER 10 ITERATIONS ***

 final structure:
================
42
 xtb: 6.7.1 (edcfbbe)
N            4.85934186438818        3.12490037755401       -1.07895847278725
C            5.20549491118351        2.09496723895224       -0.69823027975810
C            5.70729554681728        0.87245805589026       -0.23027664129550
C            7.10888268856200        0.85163503277310       -0.10645394440300
N            8.25331895198096        0.83002653326044       -0.00454363543236
C            4.98393511867703       -0.25569194958414        0.11627513098241
C            3.58948621434648       -0.45078749895390        0.06339200267448
C            2.64782135291931        0.48648656559916       -0.43256295324431
C            1.30738852747959        0.23648942706108       -0.42132000617976
C            0.77294461735492       -0.98530546584026        0.06251634615367
C           -0.62733276834273       -1.25259716209556        0.05326781807513
C           -1.09275356491489       -2.56034816836720       -0.22555500856681
C           -2.40079659565370       -2.81411876580501       -0.49877053247248
C           -3.37821086416541       -1.77610190986672       -0.46805682685135
C           -4.71885696016643       -2.01080517569612       -0.78967933278924
C           -5.65395031063313       -1.00067342184475       -0.72246110567861
C           -5.29234811396988        0.28805844237477       -0.28780591776587
C           -6.23502099227847        1.33353509558589       -0.17730309954955
C           -5.85616980567098        2.58556434483630        0.27318697281594
C           -4.54915206369760        2.83698421326315        0.63686656363137
C           -3.56641060389520        1.82361797590486        0.54090661403842
C           -2.23612559237980        2.02740071563040        0.93971036226935
C           -1.29152461648643        1.02922711577893        0.80921767398954
C           -1.61216979579544       -0.21225886212692        0.24433015348548
C           -2.97060642247897       -0.47861625934250       -0.06469782582927
C           -3.94050840377070        0.54335494412252        0.05956763952938
C            1.70346050740854       -1.95789269558494        0.50177198928363
C            3.03631988675702       -1.68006740863809        0.51470532387767
F            3.87688312051920       -2.62095233696079        0.99678294870735
H            5.57149996510632       -1.09062583877234        0.47886994873279
H            3.00861882941493        1.41608735318715       -0.84093411481334
H            0.63552632572978        0.95874240524280       -0.85965347269038
H           -0.37099213376405       -3.35772440347789       -0.31567973230015
H           -2.71884656911129       -3.80906800657994       -0.77342327767242
H           -5.01664610524329       -3.00389932547763       -1.09373210527106
H           -6.68242964674333       -1.19270979279684       -0.99030448864274
H           -7.26249457588538        1.13854351476313       -0.44604606226346
H           -6.59374187672439        3.37089149258806        0.34901398076833
H           -4.25847959381246        3.81044065816325        1.00223806921654
H           -1.95450889404282        2.98144703724168        1.36019506581179
H           -0.29121009869608        1.20307621675989        1.17508064900185
H            1.36841590807777       -2.90321545882153        0.89848875371187

 projected vibrational frequencies (cm⁻¹)
eigval :       -0.00     0.00     0.00     0.00     0.00     0.00
eigval :       21.23    22.27    30.19    48.24    78.40    84.66
eigval :      106.66   118.76   134.63   164.67   171.92   185.51
eigval :      204.14   205.43   235.05   243.76   254.28   270.34
eigval :      316.33   343.23   378.68   390.32   396.82   409.58
eigval :      429.90   439.64   441.92   450.11   458.33   491.60
eigval :      492.02   502.04   504.79   515.46   550.44   560.63
eigval :      581.91   584.90   598.78   625.99   633.84   658.93
eigval :      668.59   674.24   687.93   730.05   740.82   756.92
eigval :      782.69   783.20   788.27   801.99   817.59   826.97
eigval :      835.08   846.11   859.88   860.60   868.72   894.70
eigval :      900.40   900.64   911.63   918.51   947.40   990.30
eigval :     1017.40  1082.56  1104.78  1116.50  1123.43  1140.07
eigval :     1163.09  1171.90  1182.02  1191.37  1194.09  1209.54
eigval :     1216.97  1229.17  1236.10  1262.88  1289.30  1306.33
eigval :     1325.49  1330.78  1339.84  1350.08  1358.03  1365.16
eigval :     1380.77  1394.92  1412.30  1422.56  1444.79  1451.84
eigval :     1464.95  1473.70  1488.22  1498.96  1517.40  1519.09
eigval :     1536.77  1557.45  1583.10  2294.51  2332.96  3064.64
eigval :     3076.26  3079.47  3081.37  3083.02  3087.26  3089.54
eigval :     3091.67  3095.20  3096.17  3097.53  3108.56  3132.25

   temp. (K)  partition function   enthalpy   heat capacity  entropy
                                   cal/mol     cal/K/mol   cal/K/mol   J/K/mol
 298.15  VIB  0.593E+09            12586.871     81.791     75.803
         ROT  0.198E+08              888.752      2.981     36.369
         INT  0.117E+17            13475.623     84.772    112.172
         TR   0.695E+28             1481.254      4.968     43.617
         TOT                       14956.8773    89.7401   155.7897   651.8240

       T/K    H(0)-H(T)+PV         H(T)/Eh          T*S/Eh         G(T)/Eh
   ------------------------------------------------------------------------
    298.15    0.238353E-01    0.320894E+00    0.740207E-01    0.246873E+00
   ------------------------------------------------------------------------

         :::::::::::::::::::::::::::::::::::::::::::::::::::::
         ::                  THERMODYNAMIC                  ::
         :::::::::::::::::::::::::::::::::::::::::::::::::::::
         :: total free energy         -72.503840385574 Eh   ::
         ::.................................................::
         :: total energy              -72.750713717756 Eh   ::
         :: zero point energy           0.297058731213 Eh   ::
         :: G(RRHO) w/o ZPVE           -0.050185399031 Eh   ::
         :: G(RRHO) contrib.            0.246873332182 Eh   ::
         :::::::::::::::::::::::::::::::::::::::::::::::::::::

           -------------------------------------------------
          | TOTAL ENERGY              -72.750713717756 Eh   |
          | TOTAL ENTHALPY            -72.429819685443 Eh   |
          | TOTAL FREE ENERGY         -72.503840385574 Eh   |
          | GRADIENT NORM               0.000055707194 Eh/α |
           -------------------------------------------------

 * finished run on 2025/08/24 at 14:18:51.588
