   * xtb version 6.7.1 (edcfbbe) compiled by 'albert@albert-system' on 2024-07-22

   ID    Z sym.   atoms
    1    6 C      1-6, 8-13, 15-21, 23-28, 30-35, 37
    2    8 O      7, 29
    3    7 N      14, 22, 36, 38
    4    1 H      39-58

          program call               : xtb data2507/toluene/PXZ-ND/PXZ-ND_toluene_S0_crest.xyz --gfn 2 --gbsa toluene --ohess vtight --parallel 40 --molden --ceasefiles --namespace data2507/toluene/PXZ-ND/PXZ-ND_toluene_S0_finalOpt
      * Solvation model:               GBSA
        Solvent                        toluene
        Solvent mass                       9.2140E+01 g/mol
          :  Hamiltonian                  GFN2-xTB          :
 * total energy  :   -98.6548919 Eh     change       -0.1180581E-08 Eh
 * total energy  :   -98.6549331 Eh     change       -0.4116559E-04 Eh
 * total energy  :   -98.6549548 Eh     change       -0.2170974E-04 Eh
 * total energy  :   -98.6549708 Eh     change       -0.1602977E-04 Eh
 * total energy  :   -98.6549862 Eh     change       -0.1537022E-04 Eh
 * total energy  :   -98.6550139 Eh     change       -0.2771194E-04 Eh
 * total energy  :   -98.6550210 Eh     change       -0.7056077E-05 Eh
 * total energy  :   -98.6550263 Eh     change       -0.5313518E-05 Eh
 * total energy  :   -98.6550292 Eh     change       -0.2954022E-05 Eh
 * total energy  :   -98.6550311 Eh     change       -0.1826992E-05 Eh
 * total energy  :   -98.6550363 Eh     change       -0.1152587E-05 Eh
 * total energy  :   -98.6550372 Eh     change       -0.8846965E-06 Eh
 * total energy  :   -98.6550379 Eh     change       -0.6755307E-06 Eh
 * total energy  :   -98.6550386 Eh     change       -0.6833546E-06 Eh
 * total energy  :   -98.6550392 Eh     change       -0.6332826E-06 Eh
 * total energy  :   -98.6550399 Eh     change       -0.6438546E-06 Eh
 * total energy  :   -98.6550405 Eh     change       -0.6257380E-06 Eh
 * total energy  :   -98.6550410 Eh     change       -0.5498103E-06 Eh
 * total energy  :   -98.6550411 Eh     change       -0.7973000E-08 Eh
   *** GEOMETRY OPTIMIZATION CONVERGED AFTER 22 ITERATIONS ***

 final structure:
================
58
 xtb: 6.7.1 (edcfbbe)
C            7.05766786907868       -2.21238304001539       -0.71467241307472
C            5.86230308617703       -2.80062432854134       -1.08988063478781
C            4.66611089861311       -2.12909326360031       -0.90420906546640
C            4.64860994317402       -0.86810953664683       -0.31859326069368
C            5.86529105949789       -0.25646500121327       -0.00329717025401
C            7.06182567639471       -0.93089483665110       -0.19017953006826
O            5.90907168638864        1.02507077122060        0.48117632556808
C            4.80572852906442        1.80168403470643        0.19870928242416
C            4.97342711329570        3.17574043200204        0.24014918277675
C            3.90479272612897        4.01180668223854       -0.03676750731471
C            2.68044457753200        3.46712086841851       -0.37638527905056
C            2.50909733275525        2.09278125265254       -0.42864129240552
C            3.56225525553990        1.24230251860708       -0.12093047352151
N            3.45005304329145       -0.16659199050348       -0.08866696957563
C            2.29738872166531       -0.83639902992071        0.27219682860572
C            2.40095926735346       -2.05714753969026        0.99581378047246
C            1.25778507249693       -2.70143084242006        1.36793335645009
C            0.00647848653817       -2.15061240201358        1.02937619732903
C           -1.24182912590011       -2.71034391276406        1.36360566628655
C           -2.38823782282131       -2.07102871318284        0.99221507809264
C           -2.29012328186826       -0.84511229653987        0.27736828263053
N           -3.44777180616104       -0.17700301748568       -0.07467413086112
C           -4.63376844986628       -0.88728094640314       -0.33770746550980
C           -4.62542576362038       -2.13844271852050       -0.94431416658803
C           -5.80982493248491       -2.81993599199550       -1.16609026651215
C           -7.01924056409263       -2.25114886882947       -0.80668956595574
C           -7.04829499732296       -0.97907017001705       -0.26032238890420
C           -5.86364886298083       -0.29519275859567       -0.03630876878869
O           -5.93319212560558        0.97609266370135        0.47171688456730
C           -4.83026829402560        1.76928253701598        0.23840607803526
C           -5.01160400560376        3.13992357441393        0.31774738386025
C           -3.94443679534734        3.99365185301318        0.09399902113214
C           -2.70681756392460        3.47030039212371       -0.23037248073835
C           -2.52158549278610        2.09969085044476       -0.32044371938888
C           -3.57416737827364        1.23065155016414       -0.06762101784685
N           -1.13358047750330       -0.29541561783777       -0.02312732924224
C            0.00370668144408       -0.90990705750489        0.33243592821814
N            1.13766074391215       -0.29218347272448       -0.02707293350682
H            7.98978885480718       -2.73884432331760       -0.84634951369542
H            5.85449601238478       -3.78539397303332       -1.53071253578023
H            3.73353391892571       -2.58274911585390       -1.20453043367592
H            7.98000378910724       -0.43645841354302        0.08471669720464
H            5.94481268315251        3.56606247829076        0.50057003166890
H            4.03821268814444        5.08153970886409        0.00678526941159
H            1.84550061466473        4.11039144441949       -0.60645839110256
H            1.55526387302979        1.66161357811196       -0.67772188923362
H            3.36981223091897       -2.43922417207427        1.27584551768946
H            1.29816089257535       -3.62147233156959        1.93518747964186
H           -1.27762416501023       -3.63301234749171        1.92688424535242
H           -3.35578798179874       -2.46050579855198        1.26675711051896
H           -3.68197010802866       -2.57663585784704       -1.23333349866841
H           -5.78151723212571       -3.79691972092781       -1.62313919222105
H           -7.94258828774683       -2.78498591709907       -0.96734850211473
H           -7.97743823581360       -0.49942441397730        0.00380312597164
H           -5.99278291477609        3.51349980243530        0.56582126846289
H           -4.08910919281352        5.06026749437266        0.16743440218787
H           -1.87187582744875        4.12732069148722       -0.41760355856283
H           -1.55776638730240        1.68446301870076       -0.55846011714863

          :  Hamiltonian                  GFN2-xTB          :
         :: gradient norm              0.000068287350 Eh/a0 ::
         :: HOMO-LUMO gap              1.922093965318 eV    ::
         :: SCC energy              -100.308580606608 Eh    ::
         :: -> dispersion             -0.080691092455 Eh    ::
         :: -> Gsolv                  -0.039900113836 Eh    ::
         :: repulsion energy           1.653539555494 Eh    ::

    * Orbital Energies and Occupations

         #    Occupation            Energy/Eh            Energy/eV
      -------------------------------------------------------------
         1        2.0000           -0.7357400             -20.0205
       ...           ...                  ...                  ...
        78        2.0000           -0.4288748             -11.6703
        79        2.0000           -0.4221003             -11.4859
        80        2.0000           -0.4193431             -11.4109
        81        2.0000           -0.4191980             -11.4070
        82        2.0000           -0.4168984             -11.3444
        83        2.0000           -0.4155720             -11.3083
        84        2.0000           -0.4143187             -11.2742
        85        2.0000           -0.3974633             -10.8155
        86        2.0000           -0.3947558             -10.7419
        87        2.0000           -0.3883302             -10.5670
        88        2.0000           -0.3631337              -9.8814
        89        2.0000           -0.3607959              -9.8178
        90        2.0000           -0.3539249              -9.6308 (HOMO)
        91                         -0.2832893              -7.7087 (LUMO)
        92                         -0.2513280              -6.8390
        93                         -0.2414739              -6.5708
        94                         -0.2409199              -6.5558
        95                         -0.2365017              -6.4355
        96                         -0.2343800              -6.3778
        97                         -0.2243984              -6.1062
        98                         -0.2217019              -6.0328
        99                         -0.2178682              -5.9285
       100                         -0.2112080              -5.7473
       101                         -0.2022100              -5.5024
       ...                                ...                  ...
       172                          0.6736568              18.3311
      -------------------------------------------------------------
                  HL-Gap            0.0706356 Eh            1.9221 eV

     #   Z          covCN         q      C6AA      α(0)
     1   6 C        2.920    -0.035    28.874     8.812
     2   6 C        2.919    -0.038    28.938     8.821
     3   6 C        2.922    -0.050    29.252     8.869
     4   6 C        2.931     0.040    27.107     8.539
     5   6 C        2.894     0.127    25.220     8.234
     6   6 C        2.918    -0.055    29.373     8.887
     7   8 O        1.708    -0.266    18.404     5.792
     8   6 C        2.895     0.122    25.318     8.250
     9   6 C        2.919    -0.056    29.395     8.891
    10   6 C        2.919    -0.036    28.898     8.815
    11   6 C        2.920    -0.037    28.914     8.818
    12   6 C        2.921    -0.056    29.403     8.892
    13   6 C        2.925     0.045    27.001     8.521
    14   7 N        2.756    -0.069    22.571     7.056
    15   6 C        2.892     0.159    24.571     8.127
    16   6 C        2.914    -0.067    29.669     8.932
    17   6 C        2.919    -0.026    28.640     8.776
    18   6 C        2.984    -0.031    28.773     8.799
    19   6 C        2.919    -0.026    28.640     8.776
    20   6 C        2.914    -0.067    29.664     8.931
    21   6 C        2.893     0.159    24.569     8.127
    22   7 N        2.755    -0.069    22.582     7.058
    23   6 C        2.930     0.040    27.102     8.538
    24   6 C        2.923    -0.051    29.259     8.870
    25   6 C        2.919    -0.038    28.939     8.822
    26   6 C        2.920    -0.035    28.879     8.813
    27   6 C        2.918    -0.055    29.376     8.888
    28   6 C        2.893     0.127    25.223     8.234
    29   8 O        1.708    -0.266    18.405     5.792
    30   6 C        2.894     0.122    25.320     8.250
    31   6 C        2.919    -0.056    29.398     8.891
    32   6 C        2.919    -0.036    28.904     8.816
    33   6 C        2.920    -0.037    28.917     8.818
    34   6 C        2.921    -0.057    29.421     8.895
    35   6 C        2.925     0.045    26.999     8.521
    36   7 N        1.856    -0.287    28.300     7.885
    37   6 C        2.940     0.178    24.178     8.064
    38   7 N        1.857    -0.288    28.314     7.887
    39   1 H        0.926     0.052     2.290     2.366
    40   1 H        0.926     0.050     2.323     2.384
    41   1 H        0.926     0.041     2.435     2.440
    42   1 H        0.926     0.057     2.235     2.338
    43   1 H        0.926     0.054     2.275     2.359
    44   1 H        0.926     0.050     2.322     2.383
    45   1 H        0.926     0.050     2.318     2.381
    46   1 H        0.926     0.082     1.959     2.189
    47   1 H        0.926     0.039     2.459     2.452
    48   1 H        0.925     0.040     2.442     2.444
    49   1 H        0.925     0.040     2.442     2.444
    50   1 H        0.926     0.039     2.462     2.454
    51   1 H        0.926     0.040     2.442     2.444
    52   1 H        0.926     0.049     2.327     2.385
    53   1 H        0.926     0.052     2.293     2.368
    54   1 H        0.926     0.057     2.237     2.339
    55   1 H        0.926     0.053     2.277     2.360
    56   1 H        0.926     0.050     2.325     2.385
    57   1 H        0.926     0.050     2.322     2.383
    58   1 H        0.926     0.082     1.961     2.190

molecular dipole:
                 x           y           z       tot (Debye)
 q only:        0.048      -0.327      -0.359
   full:        0.048      -1.127       0.127       2.886

 projected vibrational frequencies (cm⁻¹)
eigval :       -0.00     0.00     0.00     0.00     0.00     0.00
eigval :       10.25    17.62    36.79    40.91    54.82    66.39
eigval :       73.82    75.66   100.55   108.46   118.68   141.72
eigval :      161.28   183.68   203.02   226.82   229.52   252.01
eigval :      256.78   271.78   287.82   303.52   308.09   313.51
eigval :      343.38   369.21   386.24   395.90   405.45   409.91
eigval :      414.10   433.58   439.43   442.59   454.36   457.15
eigval :      465.42   505.17   508.54   529.07   530.32   537.36
eigval :      543.85   549.20   551.46   578.02   584.41   611.17
eigval :      614.80   622.83   625.29   655.11   656.82   671.02
eigval :      671.80   675.12   687.21   691.93   744.66   776.78
eigval :      781.03   782.80   783.80   791.01   797.36   803.71
eigval :      815.29   841.00   844.83   853.21   853.91   869.42
eigval :      875.32   876.42   878.69   887.25   904.25   905.28
eigval :      906.63   908.12   913.75   914.30   916.65   917.21
eigval :      919.21   921.09   925.25   926.04   983.75  1034.73
eigval :     1082.43  1083.78  1084.63  1086.05  1099.38  1100.87
eigval :     1116.89  1118.63  1139.34  1159.35  1165.35  1168.21
eigval :     1170.11  1171.20  1175.94  1180.85  1194.92  1195.89
eigval :     1215.28  1221.94  1235.97  1237.23  1240.61  1247.31
eigval :     1248.44  1282.30  1294.37  1295.92  1303.86  1314.39
eigval :     1317.73  1325.00  1329.96  1334.96  1358.78  1360.87
eigval :     1418.28  1419.06  1424.28  1435.35  1440.46  1443.73
eigval :     1462.72  1464.33  1479.00  1488.85  1489.32  1523.04
eigval :     1557.01  1571.17  1571.76  1574.98  1575.33  1586.69
eigval :     1587.69  1591.11  1594.90  1596.93  3057.56  3059.41
eigval :     3086.01  3086.34  3090.06  3090.91  3093.82  3094.03
eigval :     3097.74  3098.69  3099.03  3100.02  3101.95  3102.10
eigval :     3107.17  3107.91  3111.21  3111.22  3137.18  3139.80

   temp. (K)  partition function   enthalpy   heat capacity  entropy
                                   cal/mol     cal/K/mol   cal/K/mol   J/K/mol
 298.15  VIB  0.174E+12            15932.251    106.912     96.436
         ROT  0.399E+08              888.752      2.981     37.760
         INT  0.693E+19            16821.003    109.893    134.196
         TR   0.106E+29             1481.254      4.968     44.450
         TOT                       18302.2572   114.8608   178.6459   747.4545

       T/K    H(0)-H(T)+PV         H(T)/Eh          T*S/Eh         G(T)/Eh
   ------------------------------------------------------------------------
    298.15    0.291665E-01    0.458921E+00    0.848804E-01    0.374040E+00
   ------------------------------------------------------------------------

         :::::::::::::::::::::::::::::::::::::::::::::::::::::
         ::                  THERMODYNAMIC                  ::
         :::::::::::::::::::::::::::::::::::::::::::::::::::::
         :: total free energy         -98.281000744844 Eh   ::
         ::.................................................::
         :: total energy              -98.655041052117 Eh   ::
         :: zero point energy           0.429754244247 Eh   ::
         :: G(RRHO) w/o ZPVE           -0.055713936974 Eh   ::
         :: G(RRHO) contrib.            0.374040307273 Eh   ::
         :::::::::::::::::::::::::::::::::::::::::::::::::::::

           -------------------------------------------------
          | TOTAL ENERGY              -98.655041052117 Eh   |
          | TOTAL ENTHALPY            -98.196120304546 Eh   |
          | TOTAL FREE ENERGY         -98.281000744844 Eh   |
          | GRADIENT NORM               0.000068289717 Eh/α |
          | HOMO-LUMO GAP               1.922093553255 eV   |
           -------------------------------------------------

 * finished run on 2025/09/07 at 22:08:43.949
