   * xtb version 6.7.1 (edcfbbe) compiled by 'albert@albert-system' on 2024-07-22

   ID    Z sym.   atoms
    1    6 C      1-6, 8-13, 15-21, 23-28, 30-35, 37
    2    8 O      7, 29
    3    7 N      14, 22, 36, 38
    4    1 H      39-58

          program call               : xtb data2507/toluene/PXZ-ND/PXZ-ND_toluene_S0_finalOpt.xtbopt.xyz --gfn 2 --uhf 2 --gbsa toluene --ohess vtight --parallel 40 --molden --ceasefiles --namespace data2507/toluene/PXZ-ND/PXZ-ND_toluene_T1_preOpt
      * Solvation model:               GBSA
        Solvent                        toluene
        Solvent mass                       9.2140E+01 g/mol
          :  Hamiltonian                  GFN2-xTB          :
 * total energy  :   -98.5755570 Eh     change       -0.2027535E-07 Eh
 * total energy  :   -98.5796827 Eh     change       -0.4125689E-02 Eh
 * total energy  :   -98.5811426 Eh     change       -0.1459819E-02 Eh
 * total energy  :   -98.5814852 Eh     change       -0.3426669E-03 Eh
 * total energy  :   -98.5818855 Eh     change       -0.4002777E-03 Eh
 * total energy  :   -98.5821502 Eh     change       -0.2646623E-03 Eh
 * total energy  :   -98.5824076 Eh     change       -0.2574763E-03 Eh
 * total energy  :   -98.5826432 Eh     change       -0.2355784E-03 Eh
 * total energy  :   -98.5828235 Eh     change       -0.1803177E-03 Eh
 * total energy  :   -98.5829728 Eh     change       -0.1492485E-03 Eh
 * total energy  :   -98.5850109 Eh     change       -0.6904331E-06 Eh
 * total energy  :   -98.5850114 Eh     change       -0.5792387E-06 Eh
 * total energy  :   -98.5850121 Eh     change       -0.6276698E-06 Eh
 * total energy  :   -98.5850127 Eh     change       -0.5950375E-06 Eh
 * total energy  :   -98.5850132 Eh     change       -0.5673825E-06 Eh
 * total energy  :   -98.5850138 Eh     change       -0.5584472E-06 Eh
 * total energy  :   -98.5850143 Eh     change       -0.5411064E-06 Eh
 * total energy  :   -98.5850149 Eh     change       -0.5277325E-06 Eh
 * total energy  :   -98.5850149 Eh     change       -0.5607845E-08 Eh
   *** GEOMETRY OPTIMIZATION CONVERGED AFTER 152 ITERATIONS ***

 final structure:
================
58
 xtb: 6.7.1 (edcfbbe)
C            6.75496026738195       -2.43952789359023       -1.34422893587847
C            5.48524621405476       -2.99416397517320       -1.31746477046233
C            4.39959649100173       -2.24022749698146       -0.91271237545955
C            4.56174961504556       -0.91319079182347       -0.51529237235384
C            5.84558226095996       -0.34843263553157       -0.59523638876899
C            6.93086971745460       -1.11090697857763       -0.99584533630800
O            6.07655893576404        0.96536863257589       -0.29355719925309
C            4.98256628518640        1.76492377002624       -0.09101424627176
C            5.21132152570080        3.12715568619229        0.01904138423455
C            4.15271763426241        3.99438957613577        0.23011670745311
C            2.86498202995796        3.49363352652579        0.32544321929217
C            2.63007573033926        2.13447791737018        0.22215885352919
C            3.68097856168226        1.24588325485427        0.01008919049759
N            3.49295348833561       -0.13387398863500       -0.08339265765566
C            2.32112228219203       -0.75411422879779        0.39225542585384
C            2.42171350313302       -1.77644766879917        1.32215404480362
C            1.25335487206126       -2.34832263884059        1.81519795224356
C            0.00629606081629       -1.86757100844745        1.38905420146597
C           -1.23852092131824       -2.35397924089934        1.81532841045378
C           -2.40950094471211       -1.78786408246282        1.32186491872600
C           -2.31360572159895       -0.76538578076002        0.39162573465523
N           -3.48834921538405       -0.15127194344852       -0.08478766048618
C           -4.55290218162289       -0.93619842816036       -0.51700147273770
C           -4.38363880474814       -2.26239667872565       -0.91423794920287
C           -5.46515058662412       -3.02202938113372       -1.31941856670430
C           -6.73771862709496       -2.47400146340893       -1.34683405954078
C           -6.92072137703114       -1.14630294261509       -0.99857791143821
C           -5.83962552357967       -0.37815731218370       -0.59747432052526
O           -6.07757227364633        0.93442549904135       -0.29585414188999
C           -4.98780535889288        1.73973236942258       -0.09325520224361
C           -5.22366660045291        3.10077931302590        0.01642723144338
C           -4.16960567374716        3.97357162504443        0.22733082772913
C           -2.87928094058659        3.47955690091446        0.32287404622047
C           -2.63728772618476        2.12160668728359        0.22006760203116
C           -3.68355082140392        1.22751777755558        0.00820066203987
N           -1.13624185964078       -0.29722547417591       -0.04796731860113
C            0.00383831823847       -0.79642993775315        0.42350194761121
N            1.14160403734612       -0.29167342588954       -0.04762774235268
H            7.60373293268855       -3.03113967354482       -1.64807664602538
H            5.33464084455237       -4.02030644172889       -1.61466306358565
H            3.41068911675474       -2.67147106739055       -0.90221644989092
H            7.90148657816181       -0.64201760146207       -1.02716924269055
H            6.22683472744267        3.48226893970412       -0.05654428943564
H            4.33773431737817        5.05305855109956        0.32009620494003
H            2.03331567659311        4.16141150783530        0.48775018847846
H            1.62936846829950        1.74018596103954        0.28567746906513
H            3.38979042611420       -2.09456334521287        1.67837217966785
H            1.29888586609994       -3.14420715634798        2.54317606644433
H           -1.28036195282266       -3.14988699260023        2.54351250104650
H           -3.37613817119525       -2.11054046498342        1.67790641864259
H           -3.39249768630406       -2.68845651289997       -0.90325007931686
H           -5.30905865959319       -4.04741695974319       -1.61642097437260
H           -7.58324773267256       -3.07003056034094       -1.65108504886558
H           -7.89376271238939       -0.68250091467706       -1.03035796745542
H           -6.24100840068565        3.45056294118218       -0.05935888971260
H           -4.36011667234627        5.03129464239260        0.31697401176679
H           -2.05112725275782        4.15173238481706        0.48497210649519
H           -1.63455835504216        1.73250627768687        0.28378727325208

          :  Hamiltonian                  GFN2-xTB          :
         :: gradient norm              0.000064160533 Eh/a0 ::
         :: HOMO-LUMO gap              0.775089043922 eV    ::
         :: SCC energy              -100.228399014513 Eh    ::
         :: -> dispersion             -0.080457910156 Eh    ::
         :: -> Gsolv                  -0.041329169394 Eh    ::
         :: repulsion energy           1.643384141127 Eh    ::

    * Orbital Energies and Occupations

         #    Occupation            Energy/Eh            Energy/eV
      -------------------------------------------------------------
         1        2.0000           -0.7454802             -20.2855
       ...           ...                  ...                  ...
        79        2.0000           -0.4259891             -11.5918
        80        2.0000           -0.4259838             -11.5916
        81        2.0000           -0.4234044             -11.5214
        82        2.0000           -0.4221507             -11.4873
        83        2.0000           -0.4122282             -11.2173
        84        2.0000           -0.4022957             -10.9470
        85        2.0000           -0.3990630             -10.8591
        86        2.0000           -0.3944633             -10.7339
        87        2.0000           -0.3877034             -10.5499
        88        1.9992           -0.3608435              -9.8191
        89        1.9623           -0.3571953              -9.7198
        90        1.0386           -0.3510633              -9.5529
        91        1.0000           -0.2788157              -7.5870 (HOMO)
        92        0.0000           -0.2503319              -6.8119 (LUMO)
        93        0.0000           -0.2499248              -6.8008
        94                         -0.2416084              -6.5745
        95                         -0.2395761              -6.5192
        96                         -0.2379178              -6.4741
        97                         -0.2264821              -6.1629
        98                         -0.2221913              -6.0461
        99                         -0.2097542              -5.7077
       100                         -0.2096209              -5.7041
       101                         -0.1991595              -5.4194
       102                         -0.1562674              -4.2523
       ...                                ...                  ...
       172                          0.6769475              18.4207
      -------------------------------------------------------------
                  HL-Gap            0.0284838 Eh            0.7751 eV

     #   Z          covCN         q      C6AA      α(0)
     1   6 C        2.919    -0.034    28.840     8.807
     2   6 C        2.918    -0.034    28.845     8.807
     3   6 C        2.922    -0.051    29.255     8.870
     4   6 C        2.927     0.046    26.972     8.517
     5   6 C        2.887     0.127    25.211     8.232
     6   6 C        2.917    -0.054    29.351     8.884
     7   8 O        1.709    -0.243    18.021     5.732
     8   6 C        2.887     0.126    25.237     8.236
     9   6 C        2.918    -0.055    29.366     8.886
    10   6 C        2.919    -0.033    28.821     8.804
    11   6 C        2.918    -0.033    28.831     8.805
    12   6 C        2.921    -0.054    29.332     8.881
    13   6 C        2.923     0.050    26.870     8.501
    14   7 N        2.753    -0.050    22.199     6.998
    15   6 C        2.884     0.130    25.150     8.222
    16   6 C        2.911    -0.066    29.650     8.929
    17   6 C        2.921    -0.067    29.676     8.933
    18   6 C        2.975    -0.013    28.333     8.731
    19   6 C        2.921    -0.067    29.676     8.933
    20   6 C        2.911    -0.066    29.650     8.929
    21   6 C        2.884     0.130    25.150     8.222
    22   7 N        2.753    -0.050    22.199     6.998
    23   6 C        2.927     0.046    26.972     8.517
    24   6 C        2.922    -0.051    29.255     8.870
    25   6 C        2.918    -0.034    28.845     8.807
    26   6 C        2.919    -0.034    28.840     8.807
    27   6 C        2.917    -0.054    29.351     8.884
    28   6 C        2.887     0.127    25.211     8.232
    29   8 O        1.709    -0.243    18.022     5.732
    30   6 C        2.887     0.126    25.237     8.236
    31   6 C        2.918    -0.055    29.366     8.886
    32   6 C        2.919    -0.033    28.821     8.804
    33   6 C        2.918    -0.033    28.831     8.805
    34   6 C        2.921    -0.054    29.332     8.881
    35   6 C        2.923     0.050    26.870     8.501
    36   7 N        1.852    -0.292    28.416     7.901
    37   6 C        2.912     0.184    24.067     8.044
    38   7 N        1.852    -0.292    28.416     7.901
    39   1 H        0.926     0.056     2.247     2.344
    40   1 H        0.926     0.052     2.291     2.367
    41   1 H        0.926     0.044     2.396     2.421
    42   1 H        0.926     0.061     2.181     2.310
    43   1 H        0.926     0.060     2.194     2.316
    44   1 H        0.926     0.056     2.248     2.345
    45   1 H        0.926     0.053     2.281     2.362
    46   1 H        0.926     0.070     2.088     2.260
    47   1 H        0.926     0.024     2.670     2.555
    48   1 H        0.926     0.023     2.686     2.563
    49   1 H        0.926     0.023     2.686     2.563
    50   1 H        0.926     0.024     2.670     2.555
    51   1 H        0.926     0.044     2.396     2.421
    52   1 H        0.926     0.052     2.291     2.367
    53   1 H        0.926     0.056     2.247     2.344
    54   1 H        0.926     0.061     2.182     2.310
    55   1 H        0.926     0.060     2.194     2.316
    56   1 H        0.926     0.056     2.248     2.345
    57   1 H        0.926     0.053     2.281     2.362
    58   1 H        0.926     0.070     2.088     2.260

molecular dipole:
                 x           y           z       tot (Debye)
 q only:       -0.001       0.639      -0.419
   full:        0.000       0.043       0.107       0.292

 projected vibrational frequencies (cm⁻¹)
eigval :       -0.00    -0.00    -0.00     0.00     0.00     0.00
eigval :       13.29    16.32    28.79    38.40    51.41    52.61
eigval :       70.01    72.37   105.99   110.35   120.94   144.28
eigval :      147.28   191.53   200.09   212.11   239.61   246.80
eigval :      249.05   266.06   283.60   286.07   300.92   302.24
eigval :      332.15   371.33   389.08   394.02   399.32   415.13
eigval :      419.71   436.57   439.00   441.26   451.44   456.86
eigval :      478.15   501.54   502.59   517.21   517.56   525.45
eigval :      531.56   539.63   542.38   569.33   572.63   592.12
eigval :      606.04   614.63   615.59   621.18   660.93   666.47
eigval :      670.27   673.34   679.12   683.98   704.94   729.88
eigval :      754.38   773.78   777.13   779.49   783.64   784.27
eigval :      790.18   794.45   839.19   839.87   850.91   854.74
eigval :      855.28   859.89   867.25   869.79   873.98   874.39
eigval :      900.43   901.49   903.81   903.88   912.35   912.56
eigval :      915.62   916.83   925.30   925.40   974.11  1028.03
eigval :     1082.02  1082.18  1083.14  1083.92  1107.39  1107.59
eigval :     1111.15  1120.01  1122.18  1125.26  1164.36  1167.38
eigval :     1168.46  1169.81  1180.49  1183.66  1201.39  1203.16
eigval :     1205.07  1212.83  1224.84  1234.35  1234.86  1246.75
eigval :     1249.77  1279.31  1279.84  1283.03  1298.89  1310.54
eigval :     1311.40  1315.14  1318.26  1321.32  1337.04  1342.50
eigval :     1359.27  1373.55  1402.14  1415.80  1416.86  1437.93
eigval :     1438.75  1443.59  1443.68  1458.54  1460.02  1480.07
eigval :     1496.87  1525.29  1554.55  1554.81  1560.25  1561.29
eigval :     1568.04  1573.62  1583.40  1585.73  3069.39  3071.64
eigval :     3082.45  3084.25  3091.27  3091.37  3093.76  3094.11
eigval :     3098.96  3099.26  3101.22  3101.39  3104.97  3105.00
eigval :     3110.37  3110.65  3112.69  3113.04  3115.58  3116.75

   temp. (K)  partition function   enthalpy   heat capacity  entropy
                                   cal/mol     cal/K/mol   cal/K/mol   J/K/mol
 298.15  VIB  0.327E+12            16186.781    107.959     97.711
         ROT  0.409E+08              888.752      2.981     37.809
         INT  0.134E+20            17075.534    110.940    135.520
         TR   0.106E+29             1481.254      4.968     44.450
         TOT                       18556.7877   115.9085   179.9705   752.9966

       T/K    H(0)-H(T)+PV         H(T)/Eh          T*S/Eh         G(T)/Eh
   ------------------------------------------------------------------------
    298.15    0.295721E-01    0.455786E+00    0.855098E-01    0.370276E+00
   ------------------------------------------------------------------------

         :::::::::::::::::::::::::::::::::::::::::::::::::::::
         ::                  THERMODYNAMIC                  ::
         :::::::::::::::::::::::::::::::::::::::::::::::::::::
         :: total free energy         -98.214738397447 Eh   ::
         ::.................................................::
         :: total energy              -98.585014874711 Eh   ::
         :: zero point energy           0.426214149578 Eh   ::
         :: G(RRHO) w/o ZPVE           -0.055937672313 Eh   ::
         :: G(RRHO) contrib.            0.370276477264 Eh   ::
         :::::::::::::::::::::::::::::::::::::::::::::::::::::

           -------------------------------------------------
          | TOTAL ENERGY              -98.585014874711 Eh   |
          | TOTAL ENTHALPY            -98.129228601529 Eh   |
          | TOTAL FREE ENERGY         -98.214738397447 Eh   |
          | GRADIENT NORM               0.000063850331 Eh/α |
          | HOMO-LUMO GAP               0.775083696080 eV   |
           -------------------------------------------------

 * finished run on 2025/09/07 at 22:08:53.236
