   * xtb version 6.7.1 (edcfbbe) compiled by 'albert@albert-system' on 2024-07-22

   ID    Z sym.   atoms
    1    6 C      1-6, 8-13, 15-21, 23-28, 30-35, 37
    2    8 O      7, 29
    3    7 N      14, 22, 36, 38
    4    1 H      39-58

          program call               : xtb data2507/toluene/PXZ-ND/PXZ-ND_toluene_T1_crest.xyz --gfn 2 --uhf 2 --gbsa toluene --ohess vtight --parallel 40 --molden --ceasefiles --namespace data2507/toluene/PXZ-ND/PXZ-ND_toluene_T1_finalOpt
      * Solvation model:               GBSA
        Solvent                        toluene
        Solvent mass                       9.2140E+01 g/mol
          :  Hamiltonian                  GFN2-xTB          :
 * total energy  :   -98.5849250 Eh     change       -0.9140547E-07 Eh
 * total energy  :   -98.5849721 Eh     change       -0.4705935E-04 Eh
 * total energy  :   -98.5849921 Eh     change       -0.2000159E-04 Eh
 * total energy  :   -98.5849997 Eh     change       -0.7598036E-05 Eh
 * total energy  :   -98.5850068 Eh     change       -0.7107678E-05 Eh
 * total energy  :   -98.5850113 Eh     change       -0.4514540E-05 Eh
 * total energy  :   -98.5850152 Eh     change       -0.3884041E-05 Eh
 * total energy  :   -98.5850177 Eh     change       -0.2520175E-05 Eh
 * total energy  :   -98.5850199 Eh     change       -0.2225688E-05 Eh
 * total energy  :   -98.5850218 Eh     change       -0.1916623E-05 Eh
 * total energy  :   -98.5850252 Eh     change       -0.5433986E-06 Eh
 * total energy  :   -98.5850257 Eh     change       -0.4975951E-06 Eh
 * total energy  :   -98.5850262 Eh     change       -0.5420254E-06 Eh
 * total energy  :   -98.5850268 Eh     change       -0.5569567E-06 Eh
 * total energy  :   -98.5850273 Eh     change       -0.5413805E-06 Eh
 * total energy  :   -98.5850278 Eh     change       -0.4375127E-06 Eh
 * total energy  :   -98.5850281 Eh     change       -0.3522703E-06 Eh
 * total energy  :   -98.5850284 Eh     change       -0.2499891E-06 Eh
 * total energy  :   -98.5850284 Eh     change       -0.2567970E-07 Eh
   *** GEOMETRY OPTIMIZATION CONVERGED AFTER 22 ITERATIONS ***

 final structure:
================
58
 xtb: 6.7.1 (edcfbbe)
C            6.66823508011578       -2.59024703285128       -1.19928633676681
C            5.39611341357158       -3.12299044530836       -1.06451233872124
C            4.33781378773103       -2.32141794050585       -0.67895201900803
C            4.53038706814560       -0.96657995649938       -0.41000585062626
C            5.81482863129750       -0.42887445715729       -0.59752772201655
C            6.87271070354983       -1.23864698242888       -0.97794810034944
O            6.07353834085785        0.90286889146562       -0.42447320482330
C            5.00201705106277        1.73157642659550       -0.22012362475709
C            5.25351541174876        3.09404977111349       -0.21359737361502
C            4.21910928533837        3.99038417624900       -0.00353176348917
C            2.93296773751085        3.51777977368220        0.19752252825631
C            2.67531496503209        2.15883013198745        0.19639813410703
C            3.70153527754873        1.24128320842655       -0.01381787465011
N            3.49052545683239       -0.13721896537341       -0.00340765907563
C            2.31673705051376       -0.69842459648856        0.53967348681567
C            2.41654042182951       -1.62748618868788        1.56212381002342
C            1.24700420755455       -2.14218939655511        2.11243021046775
C            0.00104910306423       -1.70081592832077        1.64267000840971
C           -1.24416548885768       -2.14295997875457        2.11374686653062
C           -2.41455271195820       -1.62915914534284        1.56440905360485
C           -2.31628681742433       -0.70008252718335        0.54187322185899
N           -3.49097508036244       -0.14012222770357       -0.00070034190695
C           -4.52837434780913       -0.97068436565081       -0.41096908125201
C           -4.33333124300581       -2.32527775517696       -0.67936362044184
C           -5.38924956016954       -3.12793117962482       -1.06921166000369
C           -6.66134965130236       -2.59652068968934       -1.20913612484225
C           -6.86819781786346       -1.24523593676984       -0.98804900377082
C           -5.81276051558839       -0.43441706712583       -0.60310532965591
O           -6.07380519599726        0.89691651676253       -0.43042732888903
C           -5.00434038464513        1.72679748067214       -0.22030053598904
C           -5.25780384408367        3.08889374799152       -0.21257547185859
C           -4.22554138614603        3.98636471386629        0.00315105402728
C           -2.93961143879415        3.51524122090919        0.20896970594450
C           -2.68002629335518        2.15665911269192        0.20673700752513
C           -3.70399737315614        1.23797932393942       -0.00950543880674
N           -1.13924946675483       -0.27031487437557        0.06407886938261
C            0.00021470688003       -0.72592885663800        0.57969942891836
N            1.13893983732784       -0.26973411440272        0.06290498766888
H            7.49596849292505       -3.21761894349689       -1.48896386241343
H            5.22163761878972       -4.16929854835688       -1.26154201016617
H            3.34668099998218       -2.73692015496354       -0.58488351868965
H            7.84514331601830       -0.78761092710066       -1.09549371785711
H            6.26745141689548        3.42700119249175       -0.36879498219819
H            4.42205533876029        5.04955187325920        0.00488867224501
H            2.11996145250174        4.20799941947226        0.36072565555531
H            1.67414008543913        1.78790868344449        0.33988504132129
H            3.38489234573443       -1.91866503255416        1.94000081804748
H            1.29081230511220       -2.86421074627564        2.91383447356539
H           -1.28668843885073       -2.86492468254740        2.91526734087367
H           -3.38240546767460       -1.92110782017378        1.94297543944606
H           -3.34214749884400       -2.73978204682214       -0.58159129807816
H           -5.21283833035838       -4.17401566056564       -1.26571191724314
H           -7.48725057157108       -3.22466487294717       -1.50235939626495
H           -7.84065081032417       -0.79523599530260       -1.10932091097018
H           -6.27156133178781        3.42065356028288       -0.37144231112786
H           -4.43000799304668        5.04523190471581        0.01239433019866
H           -2.12828272485739        4.20631869327879        0.37683442459246
H           -1.67890866808305        1.78712997612290        0.35400899003733

          :  Hamiltonian                  GFN2-xTB          :
         :: gradient norm              0.000087353834 Eh/a0 ::
         :: HOMO-LUMO gap              0.779282533870 eV    ::
         :: SCC energy              -100.228696939552 Eh    ::
         :: -> dispersion             -0.080360258645 Eh    ::
         :: -> Gsolv                  -0.041360263336 Eh    ::
         :: repulsion energy           1.643668532871 Eh    ::

    * Orbital Energies and Occupations

         #    Occupation            Energy/Eh            Energy/eV
      -------------------------------------------------------------
         1        2.0000           -0.7456558             -20.2903
       ...           ...                  ...                  ...
        79        2.0000           -0.4262004             -11.5975
        80        2.0000           -0.4261802             -11.5970
        81        2.0000           -0.4235583             -11.5256
        82        2.0000           -0.4224753             -11.4961
        83        2.0000           -0.4119428             -11.2095
        84        2.0000           -0.4023992             -10.9498
        85        2.0000           -0.3993289             -10.8663
        86        2.0000           -0.3944254             -10.7329
        87        2.0000           -0.3877822             -10.5521
        88        1.9993           -0.3608369              -9.8189
        89        1.9519           -0.3567654              -9.7081
        90        1.0488           -0.3511090              -9.5542
        91        1.0000           -0.2791729              -7.5967 (HOMO)
        92        0.0000           -0.2505348              -6.8174 (LUMO)
        93        0.0000           -0.2502012              -6.8083
        94                         -0.2414421              -6.5700
        95                         -0.2396706              -6.5218
        96                         -0.2380926              -6.4788
        97                         -0.2263467              -6.1592
        98                         -0.2223554              -6.0506
        99                         -0.2094445              -5.6993
       100                         -0.2092517              -5.6940
       101                         -0.1994828              -5.4282
       102                         -0.1566627              -4.2630
       ...                                ...                  ...
       172                          0.6766584              18.4128
      -------------------------------------------------------------
                  HL-Gap            0.0286381 Eh            0.7793 eV

     #   Z          covCN         q      C6AA      α(0)
     1   6 C        2.919    -0.034    28.840     8.806
     2   6 C        2.918    -0.034    28.842     8.807
     3   6 C        2.922    -0.051    29.263     8.871
     4   6 C        2.926     0.046    26.962     8.515
     5   6 C        2.886     0.127    25.211     8.232
     6   6 C        2.917    -0.054    29.350     8.884
     7   8 O        1.709    -0.242    18.011     5.730
     8   6 C        2.886     0.126    25.235     8.236
     9   6 C        2.918    -0.055    29.365     8.886
    10   6 C        2.919    -0.033    28.821     8.804
    11   6 C        2.918    -0.033    28.830     8.805
    12   6 C        2.922    -0.053    29.314     8.879
    13   6 C        2.923     0.051    26.859     8.499
    14   7 N        2.753    -0.049    22.193     6.997
    15   6 C        2.885     0.130    25.150     8.222
    16   6 C        2.911    -0.066    29.650     8.929
    17   6 C        2.921    -0.067    29.675     8.933
    18   6 C        2.975    -0.013    28.339     8.732
    19   6 C        2.921    -0.067    29.676     8.933
    20   6 C        2.911    -0.066    29.650     8.929
    21   6 C        2.885     0.130    25.151     8.222
    22   7 N        2.753    -0.049    22.191     6.996
    23   6 C        2.926     0.046    26.962     8.515
    24   6 C        2.922    -0.051    29.263     8.871
    25   6 C        2.918    -0.034    28.841     8.807
    26   6 C        2.919    -0.034    28.840     8.806
    27   6 C        2.917    -0.054    29.350     8.884
    28   6 C        2.886     0.127    25.210     8.232
    29   8 O        1.709    -0.242    18.009     5.730
    30   6 C        2.886     0.126    25.234     8.236
    31   6 C        2.918    -0.055    29.364     8.886
    32   6 C        2.919    -0.033    28.821     8.804
    33   6 C        2.918    -0.033    28.830     8.805
    34   6 C        2.922    -0.053    29.312     8.878
    35   6 C        2.923     0.051    26.858     8.499
    36   7 N        1.852    -0.292    28.419     7.901
    37   6 C        2.912     0.184    24.068     8.045
    38   7 N        1.852    -0.292    28.418     7.901
    39   1 H        0.926     0.056     2.246     2.343
    40   1 H        0.926     0.052     2.291     2.367
    41   1 H        0.926     0.044     2.400     2.422
    42   1 H        0.926     0.062     2.180     2.309
    43   1 H        0.926     0.061     2.191     2.315
    44   1 H        0.926     0.056     2.246     2.344
    45   1 H        0.926     0.053     2.282     2.362
    46   1 H        0.926     0.067     2.119     2.276
    47   1 H        0.926     0.024     2.671     2.556
    48   1 H        0.926     0.023     2.687     2.563
    49   1 H        0.926     0.023     2.687     2.563
    50   1 H        0.926     0.024     2.670     2.555
    51   1 H        0.926     0.044     2.400     2.422
    52   1 H        0.926     0.052     2.291     2.367
    53   1 H        0.926     0.056     2.245     2.343
    54   1 H        0.926     0.062     2.180     2.309
    55   1 H        0.926     0.061     2.191     2.315
    56   1 H        0.926     0.056     2.246     2.344
    57   1 H        0.926     0.053     2.282     2.362
    58   1 H        0.926     0.067     2.122     2.278

molecular dipole:
                 x           y           z       tot (Debye)
 q only:       -0.003       0.582      -0.458
   full:       -0.002       0.037       0.116       0.309

 projected vibrational frequencies (cm⁻¹)
eigval :       -0.00    -0.00    -0.00    -0.00     0.00     0.00
eigval :       -6.96     8.53    21.43    22.57    48.33    48.55
eigval :       65.97    68.48    98.72   106.55   116.80   142.26
eigval :      142.32   189.82   194.92   209.08   240.19   246.73
eigval :      248.46   265.33   282.07   283.55   297.81   301.00
eigval :      330.31   370.52   388.89   393.75   397.41   415.60
eigval :      420.17   434.25   437.24   439.21   451.41   455.04
eigval :      478.80   497.98   498.54   514.82   516.07   522.44
eigval :      530.23   538.75   541.54   570.13   573.22   591.80
eigval :      606.58   614.61   616.58   621.13   660.11   663.99
eigval :      667.10   669.61   676.16   683.23   704.43   738.59
eigval :      761.49   773.36   776.85   777.63   778.19   779.64
eigval :      789.08   794.36   836.27   839.84   847.93   854.92
eigval :      855.47   859.96   863.00   865.00   869.77   870.17
eigval :      899.09   900.03   901.87   902.34   912.11   912.37
eigval :      914.94   915.38   916.06   916.74   974.29  1027.94
eigval :     1082.64  1082.75  1083.94  1084.63  1106.44  1109.21
eigval :     1111.10  1119.45  1121.69  1126.88  1166.81  1169.54
eigval :     1171.45  1172.91  1182.60  1186.28  1202.64  1204.69
eigval :     1205.11  1213.19  1224.49  1235.43  1236.24  1248.56
eigval :     1251.41  1278.64  1278.90  1283.49  1300.30  1310.81
eigval :     1311.72  1315.05  1318.27  1320.41  1337.51  1343.03
eigval :     1358.74  1372.63  1401.21  1416.39  1417.33  1438.79
eigval :     1439.61  1444.03  1444.07  1458.45  1460.51  1480.62
eigval :     1497.08  1526.04  1554.73  1555.13  1560.53  1561.50
eigval :     1568.33  1573.83  1583.60  1585.89  3069.60  3071.67
eigval :     3081.91  3083.81  3092.59  3092.75  3093.89  3094.12
eigval :     3100.58  3100.87  3101.78  3101.91  3105.72  3105.87
eigval :     3111.20  3111.42  3112.93  3113.21  3118.85  3120.74

   temp. (K)  partition function   enthalpy   heat capacity  entropy
                                   cal/mol     cal/K/mol   cal/K/mol   J/K/mol
 298.15  VIB  0.383E+13            16322.650    107.606    100.124
         ROT  0.410E+08              888.752      2.981     37.818
         INT  0.157E+21            17211.402    110.587    137.942
         TR   0.106E+29             1481.254      4.968     44.450
         TOT                       18692.6559   115.5551   182.3922   763.1288

       T/K    H(0)-H(T)+PV         H(T)/Eh          T*S/Eh         G(T)/Eh
   ------------------------------------------------------------------------
    298.15    0.297886E-01    0.455704E+00    0.866604E-01    0.369044E+00
   ------------------------------------------------------------------------

         :::::::::::::::::::::::::::::::::::::::::::::::::::::
         ::                  THERMODYNAMIC                  ::
         :::::::::::::::::::::::::::::::::::::::::::::::::::::
         :: total free energy         -98.215984314308 Eh   ::
         ::.................................................::
         :: total energy              -98.585028407267 Eh   ::
         :: zero point energy           0.425915854846 Eh   ::
         :: G(RRHO) w/o ZPVE           -0.056871761887 Eh   ::
         :: G(RRHO) contrib.            0.369044092959 Eh   ::
         :::::::::::::::::::::::::::::::::::::::::::::::::::::

           -------------------------------------------------
          | TOTAL ENERGY              -98.585028407267 Eh   |
          | TOTAL ENTHALPY            -98.129323909090 Eh   |
          | TOTAL FREE ENERGY         -98.215984314308 Eh   |
          | GRADIENT NORM               0.000087176994 Eh/α |
          | HOMO-LUMO GAP               0.779282852279 eV   |
           -------------------------------------------------

 * finished run on 2025/09/07 at 22:12:18.973
