   * xtb version 6.7.1 (edcfbbe) compiled by 'albert@albert-system' on 2024-07-22

   ID    Z sym.   atoms
    1    6 C      1-6, 8-13, 15-21, 23-28, 30-35, 37
    2    8 O      7, 29
    3    7 N      14, 22, 36, 38
    4    1 H      39-58

          program call               : xtb data2507/toluene/PXZ-ND/PXZ-ND.xyz --gfn 2 --gbsa toluene --ohess vtight --parallel 40 --molden --ceasefiles --namespace data2507/toluene/PXZ-ND/PXZ-ND_toluene_S0_preOpt
      * Solvation model:               GBSA
        Solvent                        toluene
        Solvent mass                       9.2140E+01 g/mol
          :  Hamiltonian                  GFN2-xTB          :
 * total energy  :   -98.6261770 Eh     change       -0.6379679E-09 Eh
 * total energy  :   -98.6386565 Eh     change       -0.1247949E-01 Eh
 * total energy  :   -98.6438447 Eh     change       -0.5188171E-02 Eh
 * total energy  :   -98.6457645 Eh     change       -0.1919802E-02 Eh
 * total energy  :   -98.6471738 Eh     change       -0.1409326E-02 Eh
 * total energy  :   -98.6479500 Eh     change       -0.7762373E-03 Eh
 * total energy  :   -98.6484637 Eh     change       -0.5137031E-03 Eh
 * total energy  :   -98.6487937 Eh     change       -0.3299749E-03 Eh
 * total energy  :   -98.6490685 Eh     change       -0.2748110E-03 Eh
 * total energy  :   -98.6493506 Eh     change       -0.2821040E-03 Eh
 * total energy  :   -98.6549666 Eh     change       -0.8488472E-06 Eh
 * total energy  :   -98.6549673 Eh     change       -0.6511118E-06 Eh
 * total energy  :   -98.6549678 Eh     change       -0.5043600E-06 Eh
 * total energy  :   -98.6549682 Eh     change       -0.4156587E-06 Eh
 * total energy  :   -98.6549686 Eh     change       -0.3758365E-06 Eh
 * total energy  :   -98.6549690 Eh     change       -0.3631066E-06 Eh
 * total energy  :   -98.6549693 Eh     change       -0.3626197E-06 Eh
 * total energy  :   -98.6549697 Eh     change       -0.3662075E-06 Eh
 * total energy  :   -98.6549697 Eh     change       -0.2771429E-08 Eh
   *** GEOMETRY OPTIMIZATION CONVERGED AFTER 221 ITERATIONS ***

 final structure:
================
58
 xtb: 6.7.1 (edcfbbe)
C            7.02317999875598       -2.28633495301972       -0.43819691841773
C            5.81435819333380       -2.90213880356226       -0.71145495467780
C            4.62989570974140       -2.19418005505392       -0.59891890093626
C            4.63760336392076       -0.86589399543261       -0.18766050178830
C            5.86729869608825       -0.23551798569541        0.02324539710740
C            7.05190164372496       -0.94617482161860       -0.09070673968666
O            5.93783658113357        1.09720401697642        0.33547823664859
C            4.83197988055337        1.84729261459059       -0.00213257717886
C            5.00977300212240        3.21638579875717       -0.11103013279992
C            3.93966551155964        4.02933240163441       -0.44551481157977
C            2.70273973670556        3.46366916884423       -0.69215198732942
C            2.52094109891445        2.09311185507043       -0.59360846620013
C            3.57628468508791        1.26917865825553       -0.22689000518860
N            3.45099197172447       -0.12519549397798       -0.03488487520241
C            2.29446500395489       -0.73477420834836        0.41525516848024
C            2.39611957101918       -1.83498936927431        1.31099143100756
C            1.25153372070196       -2.41141129493222        1.77853279759652
C            0.00190862746880       -1.91273927078794        1.36281595508593
C           -1.24772612625947       -2.40614587782656        1.78573714998392
C           -2.39279005275082       -1.83053170819242        1.31920078154986
C           -2.29315698684663       -0.73938855740075        0.41118238668768
N           -3.44728267587854       -0.13731961998093       -0.04927195601745
C           -4.64941679091219       -0.86340890324427       -0.14946621600295
C           -4.67572541140597       -2.20231678490333       -0.52370309396649
C           -5.87498518782912       -2.89126383888823       -0.58354878745060
C           -7.06482962638094       -2.24641449577896       -0.29345772573303
C           -7.06105478412520       -0.89684245618890        0.01605393181327
C           -5.86139275435339       -0.20498611788529        0.07700072758922
O           -5.89753839845793        1.13789630051966        0.34910101597229
C           -4.79775449758899        1.85516042759379       -0.07052568433431
C           -4.96417190698140        3.21800328117576       -0.25177456663637
C           -3.89930663021133        3.99440807179012       -0.67703120159406
C           -2.68079993364434        3.39761675084412       -0.94205107604083
C           -2.51054596521931        2.03290600840828       -0.77019116334097
C           -3.55924828972062        1.24752241995074       -0.31153722624114
N           -1.13488756383472       -0.24657110906668        0.02827362566543
C            0.00095177513523       -0.79670160295687        0.47978042479792
N            1.13673886920487       -0.24199673175594        0.03222640545001
H            7.94635304965587       -2.83913634224557       -0.51264458108026
H            5.78663005341956       -3.93701252310192       -1.01546247302026
H            3.68675613643751       -2.67104239238724       -0.81970731952030
H            7.98058568658830       -0.43254758064130        0.10115401433506
H            5.99066157457368        3.62218694324404        0.08099922768321
H            4.08152502482356        5.09639361195072       -0.51811118421347
H            1.86543150415561        4.08701449203970       -0.96460998258597
H            1.55732964145235        1.64710165126793       -0.76864911110929
H            3.36507089632205       -2.17450684697957        1.64140840643637
H            1.28978071636406       -3.23494352444517        2.47872825893873
H           -1.28518857601983       -3.22542547756289        2.49095350412404
H           -3.36027835513964       -2.16487898339895        1.65869323297779
H           -3.74760818539861       -2.70166690879465       -0.75791110328182
H           -5.87412688881632       -3.93435018656071       -0.85939976302143
H           -7.99898069872069       -2.78462200828161       -0.32642419979900
H           -7.97499737846712       -0.36130377492065        0.21846540020167
H           -5.93155271631701        3.64809619249472       -0.04459719603820
H           -4.03119266875645        5.05735616803065       -0.80654160861740
H           -1.84933163086971        3.99221906393109       -1.28700476544976
H           -1.56042424375012        1.56461970773147       -0.95850362402268

          :  Hamiltonian                  GFN2-xTB          :
         :: gradient norm              0.000043754707 Eh/a0 ::
         :: HOMO-LUMO gap              1.921453075654 eV    ::
         :: SCC energy              -100.308449356610 Eh    ::
         :: -> dispersion             -0.080685742059 Eh    ::
         :: -> Gsolv                  -0.039844225416 Eh    ::
         :: repulsion energy           1.653479666878 Eh    ::

    * Orbital Energies and Occupations

         #    Occupation            Energy/Eh            Energy/eV
      -------------------------------------------------------------
         1        2.0000           -0.7358495             -20.0235
       ...           ...                  ...                  ...
        78        2.0000           -0.4288744             -11.6703
        79        2.0000           -0.4220807             -11.4854
        80        2.0000           -0.4193885             -11.4121
        81        2.0000           -0.4192419             -11.4082
        82        2.0000           -0.4168903             -11.3442
        83        2.0000           -0.4155445             -11.3075
        84        2.0000           -0.4142967             -11.2736
        85        2.0000           -0.3974541             -10.8153
        86        2.0000           -0.3947272             -10.7411
        87        2.0000           -0.3883499             -10.5675
        88        2.0000           -0.3631447              -9.8817
        89        2.0000           -0.3607895              -9.8176
        90        2.0000           -0.3538683              -9.6292 (HOMO)
        91                         -0.2832562              -7.7078 (LUMO)
        92                         -0.2513075              -6.8384
        93                         -0.2415242              -6.5722
        94                         -0.2409602              -6.5569
        95                         -0.2365339              -6.4364
        96                         -0.2343991              -6.3783
        97                         -0.2244078              -6.1064
        98                         -0.2216728              -6.0320
        99                         -0.2178186              -5.9271
       100                         -0.2111519              -5.7457
       101                         -0.2022435              -5.5033
       ...                                ...                  ...
       172                          0.6736570              18.3311
      -------------------------------------------------------------
                  HL-Gap            0.0706121 Eh            1.9215 eV

     #   Z          covCN         q      C6AA      α(0)
     1   6 C        2.920    -0.035    28.881     8.813
     2   6 C        2.918    -0.038    28.941     8.822
     3   6 C        2.923    -0.051    29.261     8.871
     4   6 C        2.930     0.040    27.101     8.537
     5   6 C        2.893     0.127    25.224     8.234
     6   6 C        2.918    -0.055    29.379     8.888
     7   8 O        1.708    -0.265    18.400     5.792
     8   6 C        2.893     0.122    25.321     8.250
     9   6 C        2.919    -0.056    29.400     8.892
    10   6 C        2.919    -0.036    28.906     8.817
    11   6 C        2.920    -0.037    28.918     8.819
    12   6 C        2.921    -0.057    29.426     8.896
    13   6 C        2.924     0.045    26.999     8.521
    14   7 N        2.755    -0.070    22.590     7.059
    15   6 C        2.893     0.159    24.569     8.127
    16   6 C        2.914    -0.067    29.664     8.931
    17   6 C        2.919    -0.026    28.640     8.776
    18   6 C        2.984    -0.031    28.773     8.799
    19   6 C        2.919    -0.026    28.640     8.776
    20   6 C        2.914    -0.067    29.671     8.932
    21   6 C        2.892     0.159    24.571     8.127
    22   7 N        2.756    -0.069    22.568     7.056
    23   6 C        2.931     0.040    27.110     8.539
    24   6 C        2.922    -0.050    29.249     8.869
    25   6 C        2.919    -0.038    28.938     8.821
    26   6 C        2.920    -0.035    28.872     8.811
    27   6 C        2.918    -0.055    29.372     8.887
    28   6 C        2.894     0.127    25.218     8.234
    29   8 O        1.708    -0.266    18.402     5.792
    30   6 C        2.895     0.122    25.317     8.250
    31   6 C        2.919    -0.056    29.394     8.891
    32   6 C        2.919    -0.036    28.896     8.815
    33   6 C        2.920    -0.037    28.914     8.818
    34   6 C        2.921    -0.056    29.394     8.891
    35   6 C        2.925     0.045    27.001     8.521
    36   7 N        1.857    -0.288    28.319     7.887
    37   6 C        2.940     0.178    24.178     8.064
    38   7 N        1.856    -0.287    28.294     7.884
    39   1 H        0.926     0.052     2.294     2.369
    40   1 H        0.926     0.049     2.328     2.386
    41   1 H        0.926     0.040     2.444     2.445
    42   1 H        0.926     0.057     2.238     2.340
    43   1 H        0.926     0.053     2.278     2.360
    44   1 H        0.926     0.049     2.327     2.385
    45   1 H        0.926     0.050     2.323     2.383
    46   1 H        0.926     0.082     1.962     2.191
    47   1 H        0.926     0.039     2.464     2.455
    48   1 H        0.925     0.040     2.442     2.444
    49   1 H        0.925     0.040     2.443     2.444
    50   1 H        0.926     0.039     2.458     2.452
    51   1 H        0.926     0.041     2.432     2.439
    52   1 H        0.926     0.050     2.322     2.383
    53   1 H        0.926     0.052     2.289     2.366
    54   1 H        0.926     0.057     2.234     2.337
    55   1 H        0.926     0.054     2.274     2.358
    56   1 H        0.926     0.050     2.321     2.382
    57   1 H        0.926     0.050     2.316     2.380
    58   1 H        0.926     0.082     1.959     2.189

molecular dipole:
                 x           y           z       tot (Debye)
 q only:       -0.080      -0.376      -0.296
   full:       -0.077      -1.091       0.310       2.889

 projected vibrational frequencies (cm⁻¹)
eigval :       -0.00    -0.00    -0.00     0.00     0.00     0.00
eigval :       11.72    16.14    32.71    39.85    55.81    65.16
eigval :       75.02    76.23   102.13   108.18   118.53   141.34
eigval :      161.94   184.26   202.94   226.76   229.64   252.27
eigval :      256.88   272.64   288.38   303.99   308.69   313.79
eigval :      343.10   370.25   386.60   395.65   405.43   409.82
eigval :      413.72   434.75   440.20   443.07   454.75   457.42
eigval :      465.66   504.24   507.72   528.43   529.75   536.96
eigval :      543.69   549.12   551.46   578.03   584.26   611.18
eigval :      615.00   623.03   624.80   655.40   657.03   670.64
eigval :      671.51   674.83   687.05   691.80   742.96   776.68
eigval :      780.00   782.53   784.00   791.15   802.72   805.02
eigval :      815.72   841.67   848.87   853.19   854.06   869.75
eigval :      873.47   875.38   876.82   887.38   903.38   904.14
eigval :      905.76   907.33   913.70   915.73   916.94   918.27
eigval :      919.74   921.67   927.42   930.80   983.74  1034.68
eigval :     1082.33  1083.25  1084.25  1085.44  1099.46  1100.97
eigval :     1117.22  1118.94  1139.92  1159.53  1164.80  1167.72
eigval :     1171.15  1172.20  1175.90  1180.82  1194.93  1196.23
eigval :     1215.17  1221.83  1235.90  1237.11  1240.75  1247.41
eigval :     1248.45  1282.29  1294.20  1295.94  1303.76  1314.25
eigval :     1317.84  1325.26  1329.97  1334.97  1358.68  1360.84
eigval :     1418.38  1418.99  1424.18  1435.58  1440.51  1443.69
eigval :     1462.68  1464.49  1479.23  1488.71  1489.29  1522.96
eigval :     1557.08  1571.02  1571.62  1575.07  1575.39  1586.59
eigval :     1587.60  1591.26  1595.02  1597.04  3057.91  3059.86
eigval :     3086.90  3087.92  3089.44  3090.18  3094.04  3094.17
eigval :     3097.96  3098.06  3099.16  3099.35  3102.23  3102.32
eigval :     3106.91  3107.69  3110.98  3111.12  3136.35  3141.51

   temp. (K)  partition function   enthalpy   heat capacity  entropy
                                   cal/mol     cal/K/mol   cal/K/mol   J/K/mol
 298.15  VIB  0.182E+12            15930.545    106.810     96.328
         ROT  0.399E+08              888.752      2.981     37.759
         INT  0.727E+19            16819.297    109.791    134.087
         TR   0.106E+29             1481.254      4.968     44.450
         TOT                       18300.5509   114.7594   178.5377   747.0018

       T/K    H(0)-H(T)+PV         H(T)/Eh          T*S/Eh         G(T)/Eh
   ------------------------------------------------------------------------
    298.15    0.291638E-01    0.458954E+00    0.848290E-01    0.374125E+00
   ------------------------------------------------------------------------

         :::::::::::::::::::::::::::::::::::::::::::::::::::::
         ::                  THERMODYNAMIC                  ::
         :::::::::::::::::::::::::::::::::::::::::::::::::::::
         :: total free energy         -98.280844702950 Eh   ::
         ::.................................................::
         :: total energy              -98.654969687566 Eh   ::
         :: zero point energy           0.429790230146 Eh   ::
         :: G(RRHO) w/o ZPVE           -0.055665245529 Eh   ::
         :: G(RRHO) contrib.            0.374124984617 Eh   ::
         :::::::::::::::::::::::::::::::::::::::::::::::::::::

           -------------------------------------------------
          | TOTAL ENERGY              -98.654969687566 Eh   |
          | TOTAL ENTHALPY            -98.196015673176 Eh   |
          | TOTAL FREE ENERGY         -98.280844702950 Eh   |
          | GRADIENT NORM               0.000043758511 Eh/α |
          | HOMO-LUMO GAP               1.921453090400 eV   |
           -------------------------------------------------

 * finished run on 2025/09/07 at 22:06:31.182
