   * xtb version 6.7.1 (edcfbbe) compiled by 'albert@albert-system' on 2024-07-22

   ID    Z sym.   atoms
    1    6 C      1-7, 9-21, 24-28, 30-42, 44-49, 51-63
    2    7 N      8, 22, 23, 29, 43, 50
    3    1 H      64-101

          program call               : xtb data2507/toluene/TCPZ/TCPZ_toluene_S0_finalOpt.xtbopt.xyz --gfn 2 --uhf 2 --gbsa toluene --ohess vtight --parallel 40 --molden --ceasefiles --namespace data2507/toluene/TCPZ/TCPZ_toluene_T1_preOpt
      * Solvation model:               GBSA
        Solvent                        toluene
        Solvent mass                       9.2140E+01 g/mol
          :  Hamiltonian                  GFN2-xTB          :
 * total energy  :  -159.0385263 Eh     change       -0.6608474E-08 Eh
 * total energy  :  -159.0457745 Eh     change       -0.7248254E-02 Eh
 * total energy  :  -159.0490552 Eh     change       -0.3280716E-02 Eh
 * total energy  :  -159.0500791 Eh     change       -0.1023912E-02 Eh
 * total energy  :  -159.0513087 Eh     change       -0.1229521E-02 Eh
 * total energy  :  -159.0523540 Eh     change       -0.1045353E-02 Eh
 * total energy  :  -159.0531883 Eh     change       -0.8342802E-03 Eh
 * total energy  :  -159.0537800 Eh     change       -0.5917435E-03 Eh
 * total energy  :  -159.0541313 Eh     change       -0.3512644E-03 Eh
 * total energy  :  -159.0542076 Eh     change       -0.7624477E-04 Eh
 * total energy  :  -159.0571622 Eh     change       -0.2752750E-06 Eh
 * total energy  :  -159.0571624 Eh     change       -0.1641297E-06 Eh
 * total energy  :  -159.0571625 Eh     change       -0.1599586E-06 Eh
 * total energy  :  -159.0571627 Eh     change       -0.1769220E-06 Eh
 * total energy  :  -159.0571629 Eh     change       -0.1499988E-06 Eh
 * total energy  :  -159.0571630 Eh     change       -0.1455036E-06 Eh
 * total energy  :  -159.0571632 Eh     change       -0.1634276E-06 Eh
 * total energy  :  -159.0571633 Eh     change       -0.1331631E-06 Eh
 * total energy  :  -159.0571634 Eh     change       -0.9765219E-07 Eh
   *** GEOMETRY OPTIMIZATION CONVERGED AFTER 165 ITERATIONS ***

 final structure:
================
101
 xtb: 6.7.1 (edcfbbe)
C           -0.41751638233477       -0.56389523243949        0.06865443648195
C            0.69028138675753        0.29792792612248        0.03977583297106
C            0.62769776926571        1.72313306970900        0.11884261421369
C            1.74015263682093        2.50130738548700        0.50068203840304
C            1.63619953957431        3.87055441851705        0.60960129823666
C            0.43948730808547        4.52182423723480        0.35019700731601
C           -0.66702201655571        3.77329490417815       -0.05522112118844
N           -1.88810302068831        4.40603902074272       -0.33774590333158
C           -3.12789907384256        3.99998224054918        0.11811595661276
C           -3.46187664242528        2.96495734873357        0.98158623138171
C           -4.79738067036070        2.77477919863419        1.28076575163033
C           -5.78585551744955        3.60234583760568        0.75174758041427
C           -5.45876928208693        4.65604492701827       -0.07815099244845
C           -4.12253337050164        4.86271885648820       -0.39799430714990
C           -3.44004819647212        5.83451747498484       -1.20555562103813
C           -3.87072954559048        6.91295220228434       -1.96792857718722
C           -2.93268720510295        7.64809970013106       -2.66490227560287
C           -1.58206126500837        7.30771664712751       -2.62204744410226
C           -1.12971239762063        6.24002652375827       -1.87033349887085
C           -2.06358094764369        5.51413286684341       -1.14346192749305
C           -0.56900400179495        2.39962628598599       -0.17999777748665
N            1.94140412067954       -0.30829458843474       -0.00056851455212
N            2.04781103561027       -1.67477493864131       -0.14453855309273
C            3.30841738878724       -2.23302718773177       -0.22478616727877
C            3.42475296484003       -3.59052413425650       -0.56289434407467
C            4.66849366554894       -4.17584734767141       -0.64834569022424
C            5.81992787669776       -3.44421081274372       -0.39858860696255
C            5.71449338759991       -2.09516394366891       -0.06379558224480
N            6.86449503379260       -1.33878798124060        0.19929690790660
C            7.98358357854344       -1.26405696755013       -0.60966853147649
C            8.22338878945338       -1.85093856154769       -1.84415769210329
C            9.43098652118119       -1.58462460277229       -2.46157314257569
C           10.37895974907708       -0.74753007654675       -1.87636427651763
C           10.13555950366985       -0.14111102757058       -0.65996571424205
C            8.92878344917557       -0.39393372410375       -0.01991175015193
C            8.34675894873947        0.07059599010648        1.20878883498064
C            8.79173742353485        0.91923041246890        2.21447929040062
C            7.97039874044046        1.14639153304767        3.30106043627247
C            6.72680303641133        0.52589359818742        3.39996649811214
C            6.26301163095136       -0.32313961751928        2.41256944217621
C            7.07225165223215       -0.53443005142768        1.30466130225293
C            4.46838266094571       -1.48776192242173        0.01806670394150
N            1.00764810916814       -2.47659111494796       -0.15469212830591
C           -0.23928761952624       -1.94147444677616       -0.03062601798115
C           -1.32570569121088       -2.89908602259434        0.01894135392505
C           -1.04486953736173       -4.27378209682366        0.03075152561297
C           -2.06113065174144       -5.20334725079557        0.09414853114477
C           -3.38567451072722       -4.80067765506793        0.16157518257910
C           -3.68288959618044       -3.43977018964183        0.14555034032692
N           -5.01759366774152       -3.00373335376202        0.22712446995656
C           -6.05956798879271       -3.41553783425400       -0.57729321506856
C           -6.05222692606244       -4.29481558753998       -1.65144373129604
C           -7.24645958593108       -4.52109348974608       -2.30837670192001
C           -8.42381743718156       -3.88510977417321       -1.91788081983246
C           -8.43330179169830       -2.99330389421592       -0.86385420094824
C           -7.24489451141343       -2.74881665499414       -0.18706539529463
C           -6.88997057589039       -1.89870523609593        0.91471603341381
C           -7.60983004168859       -1.02833367705720        1.72373724825346
C           -6.94960220600916       -0.37236822445678        2.74356100554806
C           -5.58990892701680       -0.58253766236450        2.96845501375279
C           -4.85102080900685       -1.43831114411707        2.17407043149472
C           -5.50517066966859       -2.08648146998057        1.13516493030807
C           -2.66659226840718       -2.50164458919158        0.06174236946312
H           -1.39632580011677       -0.14284402440510        0.19323706823160
H            2.67423664211018        2.02545747186223        0.76056765964374
H            2.49535352550899        4.44605860142050        0.92230954620493
H            0.35430180281291        5.58944329179577        0.47546096383880
H           -2.70359425804285        2.33204738245599        1.41777820801074
H           -5.08243419932397        1.96610279575292        1.93731380888438
H           -6.81918563380813        3.41672071615659        1.00554789040693
H           -6.22226694592565        5.30982552118026       -0.47295637541603
H           -4.91994370122754        7.16453184119976       -2.01432318566203
H           -3.24598332166621        8.49274342172144       -3.26095274892969
H           -0.87258310681198        7.88982443455668       -3.19222136721081
H           -0.08315244167944        5.97574967026862       -1.86055833984056
H           -1.42117410828590        1.84961875748254       -0.54548386113234
H            2.69959958450750        0.22294867708601       -0.40799727183477
H            2.52569039587424       -4.15011784047634       -0.75432592086316
H            4.74771719798066       -5.22073162634174       -0.90552482912318
H            6.79080622059446       -3.91128811460120       -0.43929065230955
H            7.48964962091429       -2.48756330377959       -2.31463368698126
H            9.64284553859176       -2.03277882032103       -3.42134781619382
H           11.31200154006220       -0.56630796785233       -2.38941719464034
H           10.86323002381119        0.52010727731993       -0.21380705640980
H            9.76297060579603        1.38581606561960        2.14598303307835
H            8.29618330460725        1.80501034647113        4.09262790523153
H            6.11267250069388        0.70807203195158        4.26987507877570
H            5.30749529537730       -0.81577332079292        2.51370214194818
H            4.43198348454268       -0.44641869518720        0.29732525157660
H           -0.01465597622446       -4.58681557208288       -0.00065173784587
H           -1.82499570250376       -6.25738574053273        0.10610075427766
H           -4.18262352970214       -5.52421055444972        0.24039827383988
H           -5.14186193444097       -4.78063352302574       -1.96917758387048
H           -7.26813472193324       -5.20418622996491       -3.14521389562032
H           -9.33817839949004       -4.09097837712778       -2.45514404060561
H           -9.34334940520050       -2.49126580745105       -0.57028909893811
H           -8.66635630882365       -0.87625780153446        1.55974850564237
H           -7.49134355596442        0.30874705842750        3.38394582879076
H           -5.10383234574200       -0.06898425549502        3.78611572549231
H           -3.80134252917483       -1.60572127552768        2.36479734043250
H           -2.94112231240536       -1.45938788532593        0.02084517386061

          :  Hamiltonian                  GFN2-xTB          :
         :: gradient norm              0.000048100072 Eh/a0 ::
         :: HOMO-LUMO gap              1.262769585424 eV    ::
         :: SCC energy              -161.981088796134 Eh    ::
         :: -> dispersion             -0.144515731159 Eh    ::
         :: -> Gsolv                  -0.063751265061 Eh    ::
         :: repulsion energy           2.923925405562 Eh    ::

    * Orbital Energies and Occupations

         #    Occupation            Energy/Eh            Energy/eV
      -------------------------------------------------------------
         1        2.0000           -0.7270773             -19.7848
       ...           ...                  ...                  ...
       137        2.0000           -0.4077215             -11.0947
       138        2.0000           -0.4048755             -11.0172
       139        2.0000           -0.4039936             -10.9932
       140        2.0000           -0.3986496             -10.8478
       141        2.0000           -0.3969442             -10.8014
       142        2.0000           -0.3823612             -10.4046
       143        2.0000           -0.3781776             -10.2907
       144        2.0000           -0.3773317             -10.2677
       145        2.0000           -0.3679105             -10.0114
       146        2.0000           -0.3621473              -9.8545
       147        2.0000           -0.3608288              -9.8187
       148        1.0000           -0.3301514              -8.9839
       149        1.0000           -0.2974810              -8.0949 (HOMO)
       150                         -0.2510750              -6.8321 (LUMO)
       151                         -0.2493976              -6.7865
       152                         -0.2453799              -6.6771
       153                         -0.2443470              -6.6490
       154                         -0.2425240              -6.5994
       155                         -0.2321383              -6.3168
       156                         -0.2286946              -6.2231
       157                         -0.2269785              -6.1764
       158                         -0.2257653              -6.1434
       159                         -0.2217578              -6.0343
       160                         -0.2208416              -6.0094
       ...                                ...                  ...
       290                          0.7458029              20.2943
      -------------------------------------------------------------
                  HL-Gap            0.0464060 Eh            1.2628 eV

     #   Z          covCN         q      C6AA      α(0)
     1   6 C        2.909    -0.073    29.818     8.954
     2   6 C        2.899     0.037    27.160     8.545
     3   6 C        2.970    -0.010    28.273     8.722
     4   6 C        2.921    -0.053    29.327     8.881
     5   6 C        2.915    -0.031    28.761     8.794
     6   6 C        2.920    -0.054    29.350     8.884
     7   6 C        2.908     0.064    26.576     8.453
     8   7 N        2.802    -0.049    22.178     6.994
     9   6 C        3.074     0.047    26.868     8.499
    10   6 C        2.910    -0.052    29.297     8.875
    11   6 C        2.923    -0.036    28.892     8.815
    12   6 C        2.920    -0.042    29.050     8.839
    13   6 C        2.912    -0.035    28.873     8.811
    14   6 C        3.067    -0.019    28.419     8.741
    15   6 C        3.067    -0.019    28.414     8.741
    16   6 C        2.912    -0.035    28.876     8.812
    17   6 C        2.919    -0.043    29.068     8.841
    18   6 C        2.923    -0.036    28.888     8.814
    19   6 C        2.910    -0.053    29.305     8.877
    20   6 C        3.073     0.047    26.860     8.497
    21   6 C        2.928    -0.056    29.394     8.891
    22   7 N        2.775    -0.106    23.321     7.172
    23   7 N        2.908     0.167    18.440     6.378
    24   6 C        2.928     0.033    27.266     8.563
    25   6 C        2.922    -0.045    29.127     8.850
    26   6 C        2.918    -0.023    28.585     8.767
    27   6 C        2.920    -0.049    29.228     8.866
    28   6 C        2.910     0.068    26.472     8.437
    29   7 N        2.802    -0.045    22.116     6.985
    30   6 C        3.072     0.045    26.907     8.505
    31   6 C        2.910    -0.053    29.306     8.877
    32   6 C        2.924    -0.034    28.851     8.808
    33   6 C        2.920    -0.042    29.033     8.836
    34   6 C        2.912    -0.034    28.851     8.808
    35   6 C        3.067    -0.018    28.387     8.737
    36   6 C        3.067    -0.018    28.385     8.736
    37   6 C        2.912    -0.034    28.850     8.808
    38   6 C        2.919    -0.042    29.042     8.837
    39   6 C        2.923    -0.035    28.875     8.812
    40   6 C        2.910    -0.054    29.339     8.882
    41   6 C        3.071     0.044    26.931     8.509
    42   6 C        2.922    -0.071    29.773     8.948
    43   7 N        1.930    -0.255    27.467     7.771
    44   6 C        2.915     0.070    26.427     8.430
    45   6 C        2.977     0.004    27.935     8.670
    46   6 C        2.925    -0.038    28.955     8.824
    47   6 C        2.916    -0.029    28.735     8.790
    48   6 C        2.921    -0.047    29.171     8.857
    49   6 C        2.910     0.062    26.601     8.457
    50   7 N        2.803    -0.049    22.192     6.997
    51   6 C        3.077     0.048    26.842     8.494
    52   6 C        2.909    -0.052    29.297     8.875
    53   6 C        2.924    -0.035    28.882     8.813
    54   6 C        2.919    -0.043    29.077     8.843
    55   6 C        2.912    -0.035    28.878     8.812
    56   6 C        3.068    -0.020    28.427     8.743
    57   6 C        3.067    -0.019    28.417     8.741
    58   6 C        2.912    -0.035    28.869     8.811
    59   6 C        2.919    -0.043    29.064     8.841
    60   6 C        2.923    -0.035    28.869     8.811
    61   6 C        2.909    -0.052    29.293     8.875
    62   6 C        3.078     0.048    26.842     8.494
    63   6 C        2.926    -0.052    29.289     8.875
    64   1 H        0.926     0.039     2.457     2.451
    65   1 H        0.926     0.022     2.704     2.572
    66   1 H        0.926     0.036     2.504     2.475
    67   1 H        0.926     0.038     2.480     2.463
    68   1 H        0.926     0.027     2.622     2.532
    69   1 H        0.926     0.031     2.569     2.506
    70   1 H        0.926     0.027     2.625     2.533
    71   1 H        0.926     0.030     2.585     2.514
    72   1 H        0.926     0.030     2.587     2.515
    73   1 H        0.926     0.028     2.617     2.530
    74   1 H        0.926     0.030     2.587     2.515
    75   1 H        0.926     0.030     2.587     2.515
    76   1 H        0.926     0.038     2.473     2.459
    77   1 H        0.860     0.182     1.202     1.717
    78   1 H        0.926     0.070     2.090     2.261
    79   1 H        0.926     0.057     2.232     2.336
    80   1 H        0.926     0.054     2.276     2.359
    81   1 H        0.926     0.033     2.540     2.492
    82   1 H        0.926     0.033     2.548     2.496
    83   1 H        0.926     0.030     2.587     2.515
    84   1 H        0.926     0.032     2.554     2.499
    85   1 H        0.926     0.033     2.547     2.496
    86   1 H        0.926     0.030     2.587     2.515
    87   1 H        0.926     0.032     2.564     2.504
    88   1 H        0.926     0.029     2.605     2.524
    89   1 H        0.926     0.038     2.473     2.459
    90   1 H        0.926     0.055     2.260     2.351
    91   1 H        0.926     0.041     2.442     2.444
    92   1 H        0.926     0.039     2.461     2.453
    93   1 H        0.926     0.030     2.590     2.517
    94   1 H        0.926     0.030     2.593     2.518
    95   1 H        0.926     0.027     2.629     2.536
    96   1 H        0.926     0.029     2.601     2.522
    97   1 H        0.926     0.029     2.600     2.522
    98   1 H        0.926     0.026     2.639     2.541
    99   1 H        0.926     0.028     2.622     2.532
   100   1 H        0.926     0.027     2.623     2.533
   101   1 H        0.926     0.037     2.494     2.470

molecular dipole:
                 x           y           z       tot (Debye)
 q only:        2.091      -1.110      -0.308
   full:        2.071      -0.690      -0.341       5.617

 projected vibrational frequencies (cm⁻¹)
eigval :       -0.00    -0.00    -0.00    -0.00     0.00     0.00
eigval :        8.14    11.14    13.15    15.00    17.80    22.73
eigval :       25.17    30.86    34.64    52.55    54.08    58.19
eigval :       62.74    66.95    71.18    90.82    99.34   101.61
eigval :      105.87   108.31   124.56   131.01   142.13   142.95
eigval :      145.38   166.21   168.29   186.36   195.38   203.01
eigval :      215.80   221.23   227.24   230.28   235.00   262.13
eigval :      263.04   271.40   271.82   273.09   284.01   287.81
eigval :      307.77   324.79   337.14   349.66   355.25   376.71
eigval :      379.84   389.27   395.66   396.68   398.53   406.05
eigval :      416.82   422.26   423.53   423.97   425.67   435.70
eigval :      436.99   437.36   443.01   452.86   494.93   503.38
eigval :      516.19   517.95   518.87   521.46   528.54   533.17
eigval :      539.09   540.07   540.91   542.09   555.06   562.57
eigval :      571.22   585.64   586.91   589.22   592.39   598.72
eigval :      608.33   610.08   610.72   615.11   621.19   635.30
eigval :      652.67   654.91   657.41   658.85   673.73   673.82
eigval :      674.21   702.32   704.22   707.36   709.65   711.19
eigval :      740.47   752.58   755.55   755.68   759.56   766.69
eigval :      768.28   769.17   775.10   779.50   779.85   781.24
eigval :      782.08   791.46   831.74   843.61   848.13   852.22
eigval :      857.02   860.49   867.41   869.26   874.13   875.39
eigval :      876.43   880.15   880.38   887.18   896.57   896.63
eigval :      897.61   900.79   901.66   902.79   904.04   905.28
eigval :      905.59   917.45   918.17   919.35   922.45   922.65
eigval :      924.92   924.97   926.96   927.82   929.70   966.51
eigval :      970.15   979.08   999.22  1001.35  1006.04  1010.78
eigval :     1011.88  1013.41  1056.39  1063.13  1068.42  1069.60
eigval :     1069.97  1072.19  1072.87  1074.00  1097.24  1111.15
eigval :     1117.96  1118.46  1121.61  1122.68  1130.54  1150.41
eigval :     1151.13  1152.51  1171.71  1173.53  1174.84  1175.44
eigval :     1176.32  1180.17  1180.24  1181.14  1184.92  1187.58
eigval :     1189.48  1194.07  1224.23  1225.97  1230.05  1234.40
eigval :     1234.79  1236.02  1240.07  1246.37  1251.91  1262.13
eigval :     1264.65  1273.99  1297.48  1298.59  1299.12  1299.27
eigval :     1301.41  1303.28  1311.58  1327.56  1331.73  1333.50
eigval :     1342.01  1348.73  1352.97  1353.65  1356.91  1357.18
eigval :     1357.93  1359.77  1361.90  1362.65  1377.55  1393.42
eigval :     1413.38  1418.32  1421.94  1426.34  1426.75  1427.45
eigval :     1434.97  1445.25  1452.15  1459.44  1460.42  1473.70
eigval :     1473.75  1474.68  1479.21  1483.18  1486.11  1486.99
eigval :     1487.46  1534.15  1548.02  1553.18  1562.78  1565.02
eigval :     1571.32  1573.16  1573.49  1580.13  1586.59  1587.07
eigval :     1587.14  1596.73  1597.02  1597.22  1612.16  1612.69
eigval :     1613.24  3066.77  3070.07  3070.85  3071.07  3073.09
eigval :     3073.21  3073.34  3074.36  3075.81  3076.46  3077.79
eigval :     3078.23  3078.68  3079.41  3081.32  3082.75  3083.86
eigval :     3084.10  3085.14  3085.30  3087.88  3088.21  3091.75
eigval :     3092.12  3092.55  3094.91  3095.17  3095.20  3095.52
eigval :     3096.72  3100.00  3104.31  3106.62  3112.00  3123.18
eigval :     3135.76  3157.53  3367.67

   temp. (K)  partition function   enthalpy   heat capacity  entropy
                                   cal/mol     cal/K/mol   cal/K/mol   J/K/mol
 298.15  VIB  0.974E+23            29146.596    185.921    180.806
         ROT  0.229E+09              888.752      2.981     41.237
         INT  0.223E+32            30035.349    188.902    222.043
         TR   0.222E+29             1481.254      4.968     45.921
         TOT                       31516.6027   193.8698   267.9648  1121.1648

       T/K    H(0)-H(T)+PV         H(T)/Eh          T*S/Eh         G(T)/Eh
   ------------------------------------------------------------------------
    298.15    0.502249E-01    0.821434E+00    0.127319E+00    0.694115E+00
   ------------------------------------------------------------------------

         :::::::::::::::::::::::::::::::::::::::::::::::::::::
         ::                  THERMODYNAMIC                  ::
         :::::::::::::::::::::::::::::::::::::::::::::::::::::
         :: total free energy        -158.363048010485 Eh   ::
         ::.................................................::
         :: total energy             -159.057163391230 Eh   ::
         :: zero point energy           0.771209209363 Eh   ::
         :: G(RRHO) w/o ZPVE           -0.077093828617 Eh   ::
         :: G(RRHO) contrib.            0.694115380745 Eh   ::
         :::::::::::::::::::::::::::::::::::::::::::::::::::::

           -------------------------------------------------
          | TOTAL ENERGY             -159.057163391230 Eh   |
          | TOTAL ENTHALPY           -158.235729278477 Eh   |
          | TOTAL FREE ENERGY        -158.363048010485 Eh   |
          | GRADIENT NORM               0.000048048791 Eh/α |
          | HOMO-LUMO GAP               1.262770673371 eV   |
           -------------------------------------------------

 * finished run on 2025/09/14 at 12:34:06.770
