   * xtb version 6.7.1 (edcfbbe) compiled by 'albert@albert-system' on 2024-07-22

   ID    Z sym.   atoms
    1    6 C      1-7, 9-21, 24-28, 30-42, 44-49, 51-63
    2    7 N      8, 22, 23, 29, 43, 50
    3    1 H      64-101

          program call               : xtb data2507/toluene/TCPZ/TCPZ_toluene_S0_crest.xyz --gfn 2 --gbsa toluene --ohess vtight --parallel 40 --molden --ceasefiles --namespace data2507/toluene/TCPZ/TCPZ_toluene_S0_finalOpt
      * Solvation model:               GBSA
        Solvent                        toluene
        Solvent mass                       9.2140E+01 g/mol
          :  Hamiltonian                  GFN2-xTB          :
 * total energy  :  -159.0997565 Eh     change       -0.6098190E-08 Eh
 * total energy  :  -159.0998129 Eh     change       -0.5639721E-04 Eh
 * total energy  :  -159.0998691 Eh     change       -0.5613623E-04 Eh
 * total energy  :  -159.0998917 Eh     change       -0.2256944E-04 Eh
 * total energy  :  -159.0999631 Eh     change       -0.7149666E-04 Eh
 * total energy  :  -159.1000001 Eh     change       -0.3698051E-04 Eh
 * total energy  :  -159.1000549 Eh     change       -0.5481798E-04 Eh
 * total energy  :  -159.1000964 Eh     change       -0.4142580E-04 Eh
 * total energy  :  -159.1001313 Eh     change       -0.3490575E-04 Eh
 * total energy  :  -159.1001631 Eh     change       -0.3184761E-04 Eh
 * total energy  :  -159.1006633 Eh     change       -0.1409627E-05 Eh
 * total energy  :  -159.1006646 Eh     change       -0.1319621E-05 Eh
 * total energy  :  -159.1006657 Eh     change       -0.1137895E-05 Eh
 * total energy  :  -159.1006666 Eh     change       -0.9132408E-06 Eh
 * total energy  :  -159.1006674 Eh     change       -0.8242869E-06 Eh
 * total energy  :  -159.1006681 Eh     change       -0.6827536E-06 Eh
 * total energy  :  -159.1006689 Eh     change       -0.7662018E-06 Eh
 * total energy  :  -159.1006696 Eh     change       -0.6549244E-06 Eh
 * total energy  :  -159.1006696 Eh     change       -0.7931391E-08 Eh
   *** GEOMETRY OPTIMIZATION CONVERGED AFTER 122 ITERATIONS ***

 final structure:
================
101
 xtb: 6.7.1 (edcfbbe)
C           -0.38845111856080       -0.77771950987303       -0.15265562365216
C            0.67491433621590        0.01506529788244       -0.38534570524002
C            0.69088555116315        1.46435692751744       -0.21493935506797
C            1.88500166565826        2.12864656815816        0.06954570050097
C            1.88823866864435        3.49575235287128        0.27178074545794
C            0.71362507909978        4.22346076431100        0.19304234717361
C           -0.47942839049040        3.57682935883095       -0.12432331057106
N           -1.67524161695029        4.29899316486915       -0.23474856773365
C           -2.88733723526521        3.94120819311853        0.32630454235849
C           -3.19868087545464        2.87882284555894        1.16396349856261
C           -4.50527396577186        2.75568259009770        1.59689812650528
C           -5.48398396201134        3.67477393844054        1.22465091814061
C           -5.17407600130408        4.75402724601176        0.42119975274662
C           -3.86830972109807        4.89416859944788       -0.03201083436335
C           -3.20846410048309        5.87033025032301       -0.85379879935778
C           -3.64256657203521        7.01683024423738       -1.50707547036155
C           -2.73364071963282        7.73540988542003       -2.25803274400843
C           -1.41112318733946        7.31276430185921       -2.37597816735865
C           -0.95610088094659        6.17576345573824       -1.73532750613217
C           -1.85746074333794        5.46496778529998       -0.95504762978613
C           -0.48393960059139        2.20400084456663       -0.33511569348394
N            1.90358962678443       -0.57378782420251       -0.80176891484289
N            2.00656017067502       -1.92937712675532       -0.37760211327048
C            3.24518349893728       -2.38111799937822        0.02503449481247
C            3.39706531832152       -3.68748444013933        0.50051231202519
C            4.64352411011433       -4.13581064065732        0.88460441127360
C            5.74967493543210       -3.30288345841235        0.82927032916791
C            5.60087406367410       -2.00164462388234        0.35838652448518
N            6.70510240826275       -1.13568499990599        0.30336324047161
C            7.92595512055704       -1.41215259052491       -0.27793725527780
C            8.34105483018043       -2.54234081525796       -0.96878964655824
C            9.62557091163215       -2.55255448357076       -1.47805211536848
C           10.48170977177886       -1.46464377858703       -1.31587106028921
C           10.06716238887191       -0.32866861804678       -0.64949673731699
C            8.77987643078898       -0.29436938806948       -0.12816351657825
C            8.02862969389619        0.69971044112926        0.58620022427467
C            8.32350103592464        1.97977395143079        1.03876151282673
C            7.35471857762602        2.67593596591439        1.73396073749538
C            6.10976113553518        2.10545120968678        1.99307869760488
C            5.79197252228286        0.83539837603114        1.55091927491533
C            6.75324465415765        0.13906303073542        0.83102032067698
C            4.35798608403156       -1.54535167572153       -0.05866482774588
N            0.95486259460548       -2.73160320592534       -0.31414995971755
C           -0.23683889299912       -2.21780749225112       -0.26944020500491
C           -1.37059849124080       -3.13660454454196       -0.23103749853569
C           -1.14975533078079       -4.51478429245601       -0.32184382539527
C           -2.20567665794016       -5.40170526237248       -0.27033865506647
C           -3.50473831774816       -4.94420228955565       -0.12015190228494
C           -3.74103397067160       -3.57550066550509       -0.04315053483800
N           -5.04729873084448       -3.08417948488128        0.11523220978740
C           -6.13950179573264       -3.40701604503113       -0.66470052123920
C           -6.21807184369587       -4.23361572296224       -1.77693547173413
C           -7.44635669239417       -4.36781103567307       -2.39572402768553
C           -8.57354609651033       -3.69293412049484       -1.93029566308812
C           -8.49681360095320       -2.85212800694406       -0.83773700799971
C           -7.27266152014183       -2.70015603310110       -0.19874548917425
C           -6.83330854849383       -1.91924773610900        0.92397965141437
C           -7.47739840568064       -1.05092404692370        1.79647015824742
C           -6.74729924002681       -0.47434339854439        2.81668811196090
C           -5.39370033823840       -0.76340663007169        2.98034605957969
C           -4.72947000015240       -1.61881761328132        2.12202995304918
C           -5.45311992272091       -2.18525229396750        1.08158880427286
C           -2.68165495228179       -2.67947278315752       -0.11211268474409
H           -1.30393340991987       -0.36834125441334        0.23298783656320
H            2.79787114058759        1.56083763537521        0.15022136326220
H            2.81354539751615        4.00096716140706        0.50417191762291
H            0.71231253716190        5.28553444704364        0.38373172335816
H           -2.44390085329454        2.17545453901805        1.48216351870369
H           -4.77438145404101        1.92867734900702        2.23687796798470
H           -6.49497582854469        3.54080556071873        1.58027631608967
H           -5.92752238663572        5.47785017687406        0.14846575650298
H           -4.67208710866267        7.33321038546873       -1.42932101789505
H           -3.04969972295491        8.63199849455936       -2.77083000998068
H           -0.72632893001941        7.88444404004473       -2.98542840062487
H            0.06598041452544        5.84887826661547       -1.85185130946706
H           -1.40364909205310        1.71900795082006       -0.62338978883547
H            2.02794322704224       -0.50666319992804       -1.81542202271678
H            2.53190335891240       -4.32639326196467        0.55966160051154
H            4.75573839162429       -5.14497356360357        1.25160411147881
H            6.71641005268026       -3.64692378180283        1.16200673857566
H            7.67999531153136       -3.38357540577355       -1.11255812360826
H            9.97345591946455       -3.42237832622563       -2.01630370044784
H           11.47976713082660       -1.51243117385032       -1.72645893928618
H           10.72584359761256        0.51964817454781       -0.53647031383659
H            9.29401332724495        2.41537025879617        0.85301975125349
H            7.56402421160727        3.67284448056090        2.09365988668959
H            5.37912953770541        2.66572700927868        2.55826757974405
H            4.83135945896528        0.39509564988703        1.77231152211920
H            4.25529193746117       -0.54324628485174       -0.44154135145276
H           -0.13747709529497       -4.86842290507511       -0.43084236381559
H           -2.01925260974552       -6.46339178837602       -0.33594731647251
H           -4.33010183535003       -5.63634833334804       -0.05164200597428
H           -5.34752591274242       -4.74937663388347       -2.15349400006861
H           -7.53432588754482       -5.00797928454906       -3.26162506303018
H           -9.51678796901533       -3.82681326827830       -2.43949828003603
H           -9.36743125099482       -2.31875671458877       -0.48598087100970
H           -8.52994586198463       -0.83970328354952        1.68007930512631
H           -7.22961574750760        0.20348128810950        3.50601574754717
H           -4.85209062806183       -0.31396665443129        3.80073025445862
H           -3.68466673162878       -1.84944649458174        2.26855338874685
H           -2.90637618421348       -1.62511313473926       -0.07889696028341

          :  Hamiltonian                  GFN2-xTB          :
         :: gradient norm              0.000065335777 Eh/a0 ::
         :: HOMO-LUMO gap              1.505635405093 eV    ::
         :: SCC energy              -162.033130678574 Eh    ::
         :: -> dispersion             -0.145661133185 Eh    ::
         :: -> Gsolv                  -0.062915919625 Eh    ::
         :: repulsion energy           2.932461118548 Eh    ::

    * Orbital Energies and Occupations

         #    Occupation            Energy/Eh            Energy/eV
      -------------------------------------------------------------
         1        2.0000           -0.7023739             -19.1126
       ...           ...                  ...                  ...
       136        2.0000           -0.4103757             -11.1669
       137        2.0000           -0.4067970             -11.0695
       138        2.0000           -0.4061103             -11.0508
       139        2.0000           -0.4043253             -11.0023
       140        2.0000           -0.4024872             -10.9522
       141        2.0000           -0.3974233             -10.8144
       142        2.0000           -0.3801223             -10.3437
       143        2.0000           -0.3795132             -10.3271
       144        2.0000           -0.3777129             -10.2781
       145        2.0000           -0.3648482              -9.9280
       146        2.0000           -0.3636615              -9.8957
       147        2.0000           -0.3617569              -9.8439
       148        2.0000           -0.3456039              -9.4044 (HOMO)
       149                         -0.2902729              -7.8987 (LUMO)
       150                         -0.2524990              -6.8708
       151                         -0.2477577              -6.7418
       152                         -0.2466853              -6.7126
       153                         -0.2449487              -6.6654
       154                         -0.2376706              -6.4673
       155                         -0.2340873              -6.3698
       156                         -0.2316230              -6.3028
       157                         -0.2236158              -6.0849
       158                         -0.2229834              -6.0677
       159                         -0.2211107              -6.0167
       ...                                ...                  ...
       290                          0.7453452              20.2819
      -------------------------------------------------------------
                  HL-Gap            0.0553311 Eh            1.5056 eV

     #   Z          covCN         q      C6AA      α(0)
     1   6 C        2.908    -0.074    29.852     8.959
     2   6 C        2.904     0.065    26.541     8.447
     3   6 C        2.975     0.001    27.993     8.679
     4   6 C        2.924    -0.037    28.915     8.818
     5   6 C        2.918    -0.027    28.669     8.780
     6   6 C        2.921    -0.043    29.070     8.842
     7   6 C        2.910     0.066    26.519     8.444
     8   7 N        2.802    -0.046    22.119     6.985
     9   6 C        3.073     0.046    26.887     8.502
    10   6 C        2.910    -0.052    29.292     8.875
    11   6 C        2.923    -0.035    28.878     8.813
    12   6 C        2.920    -0.042    29.035     8.836
    13   6 C        2.912    -0.034    28.859     8.809
    14   6 C        3.066    -0.018    28.393     8.738
    15   6 C        3.067    -0.018    28.389     8.737
    16   6 C        2.912    -0.035    28.861     8.809
    17   6 C        2.919    -0.042    29.047     8.838
    18   6 C        2.924    -0.035    28.867     8.811
    19   6 C        2.910    -0.052    29.301     8.876
    20   6 C        3.072     0.047    26.881     8.501
    21   6 C        2.928    -0.050    29.236     8.867
    22   7 N        2.763    -0.196    25.260     7.465
    23   7 N        2.927     0.100    19.517     6.561
    24   6 C        2.921     0.050    26.867     8.500
    25   6 C        2.921    -0.054    29.351     8.884
    26   6 C        2.920    -0.028    28.694     8.784
    27   6 C        2.920    -0.055    29.363     8.886
    28   6 C        2.912     0.065    26.547     8.449
    29   7 N        2.803    -0.046    22.131     6.987
    30   6 C        3.076     0.047    26.868     8.498
    31   6 C        2.909    -0.052    29.303     8.876
    32   6 C        2.924    -0.035    28.879     8.813
    33   6 C        2.919    -0.043    29.071     8.842
    34   6 C        2.912    -0.035    28.875     8.811
    35   6 C        3.067    -0.019    28.418     8.741
    36   6 C        3.067    -0.019    28.413     8.741
    37   6 C        2.912    -0.035    28.873     8.811
    38   6 C        2.919    -0.043    29.074     8.842
    39   6 C        2.923    -0.036    28.885     8.814
    40   6 C        2.910    -0.053    29.308     8.877
    41   6 C        3.076     0.047    26.877     8.500
    42   6 C        2.926    -0.069    29.726     8.941
    43   7 N        1.926    -0.201    26.180     7.587
    44   6 C        2.930     0.076    26.303     8.411
    45   6 C        2.978     0.005    27.906     8.665
    46   6 C        2.925    -0.037    28.915     8.818
    47   6 C        2.917    -0.027    28.687     8.783
    48   6 C        2.921    -0.044    29.086     8.844
    49   6 C        2.911     0.064    26.571     8.453
    50   7 N        2.802    -0.048    22.168     6.993
    51   6 C        3.075     0.047    26.858     8.497
    52   6 C        2.909    -0.052    29.298     8.876
    53   6 C        2.924    -0.035    28.871     8.812
    54   6 C        2.919    -0.043    29.062     8.840
    55   6 C        2.912    -0.035    28.867     8.810
    56   6 C        3.067    -0.019    28.410     8.740
    57   6 C        3.067    -0.019    28.401     8.739
    58   6 C        2.912    -0.034    28.858     8.809
    59   6 C        2.919    -0.042    29.047     8.838
    60   6 C        2.924    -0.035    28.860     8.810
    61   6 C        2.909    -0.052    29.293     8.875
    62   6 C        3.076     0.047    26.857     8.497
    63   6 C        2.927    -0.049    29.223     8.865
    64   1 H        0.926     0.040     2.449     2.447
    65   1 H        0.926     0.050     2.321     2.382
    66   1 H        0.926     0.047     2.354     2.399
    67   1 H        0.926     0.048     2.344     2.394
    68   1 H        0.926     0.027     2.624     2.533
    69   1 H        0.926     0.032     2.556     2.500
    70   1 H        0.926     0.028     2.608     2.525
    71   1 H        0.926     0.031     2.568     2.506
    72   1 H        0.926     0.031     2.571     2.507
    73   1 H        0.926     0.029     2.602     2.522
    74   1 H        0.926     0.031     2.568     2.506
    75   1 H        0.926     0.032     2.565     2.504
    76   1 H        0.926     0.044     2.400     2.423
    77   1 H        0.859     0.144     1.441     1.880
    78   1 H        0.926     0.055     2.264     2.353
    79   1 H        0.926     0.045     2.383     2.414
    80   1 H        0.926     0.042     2.418     2.431
    81   1 H        0.926     0.031     2.575     2.510
    82   1 H        0.926     0.030     2.588     2.516
    83   1 H        0.926     0.027     2.624     2.533
    84   1 H        0.926     0.030     2.588     2.516
    85   1 H        0.926     0.030     2.588     2.516
    86   1 H        0.926     0.028     2.618     2.530
    87   1 H        0.926     0.031     2.578     2.511
    88   1 H        0.926     0.029     2.594     2.519
    89   1 H        0.926     0.048     2.339     2.392
    90   1 H        0.926     0.054     2.265     2.353
    91   1 H        0.926     0.045     2.389     2.417
    92   1 H        0.926     0.044     2.397     2.421
    93   1 H        0.926     0.030     2.588     2.516
    94   1 H        0.926     0.030     2.583     2.513
    95   1 H        0.926     0.028     2.616     2.529
    96   1 H        0.926     0.030     2.584     2.514
    97   1 H        0.926     0.030     2.584     2.514
    98   1 H        0.926     0.027     2.623     2.532
    99   1 H        0.926     0.028     2.610     2.526
   100   1 H        0.926     0.027     2.624     2.533
   101   1 H        0.926     0.042     2.425     2.435

molecular dipole:
                 x           y           z       tot (Debye)
 q only:        0.482      -0.438      -0.184
   full:        0.206      -0.289      -0.381       1.324

 projected vibrational frequencies (cm⁻¹)
eigval :       -0.00    -0.00    -0.00     0.00     0.00     0.00
eigval :        9.48    11.49    13.89    15.74    19.81    26.32
eigval :       30.26    32.38    34.88    41.57    49.94    59.01
eigval :       66.70    70.17    75.27    88.44    99.60   101.48
eigval :      108.71   120.73   127.69   131.01   142.02   143.48
eigval :      146.48   156.64   181.81   188.41   200.58   204.35
eigval :      224.87   229.16   230.82   233.38   235.62   255.05
eigval :      266.11   272.96   273.99   275.25   285.05   286.26
eigval :      308.90   327.19   337.76   338.68   358.54   374.59
eigval :      387.09   389.68   397.21   397.91   398.70   416.23
eigval :      422.21   423.40   424.59   425.65   436.15   436.83
eigval :      437.43   443.23   446.92   469.53   513.04   516.14
eigval :      517.87   519.66   522.48   530.38   534.03   541.25
eigval :      542.60   542.96   545.06   551.52   568.30   579.65
eigval :      582.69   586.69   590.73   595.15   602.75   610.06
eigval :      611.03   612.83   616.15   632.45   648.87   654.18
eigval :      660.46   665.24   669.21   674.73   675.04   675.22
eigval :      701.50   704.39   708.92   711.04   711.90   740.05
eigval :      755.07   755.43   758.80   768.05   768.80   771.37
eigval :      780.04   780.47   782.93   785.32   788.70   798.49
eigval :      803.91   833.74   837.86   851.44   860.75   864.09
eigval :      866.41   868.12   870.21   871.90   876.81   879.20
eigval :      879.63   891.88   895.41   896.45   897.14   899.02
eigval :      899.94   901.39   902.96   904.00   904.58   905.38
eigval :      905.73   917.52   921.78   922.86   923.71   924.21
eigval :      924.30   927.51   928.59   931.69   933.52   949.75
eigval :      974.37   981.86  1000.79  1001.14  1004.74  1010.91
eigval :     1011.48  1012.38  1052.24  1064.64  1067.67  1069.07
eigval :     1070.43  1071.25  1072.19  1074.12  1086.96  1112.54
eigval :     1117.04  1117.40  1120.81  1122.25  1125.10  1150.06
eigval :     1150.80  1152.19  1163.13  1172.57  1174.71  1175.23
eigval :     1177.03  1178.50  1179.32  1180.08  1180.74  1182.15
eigval :     1188.64  1190.05  1191.14  1223.02  1233.30  1234.22
eigval :     1234.80  1235.47  1238.12  1243.76  1252.33  1256.57
eigval :     1261.01  1280.84  1296.68  1298.28  1299.03  1301.13
eigval :     1301.85  1302.61  1308.02  1322.41  1324.47  1328.34
eigval :     1333.72  1336.19  1353.62  1355.06  1356.11  1357.14
eigval :     1359.21  1359.77  1361.30  1364.24  1370.67  1415.83
eigval :     1417.50  1420.45  1426.24  1426.48  1427.10  1436.77
eigval :     1442.23  1454.54  1468.11  1468.75  1473.27  1474.74
eigval :     1475.19  1477.68  1486.48  1486.96  1486.98  1522.91
eigval :     1564.82  1566.19  1567.92  1572.55  1572.61  1573.26
eigval :     1576.56  1581.07  1585.08  1586.88  1587.30  1587.40
eigval :     1596.98  1597.05  1597.38  1609.44  1612.77  1613.01
eigval :     1613.12  3067.25  3070.38  3070.65  3071.34  3072.43
eigval :     3074.80  3075.43  3075.99  3076.69  3076.72  3078.27
eigval :     3079.89  3082.00  3082.46  3083.99  3084.57  3084.73
eigval :     3085.41  3085.52  3086.46  3088.41  3089.39  3090.60
eigval :     3092.59  3092.97  3093.15  3096.73  3096.76  3098.68
eigval :     3101.43  3101.68  3102.60  3112.24  3116.20  3117.18
eigval :     3123.52  3136.86  3189.35

   temp. (K)  partition function   enthalpy   heat capacity  entropy
                                   cal/mol     cal/K/mol   cal/K/mol   J/K/mol
 298.15  VIB  0.364E+23            28871.871    184.464    178.512
         ROT  0.221E+09              888.752      2.981     41.164
         INT  0.804E+31            29760.623    187.445    219.676
         TR   0.222E+29             1481.254      4.968     45.921
         TOT                       31241.8774   192.4131   265.5969  1111.2573

       T/K    H(0)-H(T)+PV         H(T)/Eh          T*S/Eh         G(T)/Eh
   ------------------------------------------------------------------------
    298.15    0.497871E-01    0.822916E+00    0.126194E+00    0.696722E+00
   ------------------------------------------------------------------------

         :::::::::::::::::::::::::::::::::::::::::::::::::::::
         ::                  THERMODYNAMIC                  ::
         :::::::::::::::::::::::::::::::::::::::::::::::::::::
         :: total free energy        -158.403947359750 Eh   ::
         ::.................................................::
         :: total energy             -159.100669564032 Eh   ::
         :: zero point energy           0.773128750793 Eh   ::
         :: G(RRHO) w/o ZPVE           -0.076406546511 Eh   ::
         :: G(RRHO) contrib.            0.696722204282 Eh   ::
         :::::::::::::::::::::::::::::::::::::::::::::::::::::

           -------------------------------------------------
          | TOTAL ENERGY             -159.100669564032 Eh   |
          | TOTAL ENTHALPY           -158.277753712595 Eh   |
          | TOTAL FREE ENERGY        -158.403947359750 Eh   |
          | GRADIENT NORM               0.000065328480 Eh/α |
          | HOMO-LUMO GAP               1.505634865928 eV   |
           -------------------------------------------------

 * finished run on 2025/09/14 at 12:33:44.847
