   * xtb version 6.7.1 (edcfbbe) compiled by 'albert@albert-system' on 2024-07-22

   ID    Z sym.   atoms
    1    6 C      1-7, 9-21, 24-28, 30-42, 44-49, 51-63
    2    7 N      8, 22, 23, 29, 43, 50
    3    1 H      64-101

          program call               : xtb data2507/toluene/TCPZ/TCPZ.xyz --gfn 2 --gbsa toluene --ohess vtight --parallel 40 --molden --ceasefiles --namespace data2507/toluene/TCPZ/TCPZ_toluene_S0_preOpt
      * Solvation model:               GBSA
        Solvent                        toluene
        Solvent mass                       9.2140E+01 g/mol
          :  Hamiltonian                  GFN2-xTB          :
 * total energy  :  -159.0554461 Eh     change       -0.1995772E-08 Eh
 * total energy  :  -159.0799017 Eh     change       -0.2445561E-01 Eh
 * total energy  :  -159.0880254 Eh     change       -0.8123639E-02 Eh
 * total energy  :  -159.0906615 Eh     change       -0.2636130E-02 Eh
 * total energy  :  -159.0930866 Eh     change       -0.2425088E-02 Eh
 * total energy  :  -159.0943971 Eh     change       -0.1310478E-02 Eh
 * total energy  :  -159.0952869 Eh     change       -0.8898814E-03 Eh
 * total energy  :  -159.0957017 Eh     change       -0.4147471E-03 Eh
 * total energy  :  -159.0959659 Eh     change       -0.2642525E-03 Eh
 * total energy  :  -159.0961451 Eh     change       -0.1791666E-03 Eh
 * total energy  :  -159.0994350 Eh     change       -0.3476904E-06 Eh
 * total energy  :  -159.0994353 Eh     change       -0.3311097E-06 Eh
 * total energy  :  -159.0994357 Eh     change       -0.3450847E-06 Eh
 * total energy  :  -159.0994360 Eh     change       -0.3849187E-06 Eh
 * total energy  :  -159.0994364 Eh     change       -0.3937320E-06 Eh
 * total energy  :  -159.0994368 Eh     change       -0.3409985E-06 Eh
 * total energy  :  -159.0994370 Eh     change       -0.2299347E-06 Eh
 * total energy  :  -159.0994372 Eh     change       -0.1740058E-06 Eh
 * total energy  :  -159.0994372 Eh     change       -0.1723350E-08 Eh
   *** GEOMETRY OPTIMIZATION CONVERGED AFTER 185 ITERATIONS ***

 final structure:
================
101
 xtb: 6.7.1 (edcfbbe)
C            0.54144081185003       -1.40346731411578        0.02958664021437
C            1.24527471852054       -0.28646088606573        0.29930720855638
C            2.67474235579165       -0.09933492194588        0.07715664784867
C            3.20924507567785        1.18909444327281        0.00511936044026
C            4.56350969241905        1.37491805646900       -0.19618129384284
C            5.41374220586496        0.28906926826456       -0.30884144668579
C            4.89462800275439       -1.00185202613307       -0.23519304582402
N            5.74558284721411       -2.11254126609872       -0.33691638220228
C            6.67741150907286       -2.33039441933552       -1.33313451238293
C            6.95654222521780       -1.57435412869100       -2.46310889543992
C            7.93080019516347       -2.03922102737827       -3.32600323894833
C            8.61070825324902       -3.23110267164881       -3.08210714218562
C            8.32159434401019       -3.99877510134452       -1.97136806594155
C            7.34553828286851       -3.55259155171211       -1.08919506086853
C            6.78630238556251       -4.08939200893955        0.12035523436622
C            7.03827864977516       -5.23559801106429        0.86376476910232
C            6.31506215754483       -5.44682495884238        2.02099737733394
C            5.36135557943538       -4.52476357963701        2.44784313961653
C            5.09338658841666       -3.37715628527889        1.72580769763007
C            5.80025129001965       -3.17071947159815        0.54918958898125
C            3.53228009340911       -1.19181190547083       -0.04835876071173
N            0.56292592756972        0.83738191320800        0.85675635465961
N           -0.81221725822304        0.84701567511151        0.49417717585547
C           -1.41135857413742        2.06832884016683        0.27052031724818
C           -2.76882556289305        2.13510936435307       -0.05864679158374
C           -3.36624377927765        3.36252173113051       -0.25547278582387
C           -2.63965252445657        4.53659042159054       -0.13790547986003
C           -1.28427378350023        4.47260788553674        0.17309016403169
N           -0.52800659184930        5.65030063832726        0.28909474713538
C            0.28754682316548        5.98504774245865        1.35124996029282
C            0.52179286057510        5.30310945062515        2.53761774498724
C            1.37824221637886        5.87857733509890        3.45679591199276
C            1.98536408663203        7.10946879769663        3.21450243153686
C            1.73708027794875        7.80518737082815        2.04797076015390
C            0.88019152725631        7.24634237853612        1.10802246200452
C            0.39440443006242        7.68464370583536       -0.17045242715384
C            0.62350075799759        8.81632817671228       -0.94311360733467
C           -0.00301691970531        8.91865608344423       -2.16915543760201
C           -0.83815544218162        7.90389632396644       -2.63340807843114
C           -1.08167648691540        6.76918474717616       -1.88331783972446
C           -0.47354275797496        6.67092124802458       -0.63925432399004
C           -0.67096367558806        3.24461908319779        0.37933959456796
N           -1.51760043322045       -0.26780491139731        0.38710826723562
C           -0.89654761593996       -1.39763944083868        0.23358268338745
C           -1.70336807762171       -2.61225475689590        0.15981704820533
C           -1.12852997598867       -3.88399141493891        0.15032168876365
C           -1.92778920304136       -5.00964937211215        0.06522209446135
C           -3.30360683861038       -4.89681690670652       -0.01631718831432
C           -3.89229654973799       -3.63343433529397        0.01897345544798
N           -5.28722549808201       -3.50004571236032       -0.04896613460623
C           -5.97639152506703       -2.65119727809631       -0.89365268870034
C           -5.49564299878036       -1.79189271798531       -1.87222050843437
C           -6.41581218920107       -1.06059860900219       -2.59905119849788
C           -7.78551551837829       -1.18263672227130       -2.37260942790273
C           -8.27144086503138       -2.05478687761969       -1.41894764307414
C           -7.36557898925727       -2.79921508837793       -0.67370466565284
C           -7.51254746701579       -3.78352207000636        0.36198825638424
C           -8.61235805616290       -4.33106646615033        1.01035726222000
C           -8.39771435188258       -5.26210299476518        2.00717515538077
C           -7.10539901894908       -5.63607651838964        2.37066808033301
C           -5.99600113969731       -5.10643149176498        1.73945311452373
C           -6.20540015474718       -4.18960061992038        0.71840624283344
C           -3.09381555989210       -2.50441534881503        0.11639711390461
H            0.99505373249289       -2.24625973207534       -0.45970519910046
H            2.54979061969619        2.03757047054548        0.09180126926414
H            4.96413760754398        2.37597657672846       -0.25319928053940
H            6.47586849878252        0.43166111958394       -0.43655735368652
H            6.42448094275938       -0.65790253957463       -2.66958352885897
H            8.16846886559637       -1.46720607766770       -4.21120115391687
H            9.36764739270226       -3.55928484403301       -3.77941586557208
H            8.83795192576371       -4.92974721800549       -1.79050529001583
H            7.78864856377482       -5.94221815074139        0.54190779909130
H            6.49435126207221       -6.33281406630216        2.61235374586744
H            4.82194966306248       -4.70920196345348        3.36568631703743
H            4.36519267513025       -2.66042045627101        2.07517599784245
H            3.14748003904818       -2.19805823353012        0.00575567616362
H            0.66085377973285        0.86637552218486        1.87556094613367
H           -3.33325799938859        1.22226872918459       -0.14759329472944
H           -4.41700878755069        3.40794774924907       -0.49945609332805
H           -3.11546529445437        5.49533081272640       -0.27218154307775
H            0.04012630242803        4.35906076311601        2.74336191539146
H            1.57847780416421        5.36502093519392        4.38616629083507
H            2.65087378192928        7.52519917127703        3.95687797871408
H            2.19410580347883        8.76690130539154        1.86805035527516
H            1.28200894987019        9.59588898705965       -0.58979110350969
H            0.15952452176905        9.79179301236622       -2.78411146130772
H           -1.30310759816992        8.00561479290217       -3.60338596334207
H           -1.71789094461314        5.98189879843722       -2.25848347384349
H            0.38204891839720        3.20039062456420        0.60268444406927
H           -0.05873859468613       -4.00384886023064        0.21932959061087
H           -1.47134931350352       -5.98849478646164        0.05169400489388
H           -3.92248432972983       -5.77547886535908       -0.11508288267645
H           -4.43806381420856       -1.70109122292112       -2.06854013050548
H           -6.06508244076806       -0.38106562819731       -3.36227431374838
H           -8.47294094651400       -0.59150385942201       -2.95995203908113
H           -9.33323877081777       -2.16156858408747       -1.25383888131894
H           -9.61314955679652       -4.02827183422896        0.74033593458492
H           -9.23924138796388       -5.70208460201312        2.52207894760689
H           -6.96743425246089       -6.35373756280878        3.16647917668806
H           -4.99951537137116       -5.39083267272300        2.04196961649920
H           -3.54127903558735       -1.52518010247429        0.16645616565170

          :  Hamiltonian                  GFN2-xTB          :
         :: gradient norm              0.000032314981 Eh/a0 ::
         :: HOMO-LUMO gap              1.490335439755 eV    ::
         :: SCC energy              -162.031440771752 Eh    ::
         :: -> dispersion             -0.142136705112 Eh    ::
         :: -> Gsolv                  -0.064767464459 Eh    ::
         :: repulsion energy           2.932003594396 Eh    ::

    * Orbital Energies and Occupations

         #    Occupation            Energy/Eh            Energy/eV
      -------------------------------------------------------------
         1        2.0000           -0.7029261             -19.1276
       ...           ...                  ...                  ...
       136        2.0000           -0.4106677             -11.1748
       137        2.0000           -0.4072279             -11.0812
       138        2.0000           -0.4045643             -11.0088
       139        2.0000           -0.4044062             -11.0045
       140        2.0000           -0.4031928             -10.9714
       141        2.0000           -0.3978060             -10.8249
       142        2.0000           -0.3806634             -10.3584
       143        2.0000           -0.3779816             -10.2854
       144        2.0000           -0.3777845             -10.2800
       145        2.0000           -0.3654763              -9.9451
       146        2.0000           -0.3620177              -9.8510
       147        2.0000           -0.3619486              -9.8491
       148        2.0000           -0.3459911              -9.4149 (HOMO)
       149                         -0.2912222              -7.9246 (LUMO)
       150                         -0.2531533              -6.8887
       151                         -0.2481259              -6.7518
       152                         -0.2452952              -6.6748
       153                         -0.2449948              -6.6666
       154                         -0.2382399              -6.4828
       155                         -0.2335476              -6.3552
       156                         -0.2318245              -6.3083
       157                         -0.2240393              -6.0964
       158                         -0.2213920              -6.0244
       159                         -0.2211917              -6.0189
       ...                                ...                  ...
       290                          0.7451595              20.2768
      -------------------------------------------------------------
                  HL-Gap            0.0547688 Eh            1.4903 eV

     #   Z          covCN         q      C6AA      α(0)
     1   6 C        2.907    -0.073    29.830     8.956
     2   6 C        2.904     0.064    26.559     8.450
     3   6 C        2.974     0.002    27.981     8.677
     4   6 C        2.924    -0.037    28.913     8.818
     5   6 C        2.917    -0.027    28.670     8.780
     6   6 C        2.922    -0.042    29.047     8.838
     7   6 C        2.910     0.066    26.519     8.444
     8   7 N        2.802    -0.046    22.132     6.987
     9   6 C        3.074     0.047    26.873     8.499
    10   6 C        2.909    -0.052    29.292     8.875
    11   6 C        2.924    -0.035    28.861     8.810
    12   6 C        2.920    -0.042    29.048     8.838
    13   6 C        2.912    -0.035    28.860     8.809
    14   6 C        3.067    -0.018    28.397     8.738
    15   6 C        3.067    -0.018    28.392     8.737
    16   6 C        2.912    -0.034    28.859     8.809
    17   6 C        2.919    -0.042    29.055     8.839
    18   6 C        2.923    -0.035    28.877     8.812
    19   6 C        2.910    -0.053    29.308     8.877
    20   6 C        3.074     0.046    26.883     8.501
    21   6 C        2.927    -0.049    29.215     8.864
    22   7 N        2.764    -0.198    25.289     7.469
    23   7 N        2.929     0.102    19.480     6.555
    24   6 C        2.921     0.050    26.869     8.500
    25   6 C        2.921    -0.054    29.337     8.882
    26   6 C        2.919    -0.028    28.691     8.784
    27   6 C        2.920    -0.055    29.358     8.885
    28   6 C        2.912     0.065    26.545     8.448
    29   7 N        2.802    -0.046    22.119     6.985
    30   6 C        3.075     0.047    26.877     8.500
    31   6 C        2.910    -0.053    29.316     8.878
    32   6 C        2.923    -0.036    28.894     8.815
    33   6 C        2.919    -0.043    29.072     8.842
    34   6 C        2.912    -0.035    28.868     8.810
    35   6 C        3.067    -0.019    28.405     8.739
    36   6 C        3.067    -0.019    28.412     8.740
    37   6 C        2.912    -0.035    28.872     8.811
    38   6 C        2.919    -0.043    29.065     8.841
    39   6 C        2.924    -0.035    28.872     8.812
    40   6 C        2.909    -0.052    29.292     8.875
    41   6 C        3.076     0.047    26.862     8.498
    42   6 C        2.926    -0.069    29.726     8.941
    43   7 N        1.926    -0.202    26.210     7.591
    44   6 C        2.932     0.075    26.317     8.413
    45   6 C        2.979     0.004    27.920     8.667
    46   6 C        2.922    -0.040    29.006     8.832
    47   6 C        2.918    -0.029    28.735     8.790
    48   6 C        2.921    -0.044    29.097     8.846
    49   6 C        2.910     0.066    26.528     8.446
    50   7 N        2.802    -0.046    22.125     6.986
    51   6 C        3.074     0.047    26.865     8.498
    52   6 C        2.910    -0.052    29.285     8.874
    53   6 C        2.924    -0.035    28.869     8.811
    54   6 C        2.919    -0.043    29.058     8.840
    55   6 C        2.912    -0.035    28.869     8.811
    56   6 C        3.067    -0.018    28.400     8.739
    57   6 C        3.067    -0.019    28.401     8.739
    58   6 C        2.912    -0.035    28.869     8.811
    59   6 C        2.919    -0.043    29.065     8.841
    60   6 C        2.924    -0.035    28.880     8.813
    61   6 C        2.910    -0.052    29.298     8.876
    62   6 C        3.074     0.047    26.866     8.498
    63   6 C        2.930    -0.047    29.167     8.857
    64   1 H        0.926     0.043     2.413     2.429
    65   1 H        0.926     0.049     2.329     2.387
    66   1 H        0.926     0.047     2.361     2.403
    67   1 H        0.926     0.048     2.349     2.397
    68   1 H        0.926     0.031     2.576     2.510
    69   1 H        0.926     0.031     2.572     2.508
    70   1 H        0.926     0.029     2.604     2.524
    71   1 H        0.926     0.031     2.571     2.508
    72   1 H        0.926     0.031     2.568     2.506
    73   1 H        0.926     0.029     2.605     2.524
    74   1 H        0.926     0.030     2.585     2.514
    75   1 H        0.926     0.028     2.622     2.532
    76   1 H        0.926     0.045     2.381     2.413
    77   1 H        0.859     0.143     1.450     1.886
    78   1 H        0.926     0.053     2.282     2.363
    79   1 H        0.926     0.045     2.383     2.414
    80   1 H        0.926     0.043     2.412     2.429
    81   1 H        0.926     0.027     2.635     2.538
    82   1 H        0.926     0.029     2.600     2.522
    83   1 H        0.926     0.028     2.615     2.529
    84   1 H        0.926     0.031     2.576     2.510
    85   1 H        0.926     0.030     2.582     2.513
    86   1 H        0.926     0.028     2.618     2.530
    87   1 H        0.926     0.030     2.584     2.514
    88   1 H        0.926     0.031     2.570     2.507
    89   1 H        0.926     0.049     2.331     2.387
    90   1 H        0.926     0.040     2.452     2.449
    91   1 H        0.926     0.042     2.425     2.435
    92   1 H        0.926     0.044     2.395     2.420
    93   1 H        0.926     0.031     2.577     2.510
    94   1 H        0.926     0.031     2.576     2.510
    95   1 H        0.926     0.028     2.612     2.527
    96   1 H        0.926     0.030     2.582     2.513
    97   1 H        0.926     0.030     2.582     2.513
    98   1 H        0.926     0.028     2.621     2.532
    99   1 H        0.926     0.030     2.592     2.518
   100   1 H        0.926     0.030     2.592     2.518
   101   1 H        0.926     0.057     2.240     2.340

molecular dipole:
                 x           y           z       tot (Debye)
 q only:        0.409      -0.155       0.063
   full:        0.663      -0.463       0.244       2.147

 projected vibrational frequencies (cm⁻¹)
eigval :       -0.00    -0.00     0.00     0.00     0.00     0.00
eigval :        8.65    10.11    11.57    13.67    15.52    16.55
eigval :       24.04    27.02    29.65    43.27    53.81    58.14
eigval :       65.32    67.99    69.26    90.88    95.30   102.51
eigval :      104.66   116.90   120.60   141.24   143.03   145.50
eigval :      148.90   155.63   168.72   192.81   208.32   209.42
eigval :      215.90   228.57   230.75   232.24   232.63   237.49
eigval :      271.82   272.45   272.70   275.76   282.73   286.32
eigval :      322.58   326.42   329.15   336.26   365.49   368.83
eigval :      384.36   388.28   396.48   397.05   397.94   419.87
eigval :      422.66   423.84   425.24   427.75   434.71   436.17
eigval :      436.85   439.12   440.74   471.38   514.22   516.30
eigval :      518.07   519.85   522.30   528.77   536.69   540.56
eigval :      541.14   542.37   543.89   555.24   560.29   580.12
eigval :      582.50   586.91   590.25   596.06   602.64   609.53
eigval :      611.38   613.89   615.10   633.03   648.33   653.32
eigval :      660.51   666.25   667.22   673.97   674.66   674.98
eigval :      701.14   704.45   708.01   709.94   711.59   740.28
eigval :      755.30   755.73   758.97   768.10   768.53   769.68
eigval :      779.36   779.95   781.13   786.56   787.70   794.50
eigval :      804.60   833.71   839.06   855.04   860.87   866.03
eigval :      867.61   869.48   870.08   871.76   877.52   879.02
eigval :      884.05   887.40   893.30   896.52   897.37   898.50
eigval :      898.96   901.72   902.61   903.20   904.00   904.41
eigval :      907.82   919.64   921.66   921.93   922.05   923.62
eigval :      923.83   924.93   930.36   930.62   931.85   950.85
eigval :      973.70   980.72   999.65  1001.30  1002.50  1010.92
eigval :     1011.55  1011.72  1053.35  1067.19  1068.24  1068.55
eigval :     1069.65  1072.00  1073.18  1073.46  1084.97  1111.06
eigval :     1114.92  1116.94  1120.47  1122.79  1131.09  1149.55
eigval :     1151.37  1151.47  1162.90  1170.50  1173.55  1174.80
eigval :     1176.45  1179.19  1179.64  1180.15  1180.84  1183.00
eigval :     1187.16  1189.45  1195.39  1216.89  1232.20  1233.49
eigval :     1235.20  1235.69  1236.70  1247.18  1250.60  1255.34
eigval :     1259.61  1276.79  1293.92  1297.93  1299.26  1300.14
eigval :     1301.36  1302.28  1305.69  1322.55  1323.83  1328.75
eigval :     1334.20  1337.44  1353.41  1354.69  1355.90  1357.68
eigval :     1358.02  1359.34  1361.53  1362.86  1369.64  1417.11
eigval :     1418.29  1421.00  1426.44  1426.54  1426.66  1437.47
eigval :     1443.57  1454.93  1467.13  1469.26  1472.91  1474.86
eigval :     1475.04  1477.55  1486.53  1486.74  1486.96  1520.31
eigval :     1565.58  1567.00  1567.92  1570.53  1572.58  1573.17
eigval :     1574.26  1581.15  1585.86  1586.96  1587.31  1587.38
eigval :     1597.01  1597.08  1597.28  1608.13  1612.74  1613.04
eigval :     1613.17  3070.11  3070.53  3071.02  3071.03  3071.32
eigval :     3071.69  3075.56  3076.46  3076.58  3076.71  3077.53
eigval :     3077.58  3079.37  3083.68  3083.89  3084.63  3084.71
eigval :     3084.84  3085.66  3086.05  3086.38  3090.50  3090.85
eigval :     3091.34  3092.93  3093.36  3093.83  3096.01  3099.06
eigval :     3101.41  3101.90  3104.15  3111.19  3119.08  3120.48
eigval :     3126.05  3132.59  3182.47

   temp. (K)  partition function   enthalpy   heat capacity  entropy
                                   cal/mol     cal/K/mol   cal/K/mol   J/K/mol
 298.15  VIB  0.233E+24            28963.128    184.267    180.274
         ROT  0.262E+09              888.752      2.981     41.500
         INT  0.610E+32            29851.880    187.248    221.774
         TR   0.222E+29             1481.254      4.968     45.921
         TOT                       31333.1342   192.2165   267.6954  1120.0374

       T/K    H(0)-H(T)+PV         H(T)/Eh          T*S/Eh         G(T)/Eh
   ------------------------------------------------------------------------
    298.15    0.499325E-01    0.822760E+00    0.127191E+00    0.695570E+00
   ------------------------------------------------------------------------

         :::::::::::::::::::::::::::::::::::::::::::::::::::::
         ::                  THERMODYNAMIC                  ::
         :::::::::::::::::::::::::::::::::::::::::::::::::::::
         :: total free energy        -158.403867434384 Eh   ::
         ::.................................................::
         :: total energy             -159.099437180692 Eh   ::
         :: zero point energy           0.772827928682 Eh   ::
         :: G(RRHO) w/o ZPVE           -0.077258182375 Eh   ::
         :: G(RRHO) contrib.            0.695569746307 Eh   ::
         :::::::::::::::::::::::::::::::::::::::::::::::::::::

           -------------------------------------------------
          | TOTAL ENERGY             -159.099437180692 Eh   |
          | TOTAL ENTHALPY           -158.276676724285 Eh   |
          | TOTAL FREE ENERGY        -158.403867434384 Eh   |
          | GRADIENT NORM               0.000032306294 Eh/α |
          | HOMO-LUMO GAP               1.490335683874 eV   |
           -------------------------------------------------

 * finished run on 2025/09/14 at 12:25:15.459
