   * xtb version 6.7.1 (edcfbbe) compiled by 'albert@albert-system' on 2024-07-22

   ID    Z sym.   atoms
    1    6 C      1-7, 9-21, 24-28, 30-42, 44-49, 51-63
    2    7 N      8, 22, 23, 29, 43, 50
    3    1 H      64-101

          program call               : xtb data2507/toluene/TCPZ/TCPZ_toluene_T1_crest.xyz --gfn 2 --uhf 2 --gbsa toluene --ohess vtight --parallel 40 --molden --ceasefiles --namespace data2507/toluene/TCPZ/TCPZ_toluene_T1_finalOpt
      * Solvation model:               GBSA
        Solvent                        toluene
        Solvent mass                       9.2140E+01 g/mol
          :  Hamiltonian                  GFN2-xTB          :
 * total energy  :  -159.0571090 Eh     change       -0.2377504E-08 Eh
 * total energy  :  -159.0572173 Eh     change       -0.1082875E-03 Eh
 * total energy  :  -159.0573457 Eh     change       -0.1283984E-03 Eh
 * total energy  :  -159.0574192 Eh     change       -0.7349038E-04 Eh
 * total energy  :  -159.0574694 Eh     change       -0.5023510E-04 Eh
 * total energy  :  -159.0575541 Eh     change       -0.8466258E-04 Eh
 * total energy  :  -159.0576103 Eh     change       -0.5621615E-04 Eh
 * total energy  :  -159.0576884 Eh     change       -0.7812677E-04 Eh
 * total energy  :  -159.0577913 Eh     change       -0.1028169E-03 Eh
 * total energy  :  -159.0578968 Eh     change       -0.1055654E-03 Eh
 * total energy  :  -159.0584023 Eh     change       -0.1943572E-05 Eh
 * total energy  :  -159.0584035 Eh     change       -0.1200382E-05 Eh
 * total energy  :  -159.0584044 Eh     change       -0.8790230E-06 Eh
 * total energy  :  -159.0584047 Eh     change       -0.3415233E-06 Eh
 * total energy  :  -159.0584051 Eh     change       -0.3497632E-06 Eh
 * total energy  :  -159.0584056 Eh     change       -0.5615537E-06 Eh
 * total energy  :  -159.0584061 Eh     change       -0.5077848E-06 Eh
 * total energy  :  -159.0584066 Eh     change       -0.4347431E-06 Eh
 * total energy  :  -159.0584066 Eh     change       -0.8515002E-08 Eh
   *** GEOMETRY OPTIMIZATION CONVERGED AFTER 44 ITERATIONS ***

 final structure:
================
101
 xtb: 6.7.1 (edcfbbe)
C           -0.36435669325300       -0.57425227804513        0.24190680717982
C            0.67552281293849        0.35625010699191        0.06908450494211
C            0.51167527881082        1.73625053424408       -0.25650233925212
C            1.59201602034983        2.54559321670530       -0.67139707649098
C            1.40144624350799        3.87111980451041       -0.99243992124452
C            0.14339351829088        4.45145676375538       -0.92817733197501
C           -0.93786287659129        3.67340551043325       -0.51182916615538
N           -2.22510280719366        4.23142582557873       -0.43588285729596
C           -2.56824726589565        5.39853291929707        0.21574376894088
C           -1.77494682796676        6.26665416249564        0.95331345817891
C           -2.38226095279716        7.36658354030657        1.52842701743787
C           -3.74885119062994        7.60071708392782        1.38645477994109
C           -4.54774953621666        6.72856876712948        0.67397911357087
C           -3.96016307937051        5.61584041277480        0.08530540323042
C           -4.47295903760582        4.52054300091762       -0.68947152493093
C           -5.73891752853029        4.18800560036103       -1.15555962622932
C           -5.88623404184704        3.04423933808566       -1.91434650891585
C           -4.78902488760036        2.24160089307874       -2.22089840052750
C           -3.52064427176422        2.55150968170137       -1.76934080949516
C           -3.36871318263304        3.68849528092484       -0.98718543427786
C           -0.75479470871601        2.34668768581731       -0.17136282522853
N            1.96579099093089       -0.14608079777304        0.20438947457396
N            2.17224132437974       -1.43186005352289        0.65707777083711
C            3.47372728865541       -1.85348170810951        0.84335877631019
C            3.70873187341180       -3.05289744367323        1.53281555793826
C            5.00024108611700       -3.47576680308028        1.75764050684259
C            6.08293830561550       -2.72887336214711        1.31666836117252
C            5.85773481228668       -1.55110918336725        0.60612537677481
N            6.93253802980074       -0.79222769560997        0.12494685730093
C            7.08794336867397        0.57213266667367        0.27926542395484
C            6.31023044701849        1.47804778040027        0.98711311619933
C            6.70517276040995        2.80263913758349        0.99844550980042
C            7.85434589085433        3.22310580356807        0.33235755173269
C            8.64964396123245        2.32212756832342       -0.34818422623524
C            8.27095554191727        0.98598547120407       -0.37547391291069
C            8.84984282385598       -0.19420318113104       -0.95567703830249
C            9.98506939433213       -0.42147870516876       -1.72355364342298
C           10.24580020680269       -1.70726220745368       -2.15387756322795
C            9.38334381840103       -2.75605660765402       -1.84067788974264
C            8.24829582759129       -2.55469240829669       -1.07819279423555
C            7.99423358935977       -1.26896434209211       -0.62234542157871
C            4.56169632548022       -1.11745397140020        0.35997027763144
N            1.19476984299944       -2.28016457289676        0.87928447346418
C           -0.08419041346740       -1.87456701436612        0.65156172603207
C           -1.11162992508247       -2.86775473918765        0.89955093157080
C           -0.79657117686579       -4.04409585807891        1.59394486883511
C           -1.76958432980823       -4.98103480652927        1.87203534348312
C           -3.08217532956649       -4.77691535812458        1.47694103570764
C           -3.40744967715460       -3.62463258051799        0.76423117314006
N           -4.72948613275647       -3.39810094438038        0.34477653505797
C           -5.44500199510568       -2.23372293738482        0.54165514326541
C           -5.08243481021689       -1.07307646554362        1.21216062800512
C           -6.00785270663166       -0.04962345005978        1.28265363298379
C           -7.27278725514643       -0.17260526323537        0.71092555121414
C           -7.64884499369664       -1.33227896107461        0.06330748327636
C           -6.73449488802452       -2.37491662403846       -0.02225730564240
C           -6.78866749789091       -3.69319571939503       -0.58936996528268
C           -7.76765545055852       -4.39743516126080       -1.27912184566235
C           -7.48060704332819       -5.67537056475085       -1.71580067185080
C           -6.23006831391596       -6.24630206577699       -1.48573753540658
C           -5.24008864197206       -5.56582547737984       -0.80294555950858
C           -5.53067891846081       -4.29003902607473       -0.33904351054847
C           -2.42952374408193       -2.68765716032711        0.46855626669164
H           -1.37776416563037       -0.26048844183909        0.08388613350694
H            2.58141094895162        2.12678733713002       -0.78165788016356
H            2.24350981029123        4.46522660368178       -1.31684546692614
H           -0.00720385100703        5.48103051578206       -1.21118560811021
H           -0.71846497152825        6.08562092999554        1.08252081907713
H           -1.78499066164642        8.05861493515603        2.10436234308721
H           -4.18601298090173        8.47345536989296        1.84920991981224
H           -5.60915457615264        6.90222616192650        0.57640194082305
H           -6.58697284572683        4.81762566619462       -0.93052065742894
H           -6.86227132522101        2.76484431732697       -2.28301048488861
H           -4.93432663330814        1.35776323332372       -2.82516411237530
H           -2.67328539502317        1.93477490911067       -2.02973542238657
H           -1.60333281039795        1.78825330017196        0.18934737209570
H            2.69040939000199        0.50983130630902        0.46468125079917
H            2.86247345540837       -3.61898621128531        1.88131578866913
H            5.17250175993317       -4.39369585133111        2.29796870567799
H            7.09272570957017       -3.04553317624160        1.52237698082994
H            5.43406164567122        1.15882809600856        1.53246545952403
H            6.11236025282420        3.52593955418473        1.53941722297357
H            8.12892092524322        4.26717070694386        0.36165192535583
H            9.55083318088768        2.64510413781241       -0.84721768789653
H           10.64429822777023        0.39427746972036       -1.97978882976630
H           11.12434739292557       -1.90605771198305       -2.74992839745198
H            9.60459179568699       -3.74851441718021       -2.20520120903050
H            7.57783845560832       -3.37097106412448       -0.85679521480942
H            4.42716002537235       -0.24044196702527       -0.25408926855299
H            0.22109784732901       -4.19590385348477        1.91298402969089
H           -1.51204704623253       -5.87768633145325        2.41659284350884
H           -3.85198308801603       -5.49224455239952        1.72271619099813
H           -4.11310472670121       -0.97575519116917        1.67802793084229
H           -5.74573658777483        0.86731689301381        1.79087161510040
H           -7.96668346143027        0.65187529684464        0.78470989545489
H           -8.63457646856961       -1.43317960042077       -0.36618807170654
H           -8.73119018685223       -3.94877859715898       -1.47057508137209
H           -8.22931124690059       -6.24098068224896       -2.25106249262780
H           -6.02906913714525       -7.24233040856770       -1.85297811758009
H           -4.26931936802313       -6.01096277939338       -0.64529884521374
H           -2.70636042954763       -1.82932058469412       -0.12323209839068

          :  Hamiltonian                  GFN2-xTB          :
         :: gradient norm              0.000069455747 Eh/a0 ::
         :: HOMO-LUMO gap              1.262372100687 eV    ::
         :: SCC energy              -161.982804727783 Eh    ::
         :: -> dispersion             -0.144787753069 Eh    ::
         :: -> Gsolv                  -0.064760965288 Eh    ::
         :: repulsion energy           2.924398145497 Eh    ::

    * Orbital Energies and Occupations

         #    Occupation            Energy/Eh            Energy/eV
      -------------------------------------------------------------
         1        2.0000           -0.7272714             -19.7901
       ...           ...                  ...                  ...
       137        2.0000           -0.4080777             -11.1044
       138        2.0000           -0.4049838             -11.0202
       139        2.0000           -0.4039302             -10.9915
       140        2.0000           -0.3987651             -10.8509
       141        2.0000           -0.3981665             -10.8347
       142        2.0000           -0.3833321             -10.4310
       143        2.0000           -0.3783111             -10.2944
       144        2.0000           -0.3772534             -10.2656
       145        2.0000           -0.3687616             -10.0345
       146        2.0000           -0.3622848              -9.8583
       147        2.0000           -0.3607660              -9.8169
       148        1.0000           -0.3302951              -8.9878
       149        1.0000           -0.2983009              -8.1172 (HOMO)
       150                         -0.2519096              -6.8548 (LUMO)
       151                         -0.2495827              -6.7915
       152                         -0.2454434              -6.6789
       153                         -0.2442363              -6.6460
       154                         -0.2433742              -6.6225
       155                         -0.2321001              -6.3158
       156                         -0.2291986              -6.2368
       157                         -0.2277976              -6.1987
       158                         -0.2267099              -6.1691
       159                         -0.2217541              -6.0342
       160                         -0.2207326              -6.0064
       ...                                ...                  ...
       290                          0.7456035              20.2889
      -------------------------------------------------------------
                  HL-Gap            0.0463913 Eh            1.2624 eV

     #   Z          covCN         q      C6AA      α(0)
     1   6 C        2.909    -0.074    29.837     8.957
     2   6 C        2.898     0.038    27.153     8.544
     3   6 C        2.969    -0.011    28.283     8.723
     4   6 C        2.921    -0.054    29.332     8.881
     5   6 C        2.915    -0.031    28.762     8.794
     6   6 C        2.920    -0.054    29.352     8.884
     7   6 C        2.908     0.063    26.580     8.454
     8   7 N        2.803    -0.049    22.193     6.997
     9   6 C        3.075     0.048    26.853     8.496
    10   6 C        2.909    -0.053    29.304     8.877
    11   6 C        2.924    -0.036    28.887     8.814
    12   6 C        2.919    -0.043    29.073     8.842
    13   6 C        2.912    -0.035    28.876     8.812
    14   6 C        3.068    -0.019    28.418     8.741
    15   6 C        3.067    -0.019    28.418     8.741
    16   6 C        2.912    -0.035    28.865     8.810
    17   6 C        2.920    -0.042    29.042     8.837
    18   6 C        2.923    -0.035    28.861     8.810
    19   6 C        2.910    -0.052    29.295     8.875
    20   6 C        3.076     0.048    26.855     8.496
    21   6 C        2.928    -0.056    29.382     8.889
    22   7 N        2.777    -0.108    23.359     7.178
    23   7 N        2.910     0.167    18.443     6.378
    24   6 C        2.928     0.033    27.266     8.563
    25   6 C        2.921    -0.045    29.118     8.849
    26   6 C        2.918    -0.023    28.584     8.767
    27   6 C        2.920    -0.050    29.233     8.866
    28   6 C        2.911     0.068    26.473     8.437
    29   7 N        2.802    -0.044    22.094     6.981
    30   6 C        3.073     0.044    26.931     8.509
    31   6 C        2.910    -0.054    29.351     8.884
    32   6 C        2.923    -0.036    28.893     8.815
    33   6 C        2.920    -0.042    29.042     8.837
    34   6 C        2.912    -0.034    28.837     8.806
    35   6 C        3.066    -0.017    28.370     8.734
    36   6 C        3.067    -0.018    28.381     8.736
    37   6 C        2.912    -0.034    28.845     8.807
    38   6 C        2.920    -0.041    29.024     8.835
    39   6 C        2.924    -0.034    28.838     8.806
    40   6 C        2.910    -0.052    29.288     8.874
    41   6 C        3.073     0.046    26.893     8.503
    42   6 C        2.923    -0.071    29.776     8.948
    43   7 N        1.928    -0.253    27.439     7.767
    44   6 C        2.916     0.071    26.408     8.427
    45   6 C        2.977     0.004    27.929     8.669
    46   6 C        2.925    -0.038    28.941     8.822
    47   6 C        2.917    -0.029    28.732     8.790
    48   6 C        2.921    -0.047    29.174     8.857
    49   6 C        2.910     0.063    26.596     8.456
    50   7 N        2.802    -0.048    22.170     6.993
    51   6 C        3.076     0.048    26.852     8.496
    52   6 C        2.910    -0.052    29.294     8.875
    53   6 C        2.923    -0.035    28.864     8.810
    54   6 C        2.920    -0.042    29.050     8.839
    55   6 C        2.912    -0.035    28.869     8.811
    56   6 C        3.067    -0.019    28.417     8.741
    57   6 C        3.068    -0.019    28.418     8.741
    58   6 C        2.912    -0.035    28.878     8.812
    59   6 C        2.919    -0.043    29.073     8.842
    60   6 C        2.924    -0.035    28.882     8.813
    61   6 C        2.909    -0.052    29.295     8.875
    62   6 C        3.075     0.048    26.849     8.496
    63   6 C        2.927    -0.052    29.297     8.876
    64   1 H        0.926     0.039     2.456     2.451
    65   1 H        0.926     0.020     2.735     2.586
    66   1 H        0.926     0.036     2.507     2.476
    67   1 H        0.926     0.037     2.489     2.467
    68   1 H        0.926     0.029     2.600     2.522
    69   1 H        0.926     0.030     2.590     2.517
    70   1 H        0.926     0.028     2.619     2.531
    71   1 H        0.926     0.030     2.588     2.516
    72   1 H        0.926     0.030     2.582     2.513
    73   1 H        0.926     0.028     2.622     2.532
    74   1 H        0.926     0.028     2.618     2.530
    75   1 H        0.926     0.027     2.629     2.536
    76   1 H        0.926     0.038     2.476     2.461
    77   1 H        0.860     0.183     1.197     1.714
    78   1 H        0.926     0.069     2.098     2.265
    79   1 H        0.926     0.058     2.227     2.333
    80   1 H        0.926     0.054     2.269     2.356
    81   1 H        0.926     0.021     2.722     2.580
    82   1 H        0.926     0.031     2.573     2.509
    83   1 H        0.926     0.031     2.574     2.509
    84   1 H        0.926     0.034     2.530     2.487
    85   1 H        0.926     0.033     2.546     2.495
    86   1 H        0.926     0.031     2.577     2.511
    87   1 H        0.926     0.034     2.537     2.491
    88   1 H        0.926     0.034     2.524     2.484
    89   1 H        0.926     0.039     2.459     2.452
    90   1 H        0.926     0.053     2.281     2.362
    91   1 H        0.926     0.041     2.436     2.441
    92   1 H        0.926     0.040     2.448     2.447
    93   1 H        0.926     0.027     2.636     2.539
    94   1 H        0.926     0.026     2.637     2.539
    95   1 H        0.926     0.027     2.632     2.537
    96   1 H        0.926     0.030     2.587     2.515
    97   1 H        0.926     0.029     2.596     2.520
    98   1 H        0.926     0.027     2.625     2.533
    99   1 H        0.926     0.030     2.588     2.516
   100   1 H        0.926     0.031     2.577     2.510
   101   1 H        0.926     0.038     2.480     2.463

molecular dipole:
                 x           y           z       tot (Debye)
 q only:        2.185      -0.968       0.588
   full:        2.144      -0.524       0.554       5.783

 projected vibrational frequencies (cm⁻¹)
eigval :       -0.00     0.00     0.00     0.00     0.00     0.00
eigval :        4.29     9.13    12.14    13.48    18.04    25.99
eigval :       27.54    31.24    40.53    53.71    56.69    58.08
eigval :       67.62    71.19    73.58    87.26    97.31    97.54
eigval :      107.06   113.23   124.06   128.64   142.31   144.33
eigval :      146.70   162.87   178.40   188.15   190.23   202.79
eigval :      215.43   222.46   224.59   231.33   234.72   262.36
eigval :      263.90   269.58   271.11   272.67   285.78   290.86
eigval :      308.71   324.81   338.13   351.82   358.00   374.63
eigval :      380.89   387.62   394.23   395.90   398.88   405.76
eigval :      421.39   422.16   422.94   425.46   426.66   435.88
eigval :      437.26   437.51   445.60   455.11   499.03   506.36
eigval :      516.33   517.79   518.56   522.35   528.44   535.68
eigval :      539.47   541.44   541.97   542.63   550.57   559.88
eigval :      575.81   585.82   586.99   589.81   591.30   598.52
eigval :      609.65   610.69   612.44   616.62   621.93   636.38
eigval :      652.83   653.27   656.17   662.58   673.30   674.03
eigval :      675.63   702.36   704.74   708.19   709.98   712.18
eigval :      740.75   749.71   755.12   755.75   759.24   765.22
eigval :      768.03   769.52   772.20   777.70   780.11   781.01
eigval :      781.70   793.09   839.60   844.94   846.74   848.64
eigval :      857.04   865.12   865.65   871.00   873.32   874.82
eigval :      875.99   878.15   882.73   888.70   896.74   897.03
eigval :      897.61   900.19   901.87   902.54   902.86   903.85
eigval :      906.05   918.00   918.49   919.89   921.08   922.94
eigval :      923.31   924.80   925.68   926.43   929.86   966.28
eigval :      970.00   980.12   999.54  1001.83  1005.59  1010.88
eigval :     1011.90  1013.69  1057.27  1061.36  1068.34  1068.91
eigval :     1069.60  1071.80  1072.58  1073.73  1099.34  1109.35
eigval :     1117.60  1118.39  1121.72  1122.08  1131.27  1150.45
eigval :     1150.97  1151.64  1168.07  1172.46  1174.90  1175.06
eigval :     1175.37  1178.66  1180.08  1181.54  1184.90  1187.59
eigval :     1189.22  1196.33  1223.80  1227.20  1229.33  1234.77
eigval :     1234.96  1235.34  1240.10  1247.16  1252.50  1261.91
eigval :     1264.25  1275.91  1297.62  1298.02  1299.07  1299.53
eigval :     1301.93  1302.42  1313.98  1327.07  1330.93  1333.63
eigval :     1341.93  1349.08  1353.33  1354.01  1356.90  1357.21
eigval :     1357.77  1360.06  1362.25  1362.81  1377.63  1392.30
eigval :     1413.50  1418.24  1422.20  1426.79  1426.91  1427.21
eigval :     1435.52  1445.44  1452.10  1459.85  1461.39  1473.82
eigval :     1473.96  1474.69  1481.22  1483.60  1486.07  1486.96
eigval :     1487.50  1533.04  1548.16  1554.58  1562.40  1565.25
eigval :     1571.74  1573.00  1573.43  1580.01  1586.99  1587.04
eigval :     1587.40  1596.99  1597.10  1597.52  1612.39  1612.98
eigval :     1613.04  3068.45  3069.76  3069.83  3069.89  3070.14
eigval :     3070.48  3074.50  3075.08  3075.40  3075.91  3076.13
eigval :     3076.28  3078.21  3080.36  3081.93  3082.04  3082.23
eigval :     3083.20  3084.17  3084.30  3088.44  3089.85  3090.09
eigval :     3092.38  3092.46  3092.94  3094.39  3095.08  3096.10
eigval :     3096.36  3099.73  3104.49  3108.28  3111.61  3120.56
eigval :     3136.55  3159.94  3367.27

   temp. (K)  partition function   enthalpy   heat capacity  entropy
                                   cal/mol     cal/K/mol   cal/K/mol   J/K/mol
 298.15  VIB  0.150E+24            29106.861    186.168    181.377
         ROT  0.228E+09              888.752      2.981     41.228
         INT  0.343E+32            29995.613    189.149    222.605
         TR   0.222E+29             1481.254      4.968     45.921
         TOT                       31476.8672   194.1169   268.5259  1123.5125

       T/K    H(0)-H(T)+PV         H(T)/Eh          T*S/Eh         G(T)/Eh
   ------------------------------------------------------------------------
    298.15    0.501616E-01    0.821464E+00    0.127585E+00    0.693879E+00
   ------------------------------------------------------------------------

         :::::::::::::::::::::::::::::::::::::::::::::::::::::
         ::                  THERMODYNAMIC                  ::
         :::::::::::::::::::::::::::::::::::::::::::::::::::::
         :: total free energy        -158.364527791331 Eh   ::
         ::.................................................::
         :: total energy             -159.058406582025 Eh   ::
         :: zero point energy           0.771302547855 Eh   ::
         :: G(RRHO) w/o ZPVE           -0.077423757161 Eh   ::
         :: G(RRHO) contrib.            0.693878790694 Eh   ::
         :::::::::::::::::::::::::::::::::::::::::::::::::::::

           -------------------------------------------------
          | TOTAL ENERGY             -159.058406582025 Eh   |
          | TOTAL ENTHALPY           -158.236942453381 Eh   |
          | TOTAL FREE ENERGY        -158.364527791331 Eh   |
          | GRADIENT NORM               0.000069475341 Eh/α |
          | HOMO-LUMO GAP               1.262372499664 eV   |
           -------------------------------------------------

 * finished run on 2025/09/14 at 12:42:30.647
