   * xtb version 6.7.1 (edcfbbe) compiled by 'albert@albert-system' on 2024-07-22

   ID    Z sym.   atoms
    1    6 C      1-20, 22-25, 27-34, 36-56
    2    7 N      21, 35
    3    8 O      26
    4    1 H      57-112

          program call               : xtb data2507/toluene/BP-mDTC/BP-mDTC_toluene_S0_finalOpt.xtbopt.xyz --gfn 2 --uhf 2 --gbsa toluene --ohess vtight --parallel 40 --molden --ceasefiles --namespace data2507/toluene/BP-mDTC/BP-mDTC_toluene_T1_preOpt
      * Solvation model:               GBSA
        Solvent                        toluene
        Solvent mass                       9.2140E+01 g/mol
          :  Hamiltonian                  GFN2-xTB          :
 * total energy  :  -152.0671114 Eh     change       -0.1615646E-07 Eh
 * total energy  :  -152.0711227 Eh     change       -0.4011288E-02 Eh
 * total energy  :  -152.0722547 Eh     change       -0.1131929E-02 Eh
 * total energy  :  -152.0724976 Eh     change       -0.2429547E-03 Eh
 * total energy  :  -152.0727102 Eh     change       -0.2125533E-03 Eh
 * total energy  :  -152.0728957 Eh     change       -0.1855340E-03 Eh
 * total energy  :  -152.0730809 Eh     change       -0.1851485E-03 Eh
 * total energy  :  -152.0732380 Eh     change       -0.1571452E-03 Eh
 * total energy  :  -152.0733671 Eh     change       -0.1291252E-03 Eh
 * total energy  :  -152.0734880 Eh     change       -0.1208968E-03 Eh
 * total energy  :  -152.0747469 Eh     change       -0.6730285E-06 Eh
 * total energy  :  -152.0747477 Eh     change       -0.7730654E-06 Eh
 * total energy  :  -152.0747485 Eh     change       -0.7874555E-06 Eh
 * total energy  :  -152.0747492 Eh     change       -0.6860674E-06 Eh
 * total energy  :  -152.0747497 Eh     change       -0.5311618E-06 Eh
 * total energy  :  -152.0747502 Eh     change       -0.4644457E-06 Eh
 * total energy  :  -152.0747507 Eh     change       -0.5092848E-06 Eh
 * total energy  :  -152.0747512 Eh     change       -0.5507116E-06 Eh
 * total energy  :  -152.0747512 Eh     change       -0.6072867E-09 Eh
   *** GEOMETRY OPTIMIZATION CONVERGED AFTER 94 ITERATIONS ***

 final structure:
================
112
 xtb: 6.7.1 (edcfbbe)
C            7.66273120828971       -2.36870313974969       -1.89804358958649
C            6.96689290759535       -1.22841687709145       -2.65727434420270
C            6.62041551365889       -1.68758507757885       -4.08220765427413
C            7.94873930456633       -0.05701792509233       -2.75863847631299
C            5.68327125655943       -0.85601675471922       -1.93205755927234
C            4.70345340469796       -1.83961175345611       -1.73768053623307
C            3.51129896942134       -1.59046512278273       -1.08900819164316
C            3.28905957871393       -0.30951560502461       -0.60277408890030
C            4.24769777910544        0.70779062377090       -0.80969528706440
C            5.43561422775638        0.43135405514019       -1.46574155754020
C            3.69148559976918        1.90870905173385       -0.23689634129523
C            4.15641299774233        3.20838453349103       -0.12164690199586
C            3.37680747932286        4.16642106685340        0.51881123302550
C            3.82226308587359        5.61200074326151        0.67425787035521
C            5.19271278744539        5.87858183787266        0.04426749720947
C            2.79536892414437        6.52833176175085       -0.00904192986982
C            3.91024393538760        5.95323368783570        2.16987690134331
C            2.13840583676267        3.77796255108072        1.04789294607537
C            1.65321995561948        2.49002606367119        0.94764007567411
C            2.42734302607278        1.55006383483096        0.28229608317521
N            2.19624759898452        0.21157082196710        0.05311642603451
C            1.05327942963142       -0.50742767023425        0.43727114660656
C            1.19916613511508       -1.66524941458620        1.17801281366264
C            0.06762670796312       -2.40924841065150        1.58211779332470
C            0.13156587513552       -3.57978371652160        2.41467690954393
O           -0.90028721052660       -4.00496939870208        3.02634636529601
C            1.40325363010251       -4.29607823241551        2.57546620087948
C            2.31586051130411       -4.45706558520447        1.52605078747309
C            3.49046287570265       -5.15506173533645        1.71812451338822
C            3.77745940242113       -5.72445441640661        2.95067847136613
C            2.85981602410909       -5.61052899814853        3.98581518120039
C            1.68302857508838       -4.91635153530358        3.80014191018478
C           -1.20650849783465       -1.90159717324165        1.22851303071976
C           -1.33697258184736       -0.75142208932601        0.47905168814040
N           -2.61424734527585       -0.30554681671742        0.10798775642029
C           -3.10884698302692        0.97011160490959        0.26910157969053
C           -2.52981777693419        2.08884435478986        0.85180991573675
C           -3.27018410589454        3.25215571248709        0.90395779138867
C           -4.57669183620412        3.34445062221217        0.40514365766964
C           -5.31190447713173        4.67156853361611        0.50716765116090
C           -6.72347625140939        4.61163316702497       -0.08443614586703
C           -5.43116800756314        5.06615275020160        1.98745969032457
C           -4.51968763892266        5.74517899467676       -0.25495524146547
C           -5.15594932527792        2.20965538052043       -0.15403798775054
C           -4.43306836133863        1.03017502785191       -0.22005499154062
C           -4.74524918003318       -0.29240059730304       -0.70236318922026
C           -5.87035593074104       -0.84372432560208       -1.29207293376467
C           -5.86607596062167       -2.18356615009056       -1.66739204967915
C           -7.07168263941255       -2.85680227304641       -2.30394339971044
C           -6.68447153188733       -3.36957511575854       -3.69959483486324
C           -8.26487780554707       -1.90858945746020       -2.45846032091095
C           -7.50977283477558       -4.03509596939339       -1.42019473315811
C           -4.70229389600117       -2.93527673357643       -1.45313535753215
C           -3.56667520184506       -2.41043794791555       -0.87018116590033
C           -3.59453157855890       -1.08001536892231       -0.47286461356521
C           -0.20904442891864       -0.03131827260418        0.06577364156698
H            7.04359266929166       -3.26056278721463       -1.86026409022217
H            8.59827728089113       -2.62668515155692       -2.38976976284204
H            7.88210558429861       -2.06273261338920       -0.87688001959781
H            6.10920673553586       -0.89179705868205       -4.62050347128566
H            5.97498105443850       -2.56154209688363       -4.07274222163379
H            7.52956654607860       -1.94154000240681       -4.62304206039166
H            7.52178278987447        0.76473467925320       -3.32886249790729
H            8.85072920969340       -0.38566398380971       -3.27087080199250
H            8.23520238917904        0.29996995394439       -1.77198124836770
H            4.87357328715904       -2.83734574558052       -2.11106543573928
H            2.77114970684518       -2.36641388112925       -0.97099028904001
H            6.14883836243683        1.22554666294435       -1.60645559174932
H            5.12274286581318        3.45218988057362       -0.52890729035892
H            5.96485984503239        5.27482087904454        0.51569471518384
H            5.17947498306490        5.67521568681722       -1.02408966228835
H            5.45618694472659        6.92524961439420        0.18269094842080
H            2.70846716411969        6.27502460818474       -1.06386136502905
H            3.11058234239284        7.56636528971630        0.07218963798725
H            1.81336902241310        6.43510681538564        0.44599232617459
H            2.94681664462418        5.84859219233452        2.66088458355777
H            4.24738169501814        6.97959610994797        2.29804425666348
H            4.61887238765141        5.29267932167500        2.66582460746036
H            1.53123442622405        4.50593207158170        1.56279832187384
H            0.70628014489079        2.21866350007383        1.38677801929623
H            2.18381863598610       -1.95958513646552        1.50599910115529
H            2.07726805293311       -4.06488154202916        0.54866736095554
H            4.18461551005584       -5.26866496506853        0.89712221172423
H            4.69945383474085       -6.26727669336348        3.09799570454483
H            3.06453306911231       -6.06836529169863        4.94358775918090
H            0.95965092844955       -4.82514401707942        4.59838694340638
H           -2.07636831141841       -2.43261302011140        1.58453013982242
H           -1.53545343011076        2.04781833058855        1.26658401957999
H           -2.81418277943704        4.11890522407718        1.35624061327804
H           -7.34044461344753        3.88935610779388        0.44529370999808
H           -6.69537896470449        4.35407160600136       -1.14074204072910
H           -7.19601650371836        5.58725183647296        0.01018579335532
H           -5.96767794677073        4.29722459982429        2.54011215018877
H           -5.97757699162520        6.00231771693137        2.07988933954154
H           -4.45495577064453        5.19600305134738        2.44613608165010
H           -4.41124418016451        5.46181985211337       -1.30005159130876
H           -3.52773963345611        5.88262108222350        0.16597720882616
H           -5.04389110082018        6.69726538003992       -0.20802899803950
H           -6.16279655714499        2.22306670505816       -0.53505433271470
H           -6.73315617813544       -0.21942816788453       -1.45030511593754
H           -5.88023112161452       -4.09803867572000       -3.64688715940199
H           -7.54183974363997       -3.84341906618892       -4.17271190579261
H           -6.35614966116010       -2.54290553558035       -4.32660133290485
H           -8.01842205312923       -1.07023245968029       -3.10583854055994
H           -8.59437353129442       -1.53319146512469       -1.49231623711096
H           -9.09596061330355       -2.44658682089450       -2.90989653597775
H           -6.72620544915041       -4.78275621217284       -1.33434342436788
H           -7.75586412475599       -3.68465300170586       -0.41958655233588
H           -8.39012456272136       -4.51257326371848       -1.84514393960447
H           -4.67844894435818       -3.97128677961523       -1.75331639284209
H           -2.68599005002172       -3.01845743154972       -0.72852409982849
H           -0.30712962794209        0.83942366248260       -0.56129276548648

          :  Hamiltonian                  GFN2-xTB          :
         :: gradient norm              0.000046255247 Eh/a0 ::
         :: HOMO-LUMO gap              0.712322614886 eV    ::
         :: SCC energy              -154.686437238062 Eh    ::
         :: -> dispersion             -0.141160270221 Eh    ::
         :: -> Gsolv                  -0.071896189630 Eh    ::
         :: repulsion energy           2.611685994710 Eh    ::

    * Orbital Energies and Occupations

         #    Occupation            Energy/Eh            Energy/eV
      -------------------------------------------------------------
         1        2.0000           -0.6865252             -18.6813
       ...           ...                  ...                  ...
       131        2.0000           -0.4131693             -11.2429
       132        2.0000           -0.4100170             -11.1571
       133        2.0000           -0.4066023             -11.0642
       134        2.0000           -0.4062291             -11.0541
       135        2.0000           -0.4026282             -10.9561
       136        2.0000           -0.3983426             -10.8395
       137        2.0000           -0.3944848             -10.7345
       138        2.0000           -0.3845036             -10.4629
       139        2.0000           -0.3841245             -10.4526
       140        1.9967           -0.3708431             -10.0912
       141        1.5707           -0.3656964              -9.9511
       142        1.4326           -0.3651682              -9.9367
       143        1.0000           -0.2778664              -7.5611 (HOMO)
       144        0.0000           -0.2516892              -6.8488 (LUMO)
       145        0.0000           -0.2508907              -6.8271
       146                         -0.2338034              -6.3621
       147                         -0.2295727              -6.2470
       148                         -0.2292716              -6.2388
       149                         -0.2265661              -6.1652
       150                         -0.2159003              -5.8749
       151                         -0.2051055              -5.5812
       152                         -0.1945547              -5.2941
       153                         -0.1942499              -5.2858
       154                         -0.1938584              -5.2752
       ...                                ...                  ...
       280                          0.7322255              19.9249
      -------------------------------------------------------------
                  HL-Gap            0.0261772 Eh            0.7123 eV

     #   Z          covCN         q      C6AA      α(0)
     1   6 C        3.761    -0.106    22.574     6.773
     2   6 C        3.902     0.027    20.067     6.368
     3   6 C        3.761    -0.106    22.579     6.774
     4   6 C        3.761    -0.110    22.646     6.784
     5   6 C        2.973     0.010    27.785     8.646
     6   6 C        2.929    -0.036    28.900     8.816
     7   6 C        2.908    -0.043    29.065     8.840
     8   6 C        3.082     0.045    26.896     8.502
     9   6 C        3.064    -0.014    28.297     8.723
    10   6 C        2.916    -0.039    28.973     8.827
    11   6 C        3.064    -0.014    28.297     8.723
    12   6 C        2.916    -0.039    28.969     8.826
    13   6 C        2.973     0.010    27.792     8.647
    14   6 C        3.903     0.027    20.067     6.368
    15   6 C        3.761    -0.110    22.643     6.783
    16   6 C        3.761    -0.107    22.587     6.775
    17   6 C        3.761    -0.106    22.581     6.774
    18   6 C        2.929    -0.037    28.916     8.819
    19   6 C        2.908    -0.044    29.085     8.843
    20   6 C        3.081     0.045    26.900     8.503
    21   7 N        2.804    -0.016    21.566     6.897
    22   6 C        2.908     0.059    26.680     8.470
    23   6 C        2.919    -0.057    29.408     8.893
    24   6 C        2.965    -0.023    28.588     8.770
    25   6 C        2.833     0.162    24.493     8.110
    26   8 O        0.857    -0.521    24.255     6.603
    27   6 C        2.970    -0.012    28.310     8.728
    28   6 C        2.921    -0.041    29.008     8.832
    29   6 C        2.917    -0.033    28.833     8.805
    30   6 C        2.919    -0.041    29.011     8.833
    31   6 C        2.917    -0.033    28.830     8.805
    32   6 C        2.924    -0.030    28.748     8.793
    33   6 C        2.926    -0.045    29.109     8.848
    34   6 C        2.907     0.058    26.691     8.471
    35   7 N        2.804    -0.016    21.559     6.896
    36   6 C        3.080     0.046    26.890     8.501
    37   6 C        2.908    -0.044    29.089     8.844
    38   6 C        2.929    -0.037    28.920     8.819
    39   6 C        2.973     0.010    27.786     8.646
    40   6 C        3.903     0.027    20.066     6.367
    41   6 C        3.761    -0.110    22.645     6.784
    42   6 C        3.761    -0.107    22.582     6.774
    43   6 C        3.761    -0.107    22.591     6.776
    44   6 C        2.916    -0.039    28.967     8.826
    45   6 C        3.064    -0.014    28.294     8.722
    46   6 C        3.065    -0.014    28.299     8.723
    47   6 C        2.916    -0.039    28.976     8.827
    48   6 C        2.973     0.011    27.777     8.645
    49   6 C        3.902     0.027    20.067     6.368
    50   6 C        3.761    -0.107    22.585     6.775
    51   6 C        3.761    -0.110    22.651     6.785
    52   6 C        3.761    -0.106    22.572     6.773
    53   6 C        2.929    -0.036    28.902     8.816
    54   6 C        2.908    -0.043    29.055     8.839
    55   6 C        3.080     0.046    26.875     8.499
    56   6 C        2.920    -0.081    30.037     8.988
    57   1 H        0.925     0.037     2.484     2.465
    58   1 H        0.925     0.042     2.427     2.436
    59   1 H        0.925     0.034     2.524     2.484
    60   1 H        0.925     0.035     2.510     2.478
    61   1 H        0.925     0.038     2.480     2.463
    62   1 H        0.925     0.042     2.420     2.433
    63   1 H        0.925     0.039     2.458     2.452
    64   1 H        0.925     0.040     2.447     2.446
    65   1 H        0.925     0.039     2.467     2.456
    66   1 H        0.926     0.041     2.441     2.443
    67   1 H        0.926     0.034     2.536     2.490
    68   1 H        0.926     0.053     2.284     2.363
    69   1 H        0.926     0.052     2.293     2.368
    70   1 H        0.925     0.038     2.475     2.460
    71   1 H        0.925     0.039     2.465     2.455
    72   1 H        0.925     0.040     2.450     2.448
    73   1 H        0.925     0.035     2.510     2.477
    74   1 H        0.925     0.042     2.425     2.435
    75   1 H        0.925     0.039     2.463     2.454
    76   1 H        0.925     0.038     2.474     2.460
    77   1 H        0.925     0.042     2.425     2.435
    78   1 H        0.925     0.034     2.529     2.487
    79   1 H        0.926     0.042     2.417     2.431
    80   1 H        0.926     0.035     2.522     2.483
    81   1 H        0.926     0.040     2.454     2.450
    82   1 H        0.926     0.026     2.650     2.546
    83   1 H        0.926     0.030     2.582     2.513
    84   1 H        0.926     0.028     2.609     2.526
    85   1 H        0.926     0.026     2.640     2.541
    86   1 H        0.926     0.023     2.695     2.567
    87   1 H        0.926     0.040     2.445     2.445
    88   1 H        0.926     0.036     2.499     2.472
    89   1 H        0.926     0.043     2.407     2.426
    90   1 H        0.925     0.038     2.476     2.461
    91   1 H        0.925     0.039     2.464     2.455
    92   1 H        0.925     0.040     2.447     2.446
    93   1 H        0.925     0.034     2.530     2.488
    94   1 H        0.925     0.042     2.421     2.433
    95   1 H        0.925     0.038     2.470     2.458
    96   1 H        0.925     0.036     2.508     2.477
    97   1 H        0.925     0.039     2.458     2.452
    98   1 H        0.925     0.042     2.422     2.434
    99   1 H        0.926     0.052     2.289     2.366
   100   1 H        0.926     0.054     2.272     2.357
   101   1 H        0.925     0.038     2.482     2.464
   102   1 H        0.925     0.043     2.415     2.430
   103   1 H        0.925     0.036     2.502     2.474
   104   1 H        0.925     0.040     2.451     2.448
   105   1 H        0.925     0.039     2.464     2.455
   106   1 H        0.925     0.041     2.440     2.443
   107   1 H        0.925     0.037     2.491     2.468
   108   1 H        0.925     0.034     2.530     2.487
   109   1 H        0.925     0.042     2.418     2.432
   110   1 H        0.926     0.040     2.450     2.447
   111   1 H        0.926     0.034     2.534     2.489
   112   1 H        0.926     0.043     2.414     2.429

molecular dipole:
                 x           y           z       tot (Debye)
 q only:        0.323       4.440      -3.183
   full:        0.405       4.154      -3.004      13.071

 projected vibrational frequencies (cm⁻¹)
eigval :       -0.00    -0.00     0.00     0.00     0.00     0.00
eigval :        4.83    10.46    12.52    18.30    21.93    26.23
eigval :       26.85    32.72    33.79    36.58    42.97    45.96
eigval :       57.05    59.19    65.72    72.30    76.19    80.10
eigval :       90.11   104.85   111.76   129.03   144.07   151.66
eigval :      153.46   157.97   168.57   175.65   181.19   186.50
eigval :      195.03   198.22   200.63   204.97   214.41   215.27
eigval :      220.34   221.70   225.59   226.73   229.32   237.86
eigval :      251.06   255.46   255.92   270.54   282.25   287.50
eigval :      292.78   314.69   318.87   319.37   323.58   325.75
eigval :      329.94   336.54   338.08   340.32   347.40   355.79
eigval :      355.84   358.26   365.41   370.81   379.07   383.52
eigval :      390.49   396.07   402.25   402.36   405.62   428.47
eigval :      438.41   439.07   440.14   441.33   455.90   459.14
eigval :      461.94   464.23   464.93   470.44   485.97   512.58
eigval :      516.97   528.65   553.27   556.18   574.96   580.09
eigval :      583.87   587.16   590.93   595.13   602.97   616.99
eigval :      622.74   636.90   641.31   642.09   642.75   662.69
eigval :      667.53   691.39   692.38   701.12   707.52   709.01
eigval :      713.73   717.12   749.29   763.45   774.12   778.01
eigval :      811.84   816.92   821.11   824.28   829.42   830.96
eigval :      831.29   855.04   864.57   865.47   868.47   870.30
eigval :      871.12   871.71   873.45   885.20   888.59   906.90
eigval :      911.31   913.94   917.29   921.02   922.54   925.18
eigval :      928.16   931.24   932.20   959.31   959.46   959.57
eigval :      959.93   961.02   961.81   961.99   962.49   963.12
eigval :      963.89   964.18   964.34   966.07   978.61  1025.56
eigval :     1027.48  1030.97  1033.01  1033.22  1033.23  1034.18
eigval :     1034.85  1036.39  1038.33  1040.69  1044.06  1077.28
eigval :     1105.37  1110.24  1116.28  1121.83  1125.10  1127.42
eigval :     1132.18  1151.95  1155.67  1160.86  1176.88  1177.76
eigval :     1182.91  1209.82  1220.93  1222.14  1222.54  1222.57
eigval :     1222.71  1222.82  1224.44  1226.14  1226.78  1227.28
eigval :     1227.62  1229.22  1229.86  1242.68  1247.48  1258.35
eigval :     1275.28  1276.52  1277.62  1286.08  1286.97  1291.06
eigval :     1299.89  1324.42  1327.76  1329.76  1331.31  1344.78
eigval :     1348.97  1358.13  1367.75  1382.84  1397.90  1399.87
eigval :     1401.33  1401.96  1402.20  1402.31  1402.46  1402.54
eigval :     1403.55  1407.69  1411.86  1421.42  1425.92  1426.74
eigval :     1426.94  1427.06  1432.64  1437.38  1438.24  1450.68
eigval :     1456.25  1456.71  1467.55  1472.95  1473.32  1487.01
eigval :     1487.45  1487.53  1487.59  1489.43  1490.04  1490.48
eigval :     1490.50  1496.18  1496.24  1496.57  1497.10  1500.33
eigval :     1500.46  1500.64  1500.78  1510.02  1510.53  1511.67
eigval :     1512.07  1515.38  1515.52  1516.32  1517.15  1532.92
eigval :     1545.19  1556.10  1557.54  1569.97  1571.04  1572.16
eigval :     1572.34  1580.87  1590.53  1603.86  3022.00  3022.16
eigval :     3022.56  3022.64  3022.90  3023.01  3023.05  3023.22
eigval :     3025.86  3026.03  3026.34  3026.65  3027.00  3027.15
eigval :     3027.44  3027.61  3029.62  3029.72  3030.38  3030.61
eigval :     3032.61  3032.77  3032.96  3033.80  3037.45  3037.62
eigval :     3037.71  3038.01  3044.98  3045.47  3045.54  3046.01
eigval :     3048.44  3048.59  3049.04  3049.49  3060.95  3062.81
eigval :     3074.13  3078.26  3084.44  3086.30  3089.15  3090.27
eigval :     3092.52  3093.37  3097.93  3098.04  3100.32  3101.28
eigval :     3103.83  3111.85  3122.32  3123.03  3125.34  3125.72

   temp. (K)  partition function   enthalpy   heat capacity  entropy
                                   cal/mol     cal/K/mol   cal/K/mol   J/K/mol
 298.15  VIB  0.540E+26            32541.757    198.411    202.763
         ROT  0.159E+09              888.752      2.981     40.512
         INT  0.860E+34            33430.509    201.392    243.274
         TR   0.194E+29             1481.254      4.968     45.651
         TOT                       34911.7629   206.3602   288.9257  1208.8652

       T/K    H(0)-H(T)+PV         H(T)/Eh          T*S/Eh         G(T)/Eh
   ------------------------------------------------------------------------
    298.15    0.556354E-01    0.984430E+00    0.137278E+00    0.847152E+00
   ------------------------------------------------------------------------

         :::::::::::::::::::::::::::::::::::::::::::::::::::::
         ::                  THERMODYNAMIC                  ::
         :::::::::::::::::::::::::::::::::::::::::::::::::::::
         :: total free energy        -151.227598917769 Eh   ::
         ::.................................................::
         :: total energy             -152.074751240529 Eh   ::
         :: zero point energy           0.928794823563 Eh   ::
         :: G(RRHO) w/o ZPVE           -0.081642500803 Eh   ::
         :: G(RRHO) contrib.            0.847152322759 Eh   ::
         :::::::::::::::::::::::::::::::::::::::::::::::::::::

           -------------------------------------------------
          | TOTAL ENERGY             -152.074751240529 Eh   |
          | TOTAL ENTHALPY           -151.090320981499 Eh   |
          | TOTAL FREE ENERGY        -151.227598917769 Eh   |
          | GRADIENT NORM               0.000046585339 Eh/α |
          | HOMO-LUMO GAP               0.712316787809 eV   |
           -------------------------------------------------

 * finished run on 2025/09/08 at 04:59:13.659
