   * xtb version 6.7.1 (edcfbbe) compiled by 'albert@albert-system' on 2024-07-22

   ID    Z sym.   atoms
    1    6 C      1-20, 22-25, 27-34, 36-56
    2    7 N      21, 35
    3    8 O      26
    4    1 H      57-112

          program call               : xtb data2507/toluene/BP-mDTC/BP-mDTC_toluene_T1_crest.xyz --gfn 2 --uhf 2 --gbsa toluene --ohess vtight --parallel 40 --molden --ceasefiles --namespace data2507/toluene/BP-mDTC/BP-mDTC_toluene_T1_finalOpt
      * Solvation model:               GBSA
        Solvent                        toluene
        Solvent mass                       9.2140E+01 g/mol
          :  Hamiltonian                  GFN2-xTB          :
 * total energy  :  -152.0743709 Eh     change       -0.3353153E-07 Eh
 * total energy  :  -152.0745516 Eh     change       -0.1806982E-03 Eh
 * total energy  :  -152.0746201 Eh     change       -0.6849051E-04 Eh
 * total energy  :  -152.0746426 Eh     change       -0.2255102E-04 Eh
 * total energy  :  -152.0746598 Eh     change       -0.1716349E-04 Eh
 * total energy  :  -152.0746835 Eh     change       -0.2373575E-04 Eh
 * total energy  :  -152.0747002 Eh     change       -0.1661782E-04 Eh
 * total energy  :  -152.0747084 Eh     change       -0.8229441E-05 Eh
 * total energy  :  -152.0747149 Eh     change       -0.6460672E-05 Eh
 * total energy  :  -152.0747188 Eh     change       -0.3963171E-05 Eh
 * total energy  :  -152.0747704 Eh     change       -0.1017024E-05 Eh
 * total energy  :  -152.0747715 Eh     change       -0.1112345E-05 Eh
 * total energy  :  -152.0747727 Eh     change       -0.1218998E-05 Eh
 * total energy  :  -152.0747738 Eh     change       -0.1141081E-05 Eh
 * total energy  :  -152.0747748 Eh     change       -0.9584612E-06 Eh
 * total energy  :  -152.0747758 Eh     change       -0.9790512E-06 Eh
 * total energy  :  -152.0747769 Eh     change       -0.1074765E-05 Eh
 * total energy  :  -152.0747779 Eh     change       -0.1015054E-05 Eh
 * total energy  :  -152.0747779 Eh     change       -0.3411003E-08 Eh
   *** GEOMETRY OPTIMIZATION CONVERGED AFTER 44 ITERATIONS ***

 final structure:
================
112
 xtb: 6.7.1 (edcfbbe)
C            7.68217532932769       -2.21363594115515       -2.03333037374427
C            6.96021230538518       -1.07670774982052       -2.77293138043247
C            6.60552442396013       -1.52627103127972       -4.19889124185903
C            7.92218315529284        0.11126164462777       -2.87204716272045
C            5.67877888408217       -0.73244722680784       -2.03024603755456
C            4.71817756481422       -1.73422045587181       -1.83290929442765
C            3.53023791197920       -1.51127090448151       -1.16722310707629
C            3.29243643530028       -0.23890245083235       -0.66599436809401
C            4.22961838630856        0.79696926611459       -0.87847216462506
C            5.41406306888016        0.54674462326798       -1.55108932075421
C            3.65997777712085        1.98339101730337       -0.28923453160972
C            4.10264291580981        3.29073507171424       -0.17361971172143
C            3.31540670931607        4.23070316250573        0.48392792267888
C            3.73635953866505        5.68352397311471        0.64003025014668
C            5.08879022169806        5.98008929068505       -0.01504088470286
C            2.67943269916328        6.58494865991121       -0.01677019262886
C            3.84710757338595        6.01656282506294        2.13597627353584
C            2.09359684984559        3.81578684253589        1.03115449954228
C            1.63086805184413        2.51954171818629        0.93094514009976
C            2.41085623140247        1.59796550966479        0.24691105173697
N            2.20062563805667        0.25693735058141        0.01121477973977
C            1.07859295279109       -0.48726216134178        0.40847582826266
C            1.26058893636759       -1.65297988803113        1.12903558385944
C            0.15134899175775       -2.42344405906179        1.54480251120049
C            0.25313942970525       -3.60503791375266        2.35826767094855
O           -0.75768254537741       -4.05416787484976        2.98782349199622
C            1.53803262866693       -4.30528310480840        2.47672378225854
C            2.42985128012483       -4.43153963825831        1.40481173434106
C            3.61807268285608       -5.11614447535276        1.55690284201433
C            3.93998641931886       -5.70682507972907        2.77067282290397
C            3.04334658180334       -5.62798445464206        3.82728281248788
C            1.85332050991311       -4.94706519690259        3.68170759880244
C           -1.13859414118516       -1.93387511524176        1.22529669498843
C           -1.30571583977053       -0.77535293786790        0.49589847351283
N           -2.59872230772682       -0.34925544629406        0.15836681433416
C           -3.11257018515856        0.91618913663476        0.34029864551587
C           -2.53936266804113        2.04329776832959        0.91261229022916
C           -3.29876160122983        3.19307346675913        0.98754797611532
C           -4.61890218610548        3.26365219893234        0.52232130957189
C           -5.37412401650053        4.57765785951227        0.64514929247421
C           -6.79806988644659        4.49443038828042        0.08696445653145
C           -5.46416408298257        4.96715163379529        2.12885061705541
C           -4.61901410561434        5.66618387089174       -0.13333384750883
C           -5.19254181360453        2.11975197813445       -0.02385834749328
C           -4.45038044224321        0.95388450292907       -0.11286483891009
C           -4.75077095638143       -0.37147829117639       -0.59468164258047
C           -5.88089497874136       -0.93960117249508       -1.15816462340094
C           -5.86079407236489       -2.27546695320878       -1.54677706145781
C           -7.06879326513797       -2.96468224933121       -2.16134370145031
C           -6.71067952297667       -3.43511041339169       -3.57958400764159
C           -8.28878880145041       -2.04326223989130       -2.25790523154889
C           -7.45215502677707       -4.17371730910180       -1.29400466872961
C           -4.67674598997487       -3.00551127424309       -1.37226096997695
C           -3.53649515727221       -2.46402725424973       -0.81398548074016
C           -3.57943940276634       -1.13828768384135       -0.40243262695971
C           -0.19959982994172       -0.02934054162174        0.06964438668902
H            7.07804433251833       -3.11585661026442       -1.99904639457456
H            8.61666625980619       -2.45102921499045       -2.53726487513857
H            7.90704851126518       -1.91513618500575       -1.01114860746959
H            6.07668245897132       -0.73273225774115       -4.72329530351883
H            5.97325292115039       -2.40983363428566       -4.19176351286374
H            7.51253045285951       -1.76093537063748       -4.75191043383603
H            7.47697931020454        0.93124852562534       -3.43075079934790
H            8.82467582715893       -0.19800292281273       -3.39532446339354
H            8.21174018697363        0.46371909041935       -1.88466017118942
H            4.90039167678776       -2.72549003686429       -2.21760961811681
H            2.80523093843968       -2.30103071308523       -1.04719702192443
H            6.11122403219636        1.35463616816547       -1.69425328534212
H            5.05788846745876        3.55446948922889       -0.59437903120781
H            5.88236004487592        5.39163554965683        0.43986935848098
H            5.05944590534349        5.77902552986261       -1.08352555660708
H            5.33282832018718        7.03172050480415        0.12126351258127
H            2.57702372478382        6.33758858740713       -1.07159851734502
H            2.97668292637561        7.62814036037302        0.06611818366013
H            1.70828866994721        6.47014366103416        0.45624260722097
H            2.89500950451125        5.89213145403172        2.64415251436252
H            4.16909762511923        7.04769348219874        2.26475132641216
H            4.57613110309817        5.36502746623225        2.61399489922868
H            1.48161872374532        4.52914281865937        1.56062963635414
H            0.69685574845982        2.22818009948644        1.38466576567794
H            2.25661703408877       -1.93354732305129        1.43388399453870
H            2.16415616507272       -4.02359641992719        0.44099399623599
H            4.29569504620343       -5.20255987639971        0.71900969623178
H            4.87266236031477       -6.23888474407527        2.88672698299769
H            3.27514354977637       -6.10286335793032        4.77046941261408
H            1.14606410039593       -4.88373018616665        4.49686832006365
H           -1.99103228369330       -2.48557915165328        1.59165653303469
H           -1.53439871743455        2.01932791907933        1.30226543279947
H           -2.84676694685874        4.06655581325081        1.43078148760630
H           -7.39002486748383        3.76092413844334        0.62960987767972
H           -6.79030615183817        4.23882647930066       -0.97018205653969
H           -7.28479260052805        5.46169690994075        0.19430371071067
H           -5.97083519761778        4.18661157702097        2.69329119750934
H           -6.02661326929463        5.89202512170627        2.23736173712109
H           -4.47932885398088        5.11569187145584        2.56275587624069
H           -4.53170827420829        5.38712565208048       -1.18156505073335
H           -3.61935911045142        5.81923288365859        0.26326164380963
H           -5.15772593563405        6.60923495164438       -0.07084471056483
H           -6.20927849640136        2.11570875951470       -0.37785290111295
H           -6.75950815862239       -0.33081676747303       -1.28699513390674
H           -5.89125874282437       -4.14834707508359       -3.56654704378433
H           -7.57150831701187       -3.91422679834685       -4.04097846264745
H           -6.41588251560312       -2.58695364377009       -4.19447598349715
H           -8.08466427803376       -1.18756816640276       -2.89729475988720
H           -8.59389142971382       -1.69335199540255       -1.27429732551818
H           -9.12170352689975       -2.59316913166682       -2.69121167589337
H           -6.64947614834108       -4.90448659635971       -1.24951796353204
H           -7.67627875233163       -3.85315719120785       -0.27834245673047
H           -8.33340855734736       -4.66204900101174       -1.70446710591966
H           -4.63998949829342       -4.03726344505136       -1.68549864519338
H           -2.64049845302990       -3.05588326110035       -0.70345849698586
H           -0.32602573617128        0.84741114516581       -0.54374372024950

          :  Hamiltonian                  GFN2-xTB          :
         :: gradient norm              0.000062836403 Eh/a0 ::
         :: HOMO-LUMO gap              0.711058060559 eV    ::
         :: SCC energy              -154.686387818155 Eh    ::
         :: -> dispersion             -0.141222287864 Eh    ::
         :: -> Gsolv                  -0.071921103564 Eh    ::
         :: repulsion energy           2.611609936425 Eh    ::

    * Orbital Energies and Occupations

         #    Occupation            Energy/Eh            Energy/eV
      -------------------------------------------------------------
         1        2.0000           -0.6865237             -18.6813
       ...           ...                  ...                  ...
       131        2.0000           -0.4131499             -11.2424
       132        2.0000           -0.4100473             -11.1580
       133        2.0000           -0.4065993             -11.0641
       134        2.0000           -0.4062201             -11.0538
       135        2.0000           -0.4026720             -10.9573
       136        2.0000           -0.3982648             -10.8373
       137        2.0000           -0.3944170             -10.7326
       138        2.0000           -0.3845004             -10.4628
       139        2.0000           -0.3841269             -10.4526
       140        1.9967           -0.3708282             -10.0908
       141        1.5720           -0.3656905              -9.9509
       142        1.4313           -0.3651524              -9.9363
       143        1.0000           -0.2778517              -7.5607 (HOMO)
       144        0.0000           -0.2517204              -6.8497 (LUMO)
       145        0.0000           -0.2509010              -6.8274
       146                         -0.2339180              -6.3652
       147                         -0.2295825              -6.2473
       148                         -0.2292875              -6.2392
       149                         -0.2266308              -6.1669
       150                         -0.2158058              -5.8724
       151                         -0.2051277              -5.5818
       152                         -0.1944429              -5.2911
       153                         -0.1942356              -5.2854
       154                         -0.1938508              -5.2749
       ...                                ...                  ...
       280                          0.7322638              19.9259
      -------------------------------------------------------------
                  HL-Gap            0.0261313 Eh            0.7111 eV

     #   Z          covCN         q      C6AA      α(0)
     1   6 C        3.761    -0.106    22.574     6.773
     2   6 C        3.903     0.027    20.067     6.368
     3   6 C        3.761    -0.106    22.579     6.774
     4   6 C        3.761    -0.110    22.646     6.784
     5   6 C        2.973     0.010    27.784     8.646
     6   6 C        2.929    -0.036    28.900     8.816
     7   6 C        2.908    -0.043    29.066     8.840
     8   6 C        3.082     0.045    26.897     8.502
     9   6 C        3.064    -0.014    28.297     8.723
    10   6 C        2.916    -0.039    28.973     8.827
    11   6 C        3.064    -0.014    28.296     8.723
    12   6 C        2.916    -0.039    28.969     8.826
    13   6 C        2.973     0.010    27.792     8.647
    14   6 C        3.903     0.027    20.067     6.368
    15   6 C        3.761    -0.110    22.643     6.783
    16   6 C        3.761    -0.107    22.588     6.775
    17   6 C        3.761    -0.106    22.581     6.774
    18   6 C        2.929    -0.037    28.916     8.819
    19   6 C        2.908    -0.044    29.086     8.843
    20   6 C        3.081     0.045    26.902     8.503
    21   7 N        2.804    -0.016    21.565     6.897
    22   6 C        2.908     0.059    26.679     8.469
    23   6 C        2.919    -0.057    29.406     8.892
    24   6 C        2.965    -0.023    28.585     8.770
    25   6 C        2.833     0.162    24.495     8.110
    26   8 O        0.857    -0.521    24.258     6.603
    27   6 C        2.970    -0.012    28.314     8.728
    28   6 C        2.921    -0.041    29.011     8.833
    29   6 C        2.917    -0.033    28.833     8.805
    30   6 C        2.919    -0.041    29.013     8.833
    31   6 C        2.917    -0.033    28.831     8.805
    32   6 C        2.924    -0.030    28.750     8.793
    33   6 C        2.926    -0.045    29.108     8.848
    34   6 C        2.907     0.058    26.689     8.471
    35   7 N        2.803    -0.016    21.557     6.896
    36   6 C        3.079     0.046    26.892     8.502
    37   6 C        2.908    -0.044    29.091     8.844
    38   6 C        2.929    -0.037    28.920     8.819
    39   6 C        2.973     0.010    27.785     8.646
    40   6 C        3.903     0.027    20.066     6.367
    41   6 C        3.761    -0.110    22.645     6.784
    42   6 C        3.761    -0.106    22.581     6.774
    43   6 C        3.761    -0.107    22.592     6.776
    44   6 C        2.917    -0.039    28.967     8.826
    45   6 C        3.064    -0.014    28.293     8.722
    46   6 C        3.064    -0.014    28.298     8.723
    47   6 C        2.916    -0.039    28.977     8.827
    48   6 C        2.973     0.011    27.777     8.645
    49   6 C        3.902     0.027    20.067     6.367
    50   6 C        3.761    -0.107    22.583     6.774
    51   6 C        3.761    -0.110    22.651     6.785
    52   6 C        3.761    -0.106    22.573     6.773
    53   6 C        2.929    -0.036    28.902     8.817
    54   6 C        2.908    -0.042    29.055     8.838
    55   6 C        3.080     0.046    26.876     8.499
    56   6 C        2.920    -0.082    30.040     8.988
    57   1 H        0.925     0.037     2.484     2.465
    58   1 H        0.925     0.042     2.427     2.436
    59   1 H        0.925     0.034     2.524     2.484
    60   1 H        0.925     0.035     2.510     2.478
    61   1 H        0.925     0.038     2.480     2.463
    62   1 H        0.925     0.042     2.420     2.433
    63   1 H        0.925     0.039     2.458     2.452
    64   1 H        0.925     0.040     2.447     2.446
    65   1 H        0.925     0.039     2.467     2.456
    66   1 H        0.926     0.041     2.441     2.443
    67   1 H        0.926     0.034     2.535     2.490
    68   1 H        0.926     0.053     2.284     2.363
    69   1 H        0.926     0.052     2.293     2.368
    70   1 H        0.925     0.038     2.475     2.460
    71   1 H        0.925     0.039     2.465     2.455
    72   1 H        0.925     0.040     2.450     2.448
    73   1 H        0.925     0.035     2.510     2.477
    74   1 H        0.925     0.042     2.425     2.435
    75   1 H        0.925     0.039     2.463     2.454
    76   1 H        0.925     0.038     2.473     2.459
    77   1 H        0.925     0.042     2.424     2.435
    78   1 H        0.925     0.034     2.529     2.487
    79   1 H        0.926     0.042     2.417     2.431
    80   1 H        0.926     0.035     2.521     2.483
    81   1 H        0.926     0.040     2.453     2.449
    82   1 H        0.926     0.026     2.651     2.546
    83   1 H        0.926     0.030     2.583     2.513
    84   1 H        0.926     0.028     2.611     2.527
    85   1 H        0.926     0.026     2.642     2.542
    86   1 H        0.926     0.023     2.695     2.567
    87   1 H        0.926     0.040     2.443     2.444
    88   1 H        0.926     0.036     2.497     2.471
    89   1 H        0.926     0.043     2.407     2.426
    90   1 H        0.925     0.038     2.476     2.461
    91   1 H        0.925     0.039     2.464     2.455
    92   1 H        0.925     0.040     2.447     2.446
    93   1 H        0.925     0.034     2.530     2.488
    94   1 H        0.925     0.042     2.421     2.433
    95   1 H        0.925     0.038     2.470     2.458
    96   1 H        0.925     0.036     2.508     2.477
    97   1 H        0.925     0.039     2.458     2.452
    98   1 H        0.925     0.042     2.422     2.434
    99   1 H        0.926     0.052     2.289     2.366
   100   1 H        0.926     0.054     2.272     2.357
   101   1 H        0.925     0.038     2.482     2.464
   102   1 H        0.925     0.043     2.414     2.430
   103   1 H        0.925     0.036     2.503     2.474
   104   1 H        0.925     0.040     2.450     2.448
   105   1 H        0.925     0.039     2.465     2.455
   106   1 H        0.925     0.041     2.440     2.443
   107   1 H        0.925     0.037     2.491     2.468
   108   1 H        0.925     0.034     2.530     2.487
   109   1 H        0.925     0.042     2.419     2.432
   110   1 H        0.926     0.040     2.450     2.448
   111   1 H        0.926     0.034     2.533     2.489
   112   1 H        0.926     0.043     2.411     2.428

molecular dipole:
                 x           y           z       tot (Debye)
 q only:        0.173       4.492      -3.129
   full:        0.264       4.205      -2.957      13.083

 projected vibrational frequencies (cm⁻¹)
eigval :       -0.00    -0.00    -0.00    -0.00     0.00     0.00
eigval :        6.05    11.56    13.22    18.10    22.56    30.69
eigval :       31.09    32.49    33.57    35.74    43.26    46.04
eigval :       57.96    61.03    66.43    72.15    75.50    79.54
eigval :       89.22   103.72   114.19   128.87   144.79   152.50
eigval :      155.09   157.85   169.16   174.57   181.91   186.40
eigval :      195.29   197.66   199.42   204.93   215.87   216.44
eigval :      219.34   222.29   225.45   227.60   230.12   239.04
eigval :      251.94   255.03   256.98   270.27   282.25   287.87
eigval :      293.09   314.22   317.03   317.88   322.25   325.75
eigval :      330.12   336.63   338.00   340.31   347.19   355.73
eigval :      356.71   358.35   365.64   370.85   378.46   383.47
eigval :      390.19   396.57   402.18   402.36   405.85   428.67
eigval :      438.14   438.86   440.27   441.84   456.01   459.03
eigval :      462.08   464.60   465.17   470.26   485.87   512.54
eigval :      516.98   528.67   552.98   556.21   574.88   580.20
eigval :      583.88   587.13   590.82   595.18   602.67   616.97
eigval :      623.25   637.13   641.74   642.02   643.09   662.51
eigval :      667.37   691.69   692.22   701.07   707.71   708.33
eigval :      713.84   717.26   748.09   763.30   774.11   776.81
eigval :      812.03   819.46   823.62   824.19   829.41   830.97
eigval :      833.71   857.38   858.20   865.43   866.84   867.71
eigval :      871.13   871.35   874.19   885.45   888.44   906.29
eigval :      913.57   914.46   917.67   922.16   922.39   924.81
eigval :      927.74   930.45   932.01   959.09   959.30   959.68
eigval :      959.75   961.14   961.22   961.93   962.31   963.53
eigval :      963.69   964.26   964.30   966.45   978.81  1025.22
eigval :     1026.99  1030.17  1033.09  1033.78  1033.82  1034.12
eigval :     1034.29  1035.74  1037.40  1040.01  1044.25  1076.66
eigval :     1105.85  1111.10  1116.52  1121.05  1124.67  1127.27
eigval :     1133.29  1151.33  1155.30  1160.93  1175.03  1178.21
eigval :     1182.00  1209.06  1221.30  1222.38  1222.46  1222.47
eigval :     1222.56  1223.85  1224.57  1225.99  1226.61  1227.22
eigval :     1228.02  1228.86  1229.66  1243.45  1248.57  1258.50
eigval :     1275.11  1276.33  1277.17  1285.83  1286.82  1291.03
eigval :     1299.91  1324.50  1327.75  1329.70  1331.23  1344.92
eigval :     1349.08  1357.94  1367.77  1382.43  1397.92  1399.42
eigval :     1401.30  1401.54  1402.00  1402.37  1402.52  1402.57
eigval :     1403.69  1407.56  1412.00  1420.80  1426.22  1426.30
eigval :     1426.34  1427.25  1432.37  1436.89  1438.03  1449.60
eigval :     1456.28  1456.82  1467.06  1472.98  1473.41  1486.87
eigval :     1487.36  1487.37  1487.63  1489.61  1489.91  1490.01
eigval :     1491.45  1496.36  1496.76  1496.83  1497.02  1499.93
eigval :     1500.41  1500.62  1500.64  1509.93  1510.55  1510.58
eigval :     1511.73  1515.30  1515.55  1516.18  1517.13  1532.41
eigval :     1544.75  1556.00  1557.49  1569.79  1571.06  1572.24
eigval :     1572.33  1580.62  1590.55  1603.91  3021.59  3021.69
eigval :     3022.53  3022.71  3022.73  3022.75  3023.04  3023.30
eigval :     3025.87  3025.96  3026.11  3026.31  3026.72  3026.99
eigval :     3027.36  3027.67  3029.59  3029.75  3030.00  3030.30
eigval :     3032.61  3032.76  3032.86  3033.10  3036.96  3037.67
eigval :     3037.74  3037.89  3044.95  3045.54  3045.82  3045.85
eigval :     3048.48  3048.95  3049.04  3049.39  3061.70  3062.63
eigval :     3074.64  3078.60  3084.49  3086.18  3089.44  3089.77
eigval :     3091.29  3097.16  3098.23  3098.58  3100.45  3100.97
eigval :     3104.38  3112.80  3122.97  3123.11  3125.40  3125.73

   temp. (K)  partition function   enthalpy   heat capacity  entropy
                                   cal/mol     cal/K/mol   cal/K/mol   J/K/mol
 298.15  VIB  0.269E+26            32518.615    198.547    202.177
         ROT  0.159E+09              888.752      2.981     40.512
         INT  0.428E+34            33407.368    201.527    242.689
         TR   0.194E+29             1481.254      4.968     45.651
         TOT                       34888.6218   206.4956   288.3402  1206.4153

       T/K    H(0)-H(T)+PV         H(T)/Eh          T*S/Eh         G(T)/Eh
   ------------------------------------------------------------------------
    298.15    0.555986E-01    0.984412E+00    0.137000E+00    0.847413E+00
   ------------------------------------------------------------------------

         :::::::::::::::::::::::::::::::::::::::::::::::::::::
         ::                  THERMODYNAMIC                  ::
         :::::::::::::::::::::::::::::::::::::::::::::::::::::
         :: total free energy        -151.227365356552 Eh   ::
         ::.................................................::
         :: total energy             -152.074777878075 Eh   ::
         :: zero point energy           0.928813686806 Eh   ::
         :: G(RRHO) w/o ZPVE           -0.081401165284 Eh   ::
         :: G(RRHO) contrib.            0.847412521523 Eh   ::
         :::::::::::::::::::::::::::::::::::::::::::::::::::::

           -------------------------------------------------
          | TOTAL ENERGY             -152.074777878075 Eh   |
          | TOTAL ENTHALPY           -151.090365633502 Eh   |
          | TOTAL FREE ENERGY        -151.227365356552 Eh   |
          | GRADIENT NORM               0.000061117102 Eh/α |
          | HOMO-LUMO GAP               0.711068564665 eV   |
           -------------------------------------------------

 * finished run on 2025/09/08 at 05:24:04.131
