   * xtb version 6.7.1 (edcfbbe) compiled by 'albert@albert-system' on 2024-07-22

   ID    Z sym.   atoms
    1    6 C      1-20, 22-25, 27-34, 36-56
    2    7 N      21, 35
    3    8 O      26
    4    1 H      57-112

          program call               : xtb data2507/toluene/BP-mDTC/BP-mDTC_toluene_S0_crest.xyz --gfn 2 --gbsa toluene --ohess vtight --parallel 40 --molden --ceasefiles --namespace data2507/toluene/BP-mDTC/BP-mDTC_toluene_S0_finalOpt
      * Solvation model:               GBSA
        Solvent                        toluene
        Solvent mass                       9.2140E+01 g/mol
          :  Hamiltonian                  GFN2-xTB          :
 * total energy  :  -152.1538900 Eh     change       -0.1023918E-07 Eh
 * total energy  :  -152.1539863 Eh     change       -0.9637918E-04 Eh
 * total energy  :  -152.1540339 Eh     change       -0.4759781E-04 Eh
 * total energy  :  -152.1540563 Eh     change       -0.2241947E-04 Eh
 * total energy  :  -152.1540782 Eh     change       -0.2181562E-04 Eh
 * total energy  :  -152.1541251 Eh     change       -0.4689033E-04 Eh
 * total energy  :  -152.1541497 Eh     change       -0.2466379E-04 Eh
 * total energy  :  -152.1541741 Eh     change       -0.2437153E-04 Eh
 * total energy  :  -152.1541842 Eh     change       -0.1009839E-04 Eh
 * total energy  :  -152.1541946 Eh     change       -0.1042914E-04 Eh
 * total energy  :  -152.1543695 Eh     change       -0.2538133E-06 Eh
 * total energy  :  -152.1543697 Eh     change       -0.2069163E-06 Eh
 * total energy  :  -152.1543698 Eh     change       -0.1705426E-06 Eh
 * total energy  :  -152.1543700 Eh     change       -0.1791768E-06 Eh
 * total energy  :  -152.1543702 Eh     change       -0.2169848E-06 Eh
 * total energy  :  -152.1543705 Eh     change       -0.2570614E-06 Eh
 * total energy  :  -152.1543707 Eh     change       -0.2409966E-06 Eh
 * total energy  :  -152.1543709 Eh     change       -0.2168609E-06 Eh
 * total energy  :  -152.1543709 Eh     change       -0.2740762E-08 Eh
   *** GEOMETRY OPTIMIZATION CONVERGED AFTER 94 ITERATIONS ***

 final structure:
================
112
 xtb: 6.7.1 (edcfbbe)
C            7.84614964701420       -2.17845887644349       -1.52516130039550
C            7.08226708674814       -1.17065602616700       -2.39713577714813
C            6.76971225353813       -1.79743614689766       -3.76427141741385
C            7.98956412198467        0.04186076888405       -2.62824579586373
C            5.77794367785049       -0.80184746176125       -1.70332446033912
C            4.84252541490493       -1.81118086846420       -1.43855516730303
C            3.63752737194649       -1.57263992259846       -0.80884239619479
C            3.35336008807598       -0.27499394849882       -0.41407450259174
C            4.26741670189633        0.76343837928454       -0.68770704433521
C            5.47162581743950        0.49556955365282       -1.32632674468158
C            3.66816564411340        1.97581086929036       -0.19977545917128
C            4.09823804666980        3.29625587531410       -0.16254369271615
C            3.29620435179602        4.26696912820148        0.41551165850904
C            3.69895346703573        5.73379693283968        0.48380064453316
C            5.05705364290907        6.00234499585696       -0.17187061745681
C            2.64346014434295        6.57931866333097       -0.24468948753037
C            3.78682011607261        6.16615811619894        1.95519163167727
C            2.07071647105289        3.87507672365112        0.97090786866418
C            1.62092922099746        2.57062067377749        0.94801629214223
C            2.41553177880783        1.61454933011421        0.33681179208158
N            2.22866679096920        0.24984126609314        0.20040831643978
C            1.09924637844223       -0.46815556827933        0.60307353450002
C            1.24319893633397       -1.64122566246046        1.33966615194920
C            0.11369401104745       -2.34504184495391        1.74463925863872
C            0.23565196446738       -3.56820840419155        2.58148413600286
O           -0.55394969824403       -3.80525192738609        3.48077528827337
C            1.35901088235261       -4.47905697168566        2.26363087852969
C            1.79749342915809       -4.65813991687633        0.95205907412412
C            2.82634106372645       -5.54090167892533        0.68089682224400
C            3.43286376547748       -6.24199687098563        1.71173223598545
C            2.99416446915776       -6.07753826405122        3.01656131521392
C            1.95391283017708       -5.21007385651778        3.29099835980419
C           -1.15553808316077       -1.87554053187855        1.42706668040816
C           -1.30298142927415       -0.72507917375126        0.65748807062551
N           -2.57746085455786       -0.29318934459238        0.28403421900875
C           -3.06974789786444        0.99736174407990        0.37621198056358
C           -2.49255459993914        2.14298287294482        0.89938646726788
C           -3.23014811338929        3.30937063054780        0.88719926696286
C           -4.53587621026244        3.37882777757156        0.38337461370865
C           -5.26190780049100        4.71711218395555        0.40309039883117
C           -6.68009067696786        4.62592611961015       -0.16866289017059
C           -5.36487880263440        5.21815851599854        1.85150532402574
C           -4.47132834363714        5.72752121415327       -0.44180413436183
C           -5.11519272944594        2.21965593604797       -0.10705781225915
C           -4.39283748829750        1.03311355278072       -0.10967765321194
C           -4.71307005305712       -0.30676132461046       -0.52133859679032
C           -5.84580870520787       -0.87430562993149       -1.09080649261174
C           -5.85451112397148       -2.22206305405505       -1.41128836513245
C           -7.06290374242124       -2.91258196025719       -2.02898074206021
C           -6.67447335601955       -3.47479802915846       -3.40465557925313
C           -8.24887277206802       -1.96227446801500       -2.22173537270016
C           -7.51505842718862       -4.05597433636933       -1.10816986732009
C           -4.69717635706149       -2.97286000212621       -1.16466670715205
C           -3.55803474053741       -2.43453558089140       -0.60038233887034
C           -3.57178979371936       -1.09154523350918       -0.25738019331381
C           -0.17204561773383       -0.02323649615259        0.24815617578243
H            7.27359144091790       -3.09016518802978       -1.37819388106504
H            8.79104477189818       -2.44154129035187       -1.99646891835157
H            8.05577019598045       -1.74685778270437       -0.54817454346982
H            6.20239765699787       -1.09924722535770       -4.37697808610266
H            6.18826497576130       -2.70933689672603       -3.66068988598904
H            7.69386150495827       -2.04134541321502       -4.28449453508519
H            7.50421309202833        0.77786136282962       -3.26544882470252
H            8.90432465342184       -0.27927156007667       -3.12289901095180
H            8.26493523740185        0.51046736456812       -1.68602856239789
H            5.06020877687048       -2.82478652753557       -1.73818891429850
H            2.94009751662809       -2.37801998155676       -0.63981844029917
H            6.14539280102097        1.31359742800437       -1.51884775070463
H            5.06011054585989        3.53668230647042       -0.58342180983915
H            5.85006057528354        5.45317097608069        0.33084880674429
H            5.04388954529042        5.72870560548473       -1.22457234806139
H            5.28879808796917        7.06354640004224       -0.10326045908307
H            2.55964268250247        6.26298774697080       -1.28279017666000
H            2.92616425354214        7.62993612560971       -0.22520399678218
H            1.66618763147456        6.48209590816780        0.22016834979339
H            2.82959645837274        6.06093442635433        2.45850235268835
H            4.09324636429795        7.20820009823404        2.02179123049999
H            4.51781960065590        5.55668410744834        2.48329487951243
H            1.44351901157205        4.61406315704190        1.44593235382490
H            0.68334232615939        2.30697998965982        1.41252715309182
H            2.22698093909977       -1.97664971109634        1.62897148321485
H            1.30887053632435       -4.12706345370491        0.14814266040298
H            3.15586208455393       -5.68498397593315       -0.33732990793988
H            4.24258093276851       -6.92337638114522        1.49686508255991
H            3.45952264025117       -6.63031837631108        3.81897225443039
H            1.59298245277488       -5.07372771985486        4.30022064003176
H           -2.02113140681982       -2.41196662728363        1.78446573735443
H           -1.49985598846256        2.12951722482570        1.32107151129778
H           -2.76983626393654        4.19825524859908        1.29109001098479
H           -7.29299338642344        3.94052825017678        0.41256229179165
H           -6.66377962507308        4.29950708062163       -1.20610738083856
H           -7.14873292850489        5.60759132133355       -0.13289453358453
H           -5.89865631715215        4.49326023773342        2.46330956108742
H           -5.90574959955805        6.16187401972765        1.88352379464679
H           -4.38305625159368        5.37508085590653        2.28960135171327
H           -4.37811170990526        5.36985397880727       -1.46557792762008
H           -3.47219253306596        5.88198264129026       -0.04363055375668
H           -4.98450365273707        6.68696411861616       -0.45633931514458
H           -6.12277674685540        2.20973416665115       -0.48757602345960
H           -6.69977734174228       -0.24451424238197       -1.27579935206575
H           -5.87761532533988       -4.20896817483914       -3.32290106196482
H           -7.53333734357639       -3.95494336466649       -3.86931367481219
H           -6.33287169761583       -2.67199261659798       -4.05543890467233
H           -7.99325121915317       -1.14878685053496       -2.89699101715366
H           -8.57703486318299       -1.54872540490792       -1.27065949024961
H           -9.08347624547401       -2.50905546673815       -2.65640543626759
H           -6.73638068969254       -4.80479530963529       -0.99172385381136
H           -7.76438909541666       -3.66826381217551       -0.12212522740036
H           -8.39632633688801       -4.54317655377623       -1.52068617229476
H           -4.68033386541737       -4.02033370961225       -1.42500410395636
H           -2.68403076339113       -3.04913994878425       -0.44345571268490
H           -0.27900912392443        0.85514930463009       -0.36980301192656

          :  Hamiltonian                  GFN2-xTB          :
         :: gradient norm              0.000042187376 Eh/a0 ::
         :: HOMO-LUMO gap              1.716396021527 eV    ::
         :: SCC energy              -154.781484458149 Eh    ::
         :: -> dispersion             -0.141842942742 Eh    ::
         :: -> Gsolv                  -0.060809612377 Eh    ::
         :: repulsion energy           2.627113509838 Eh    ::

    * Orbital Energies and Occupations

         #    Occupation            Energy/Eh            Energy/eV
      -------------------------------------------------------------
         1        2.0000           -0.7160726             -19.4853
       ...           ...                  ...                  ...
       130        2.0000           -0.4156696             -11.3109
       131        2.0000           -0.4134886             -11.2516
       132        2.0000           -0.4101132             -11.1597
       133        2.0000           -0.4081397             -11.1060
       134        2.0000           -0.4070420             -11.0762
       135        2.0000           -0.4056220             -11.0375
       136        2.0000           -0.3996680             -10.8755
       137        2.0000           -0.3966176             -10.7925
       138        2.0000           -0.3963875             -10.7863
       139        2.0000           -0.3736465             -10.1674
       140        2.0000           -0.3734386             -10.1618
       141        2.0000           -0.3602769              -9.8036
       142        2.0000           -0.3583863              -9.7522 (HOMO)
       143                         -0.2953099              -8.0358 (LUMO)
       144                         -0.2494852              -6.7888
       145                         -0.2461860              -6.6991
       146                         -0.2400102              -6.5310
       147                         -0.2380718              -6.4783
       148                         -0.2365528              -6.4369
       149                         -0.2177745              -5.9259
       150                         -0.2175865              -5.9208
       151                         -0.2045899              -5.5672
       152                         -0.1877587              -5.1092
       153                         -0.1856833              -5.0527
       ...                                ...                  ...
       280                          0.7421040              20.1937
      -------------------------------------------------------------
                  HL-Gap            0.0630764 Eh            1.7164 eV

     #   Z          covCN         q      C6AA      α(0)
     1   6 C        3.761    -0.105    22.550     6.769
     2   6 C        3.902     0.025    20.100     6.373
     3   6 C        3.761    -0.105    22.550     6.769
     4   6 C        3.761    -0.107    22.583     6.774
     5   6 C        2.972    -0.002    28.069     8.690
     6   6 C        2.931    -0.040    28.999     8.831
     7   6 C        2.909    -0.056    29.388     8.889
     8   6 C        3.076     0.042    26.978     8.516
     9   6 C        3.067    -0.020    28.435     8.744
    10   6 C        2.918    -0.045    29.114     8.848
    11   6 C        3.066    -0.020    28.442     8.745
    12   6 C        2.918    -0.045    29.115     8.848
    13   6 C        2.972    -0.002    28.071     8.691
    14   6 C        3.902     0.025    20.099     6.373
    15   6 C        3.761    -0.107    22.585     6.775
    16   6 C        3.761    -0.104    22.542     6.768
    17   6 C        3.761    -0.104    22.541     6.768
    18   6 C        2.931    -0.040    28.990     8.830
    19   6 C        2.909    -0.054    29.331     8.881
    20   6 C        3.077     0.043    26.965     8.514
    21   7 N        2.801    -0.048    22.161     6.992
    22   6 C        2.909     0.071    26.413     8.427
    23   6 C        2.923    -0.048    29.203     8.862
    24   6 C        2.971    -0.011    28.283     8.723
    25   6 C        2.829     0.230    23.174     7.888
    26   8 O        0.858    -0.411    21.899     6.274
    27   6 C        2.973    -0.014    28.347     8.733
    28   6 C        2.921    -0.024    28.592     8.769
    29   6 C        2.918    -0.025    28.618     8.772
    30   6 C        2.920    -0.020    28.511     8.756
    31   6 C        2.917    -0.025    28.623     8.773
    32   6 C        2.924    -0.016    28.419     8.742
    33   6 C        2.926    -0.040    28.985     8.829
    34   6 C        2.908     0.071    26.412     8.427
    35   7 N        2.801    -0.048    22.159     6.991
    36   6 C        3.075     0.043    26.957     8.513
    37   6 C        2.909    -0.054    29.337     8.881
    38   6 C        2.931    -0.040    28.991     8.830
    39   6 C        2.972    -0.002    28.067     8.690
    40   6 C        3.902     0.025    20.099     6.373
    41   6 C        3.761    -0.107    22.586     6.775
    42   6 C        3.761    -0.105    22.543     6.768
    43   6 C        3.761    -0.105    22.545     6.769
    44   6 C        2.918    -0.045    29.113     8.848
    45   6 C        3.066    -0.020    28.438     8.744
    46   6 C        3.066    -0.020    28.434     8.744
    47   6 C        2.918    -0.045    29.117     8.849
    48   6 C        2.972    -0.002    28.066     8.690
    49   6 C        3.902     0.025    20.100     6.373
    50   6 C        3.761    -0.105    22.547     6.769
    51   6 C        3.761    -0.107    22.588     6.775
    52   6 C        3.761    -0.104    22.543     6.768
    53   6 C        2.931    -0.040    28.996     8.831
    54   6 C        2.908    -0.054    29.345     8.883
    55   6 C        3.076     0.043    26.958     8.513
    56   6 C        2.925    -0.055    29.365     8.887
    57   1 H        0.925     0.036     2.499     2.472
    58   1 H        0.925     0.038     2.479     2.462
    59   1 H        0.925     0.032     2.558     2.501
    60   1 H        0.925     0.032     2.557     2.501
    61   1 H        0.925     0.036     2.502     2.474
    62   1 H        0.925     0.038     2.480     2.463
    63   1 H        0.925     0.035     2.510     2.478
    64   1 H        0.925     0.036     2.497     2.471
    65   1 H        0.925     0.035     2.511     2.478
    66   1 H        0.926     0.032     2.559     2.502
    67   1 H        0.926     0.027     2.631     2.536
    68   1 H        0.926     0.039     2.462     2.454
    69   1 H        0.926     0.039     2.457     2.451
    70   1 H        0.925     0.036     2.509     2.477
    71   1 H        0.925     0.036     2.504     2.475
    72   1 H        0.925     0.037     2.495     2.470
    73   1 H        0.925     0.032     2.552     2.498
    74   1 H        0.925     0.038     2.480     2.463
    75   1 H        0.925     0.036     2.509     2.477
    76   1 H        0.925     0.035     2.515     2.480
    77   1 H        0.925     0.038     2.478     2.462
    78   1 H        0.925     0.032     2.560     2.502
    79   1 H        0.926     0.030     2.582     2.513
    80   1 H        0.926     0.022     2.703     2.571
    81   1 H        0.926     0.052     2.293     2.368
    82   1 H        0.926     0.040     2.449     2.447
    83   1 H        0.926     0.048     2.342     2.393
    84   1 H        0.926     0.050     2.324     2.384
    85   1 H        0.926     0.047     2.353     2.399
    86   1 H        0.926     0.046     2.375     2.410
    87   1 H        0.926     0.054     2.268     2.355
    88   1 H        0.926     0.024     2.679     2.560
    89   1 H        0.926     0.031     2.573     2.508
    90   1 H        0.925     0.035     2.511     2.478
    91   1 H        0.925     0.036     2.504     2.475
    92   1 H        0.925     0.037     2.493     2.469
    93   1 H        0.925     0.032     2.561     2.503
    94   1 H        0.925     0.038     2.477     2.461
    95   1 H        0.925     0.035     2.511     2.478
    96   1 H        0.925     0.032     2.552     2.498
    97   1 H        0.925     0.036     2.505     2.475
    98   1 H        0.925     0.038     2.477     2.461
    99   1 H        0.926     0.040     2.455     2.450
   100   1 H        0.926     0.040     2.448     2.447
   101   1 H        0.925     0.035     2.513     2.479
   102   1 H        0.925     0.038     2.473     2.459
   103   1 H        0.925     0.033     2.550     2.497
   104   1 H        0.925     0.036     2.501     2.473
   105   1 H        0.925     0.036     2.506     2.476
   106   1 H        0.925     0.037     2.490     2.468
   107   1 H        0.925     0.035     2.516     2.480
   108   1 H        0.925     0.032     2.560     2.502
   109   1 H        0.925     0.038     2.476     2.461
   110   1 H        0.926     0.030     2.584     2.514
   111   1 H        0.926     0.023     2.695     2.567
   112   1 H        0.926     0.058     2.218     2.329

molecular dipole:
                 x           y           z       tot (Debye)
 q only:        1.095       0.268      -1.262
   full:        1.135       0.161      -1.181       4.185

 projected vibrational frequencies (cm⁻¹)
eigval :       -0.00    -0.00     0.00     0.00     0.00     0.00
eigval :        5.52     8.28    11.51    14.48    20.41    25.24
eigval :       27.88    31.52    33.15    36.40    39.14    45.31
eigval :       59.63    61.42    63.99    70.25    75.25    79.05
eigval :       87.40   102.39   109.16   126.67   142.33   156.14
eigval :      158.96   161.14   173.70   179.06   181.92   186.15
eigval :      197.31   200.75   201.49   204.20   217.49   220.08
eigval :      224.47   225.49   226.26   231.62   235.62   237.60
eigval :      246.07   257.67   259.53   270.40   282.14   284.07
eigval :      292.74   312.64   313.66   317.75   318.82   324.84
eigval :      332.01   336.51   338.42   344.50   351.33   358.89
eigval :      359.58   361.99   367.82   369.49   372.60   380.64
eigval :      393.80   397.38   403.63   409.52   410.71   431.51
eigval :      439.02   439.79   440.81   442.43   452.91   460.61
eigval :      462.71   464.70   465.34   469.49   473.44   516.12
eigval :      519.96   542.55   560.47   574.90   576.48   583.57
eigval :      584.36   586.06   594.14   600.25   619.48   638.18
eigval :      639.87   640.74   645.00   661.57   668.29   669.30
eigval :      687.15   687.26   701.88   706.44   707.54   711.42
eigval :      718.07   721.19   765.34   778.17   781.74   811.58
eigval :      815.64   818.66   821.89   830.67   832.11   845.80
eigval :      867.55   870.10   870.46   872.32   872.75   876.45
eigval :      878.76   891.17   892.89   900.85   907.46   910.97
eigval :      913.57   914.85   919.70   925.13   926.26   930.28
eigval :      931.16   934.22   936.95   958.01   958.62   959.30
eigval :      960.08   961.00   961.13   961.57   961.64   962.06
eigval :      962.49   963.06   963.51   977.36   993.97  1027.43
eigval :     1029.10  1032.29  1034.38  1034.41  1034.83  1034.91
eigval :     1035.27  1036.36  1038.62  1042.52  1047.15  1079.30
eigval :     1112.82  1117.24  1118.13  1125.70  1129.15  1134.01
eigval :     1140.01  1163.07  1171.15  1176.57  1179.48  1187.67
eigval :     1190.60  1217.24  1225.23  1225.36  1225.52  1225.69
eigval :     1226.08  1227.81  1229.31  1230.39  1230.62  1234.47
eigval :     1235.63  1237.76  1240.05  1250.26  1253.76  1267.95
eigval :     1276.14  1282.14  1282.84  1295.63  1306.33  1307.05
eigval :     1308.76  1318.30  1321.30  1341.51  1344.99  1345.83
eigval :     1355.66  1358.40  1389.88  1399.36  1399.97  1401.63
eigval :     1401.66  1401.89  1402.73  1402.90  1403.19  1410.45
eigval :     1410.84  1425.71  1426.90  1426.96  1427.00  1427.05
eigval :     1430.75  1431.24  1451.26  1458.08  1460.94  1480.90
eigval :     1481.43  1483.00  1483.43  1489.27  1489.34  1489.78
eigval :     1489.78  1491.58  1491.63  1491.84  1492.21  1498.36
eigval :     1498.69  1498.86  1499.14  1502.37  1502.89  1503.16
eigval :     1503.24  1510.68  1511.25  1511.54  1512.07  1516.89
eigval :     1517.76  1517.79  1518.74  1559.13  1561.58  1569.74
eigval :     1571.27  1577.09  1581.48  1582.46  1587.65  1603.97
eigval :     1604.56  1615.44  1616.31  1663.60  3017.63  3018.38
eigval :     3018.57  3019.20  3019.44  3019.51  3019.55  3019.97
eigval :     3022.52  3022.66  3022.74  3023.18  3024.22  3024.33
eigval :     3024.47  3024.75  3026.37  3026.44  3026.57  3027.01
eigval :     3029.97  3030.07  3030.10  3030.97  3034.40  3034.99
eigval :     3035.32  3035.53  3042.94  3043.04  3043.52  3043.99
eigval :     3046.26  3046.34  3046.74  3047.53  3074.52  3075.93
eigval :     3078.64  3080.62  3083.59  3083.68  3086.13  3089.22
eigval :     3089.51  3092.81  3096.73  3096.84  3098.91  3101.97
eigval :     3102.14  3103.29  3115.05  3115.77  3118.24  3118.66

   temp. (K)  partition function   enthalpy   heat capacity  entropy
                                   cal/mol     cal/K/mol   cal/K/mol   J/K/mol
 298.15  VIB  0.844E+26            32381.029    196.899    202.293
         ROT  0.158E+09              888.752      2.981     40.493
         INT  0.133E+35            33269.781    199.880    242.786
         TR   0.194E+29             1481.254      4.968     45.651
         TOT                       34751.0348   204.8477   288.4372  1206.8213

       T/K    H(0)-H(T)+PV         H(T)/Eh          T*S/Eh         G(T)/Eh
   ------------------------------------------------------------------------
    298.15    0.553793E-01    0.987681E+00    0.137046E+00    0.850635E+00
   ------------------------------------------------------------------------

         :::::::::::::::::::::::::::::::::::::::::::::::::::::
         ::                  THERMODYNAMIC                  ::
         :::::::::::::::::::::::::::::::::::::::::::::::::::::
         :: total free energy        -151.303735710203 Eh   ::
         ::.................................................::
         :: total energy             -152.154370953061 Eh   ::
         :: zero point energy           0.932301772038 Eh   ::
         :: G(RRHO) w/o ZPVE           -0.081666529180 Eh   ::
         :: G(RRHO) contrib.            0.850635242858 Eh   ::
         :::::::::::::::::::::::::::::::::::::::::::::::::::::

           -------------------------------------------------
          | TOTAL ENERGY             -152.154370953061 Eh   |
          | TOTAL ENTHALPY           -151.166689881961 Eh   |
          | TOTAL FREE ENERGY        -151.303735710203 Eh   |
          | GRADIENT NORM               0.000042185528 Eh/α |
          | HOMO-LUMO GAP               1.716395855815 eV   |
           -------------------------------------------------

 * finished run on 2025/09/08 at 04:58:52.361
