   * xtb version 6.7.1 (edcfbbe) compiled by 'albert@albert-system' on 2024-07-22

   ID    Z sym.   atoms
    1    6 C      1-20, 22-25, 27-34, 36-56
    2    7 N      21, 35
    3    8 O      26
    4    1 H      57-112

          program call               : xtb data2507/toluene/BP-mDTC/BP-mDTC.xyz --gfn 2 --gbsa toluene --ohess vtight --parallel 40 --molden --ceasefiles --namespace data2507/toluene/BP-mDTC/BP-mDTC_toluene_S0_preOpt
      * Solvation model:               GBSA
        Solvent                        toluene
        Solvent mass                       9.2140E+01 g/mol
          :  Hamiltonian                  GFN2-xTB          :
 * total energy  :  -152.1300884 Eh     change       -0.1191873E-07 Eh
 * total energy  :  -152.1455976 Eh     change       -0.1550917E-01 Eh
 * total energy  :  -152.1501327 Eh     change       -0.4535172E-02 Eh
 * total energy  :  -152.1515376 Eh     change       -0.1404842E-02 Eh
 * total energy  :  -152.1523278 Eh     change       -0.7901889E-03 Eh
 * total energy  :  -152.1525709 Eh     change       -0.2431261E-03 Eh
 * total energy  :  -152.1527049 Eh     change       -0.1340665E-03 Eh
 * total energy  :  -152.1528268 Eh     change       -0.1218557E-03 Eh
 * total energy  :  -152.1529276 Eh     change       -0.1007793E-03 Eh
 * total energy  :  -152.1529963 Eh     change       -0.6870764E-04 Eh
 * total energy  :  -152.1532664 Eh     change       -0.7919719E-06 Eh
 * total energy  :  -152.1532672 Eh     change       -0.7428642E-06 Eh
 * total energy  :  -152.1532678 Eh     change       -0.6287944E-06 Eh
 * total energy  :  -152.1532683 Eh     change       -0.5476729E-06 Eh
 * total energy  :  -152.1532689 Eh     change       -0.5181654E-06 Eh
 * total energy  :  -152.1532694 Eh     change       -0.5589152E-06 Eh
 * total energy  :  -152.1532701 Eh     change       -0.6644952E-06 Eh
 * total energy  :  -152.1532709 Eh     change       -0.7610606E-06 Eh
 * total energy  :  -152.1532709 Eh     change       -0.2562217E-08 Eh
   *** GEOMETRY OPTIMIZATION CONVERGED AFTER 68 ITERATIONS ***

 final structure:
================
112
 xtb: 6.7.1 (edcfbbe)
C            7.61933355632535        1.45079299417010       -2.64411718297277
C            7.42033573269461       -0.00608633400663       -2.19951976491984
C            8.43068889998493       -0.35479140443151       -1.09603930859685
C            7.70154536670405       -0.91235383981037       -3.40206139624139
C            6.00886363896899       -0.16997792412541       -1.65086037823575
C            5.07652908589664       -1.03981557964209       -2.22245488472960
C            3.79588062725989       -1.19789528651144       -1.72218155693489
C            3.43275177851845       -0.47005876918351       -0.60168323481437
C            4.34526590787243        0.43905752830102       -0.02468081308044
C            5.62085904309214        0.57931906899683       -0.54728167801992
C            3.65624983997961        1.07404867693521        1.06679728473853
C            4.03491676263884        2.03040119843313        1.99518567097645
C            3.13793086354924        2.45076421259098        2.96914385022120
C            3.57120699287805        3.51968123680907        3.96396694714728
C            4.77600135620843        3.00271842982042        4.76430527709040
C            3.96571449005611        4.78846464034953        3.19262280837208
C            2.46606334695289        3.89465089734352        4.95617769557177
C            1.86996110195538        1.86444021208375        2.99977092855121
C            1.46674484488621        0.90577699403756        2.08658597559541
C            2.35682516596463        0.52373427935560        1.09713132083168
N            2.22950101877214       -0.41290337144782        0.08368791360501
C            1.08576691347871       -1.15620614884537       -0.21488748808071
C            1.18602477219880       -2.52446874268685       -0.45494317213748
C            0.04837910024995       -3.25400518895200       -0.78455052859124
C            0.12622964050393       -4.70331463608421       -1.10506160633912
O           -0.60486284420910       -5.20479392933028       -1.94459035278355
C            1.12555622441790       -5.50836640160133       -0.36553213058258
C            1.69668030737791       -6.61304689420028       -0.99719583485131
C            2.61883755363131       -7.39835895661539       -0.33240061568009
C            2.96323887387155       -7.10200359447639        0.97751919100303
C            2.38055961159753       -6.02121560260188        1.62122593547270
C            1.46887421217846       -5.22235426089107        0.95573970114065
C           -1.18727385684536       -2.62173872998470       -0.87158693602215
C           -1.30016581625669       -1.26525092840178       -0.58248334354057
N           -2.54645343946710       -0.63863731127633       -0.62149810878833
C           -3.71273044949767       -1.12584253837068       -0.05427653039910
C           -3.93760413669318       -2.26945150132116        0.69627951369262
C           -5.21464272208539       -2.49541773620099        1.16960822899787
C           -6.28149079779369       -1.61716666984461        0.93663934333971
C           -7.65588647340006       -1.96471048746843        1.49225978314065
C           -8.70874123475514       -0.90086107897426        1.16599578605718
C           -8.11980687147409       -3.29654186131391        0.88350189326714
C           -7.56796507718553       -2.09378773733481        3.02045576179184
C           -6.03667287429182       -0.46132818356736        0.21307737929246
C           -4.76206345554230       -0.21143081287340       -0.27929148702533
C           -4.20039815389235        0.87989408596899       -1.02833023224606
C           -4.74615368384302        2.04699742984947       -1.54727577870408
C           -3.94595864217893        2.92328813453512       -2.26228029750602
C           -4.47119159589657        4.22889772759994       -2.84378880384914
C           -3.67867752519060        5.40002533688654       -2.24344293302399
C           -5.95522086766961        4.45446509416691       -2.53796200397867
C           -4.29705386973450        4.21135193919916       -4.36975276256845
C           -2.60088307973755        2.58465275206208       -2.46159853620805
C           -2.03341986173076        1.43025858049513       -1.95987659610629
C           -2.83562611834718        0.57883062257571       -1.21580616130074
C           -0.15916882973750       -0.53452092275217       -0.26170363595818
H            7.49736258792477        2.13935151556639       -1.81242821238762
H            8.61846086088882        1.58479606132065       -3.05387665832131
H            6.89330583170450        1.71232503528062       -3.41170559540057
H            8.28117067031819       -1.37904867887419       -0.75946190409643
H            8.32518606390606        0.30381904919878       -0.23836955185054
H            9.44654992652757       -0.26022683452604       -1.47444159787241
H            7.59031430685078       -1.96140552647551       -3.13668514957437
H            8.72481577990782       -0.75805516053533       -3.73932510687625
H            7.03738679363178       -0.68091187416354       -4.23182897582827
H            5.34240110750517       -1.61821724786066       -3.09180738067474
H            3.10376987981421       -1.86678434554354       -2.21184964010917
H            6.29899653987820        1.28052839245749       -0.08608841447469
H            5.03346121252517        2.43644492375923        1.94737966350485
H            4.50930643218095        2.09415333154090        5.30104304981198
H            5.61691327846273        2.77865666295625        4.11368097901566
H            5.09444485451700        3.75045471256032        5.48792745036818
H            3.12334238888671        5.14725131633565        2.60400591149098
H            4.79616972076213        4.60105004713632        2.51761724673638
H            4.26137796147391        5.57301268236425        3.88630410120575
H            1.59103601758184        4.28303065048373        4.43959137228657
H            2.83122157878962        4.67006900738507        5.62699619462923
H            2.17399568170744        3.03937586327390        5.56144131517559
H            1.16162392409662        2.15386108947335        3.75834381824345
H            0.48324553566293        0.46704772687001        2.16404611574750
H            2.14693116446079       -3.01008593907912       -0.39362873573236
H            1.40981929968169       -6.83203816835134       -2.01570252211267
H            3.06570582983681       -8.24423533490164       -0.83316861802202
H            3.68009029346297       -7.71829242124661        1.49947730472647
H            2.63795504546548       -5.79991837798963        2.64638609650867
H            1.00287969668831       -4.39209717825166        1.46544064711387
H           -2.05113038109646       -3.19513048205673       -1.17062278619842
H           -3.14314621839707       -2.96642054451262        0.91806549817979
H           -5.38360354836627       -3.39239961699070        1.74591794112164
H           -8.82999912081854       -0.78668164076154        0.09110149897314
H           -8.44148470624738        0.05995403828570        1.60022473492194
H           -9.66842704728636       -1.20210201785796        1.58165890794364
H           -7.43881200282921       -4.10580231208272        1.13291041132245
H           -8.17030172641077       -3.21699786072359       -0.20090338796584
H           -9.10833632008202       -3.55573798982465        1.25734607106052
H           -6.89474815453624       -2.89450502498868        3.31411576669182
H           -8.55102499831789       -2.30763717944789        3.43504865533654
H           -7.20366738176604       -1.16502285711435        3.45549697798078
H           -6.81352161621781        0.25953143150112        0.02084054461834
H           -5.79228317055496        2.24362434528753       -1.38287637998346
H           -2.62186287385271        5.33031972876406       -2.48618439753685
H           -4.05528324581384        6.34468383879950       -2.63055781556289
H           -3.77966156079818        5.40581819576803       -1.15970078788805
H           -6.56826465428555        3.66696744859268       -2.97057567140960
H           -6.27361314623144        5.40199069090210       -2.96849884347632
H           -6.13162029408374        4.49697377010833       -1.46546668764674
H           -4.68625252664065        5.13137791962317       -4.80130410244021
H           -3.25119697763891        4.12069015648415       -4.65006668121544
H           -4.83888891611196        3.37145101763957       -4.80067560338739
H           -1.96801741937898        3.24513283032424       -3.03467702904246
H           -0.99761414719447        1.20130317715714       -2.16123931818090
H           -0.23968146335376        0.52089924955993       -0.05537183451262

          :  Hamiltonian                  GFN2-xTB          :
         :: gradient norm              0.000041205190 Eh/a0 ::
         :: HOMO-LUMO gap              1.725559234099 eV    ::
         :: SCC energy              -154.778679288645 Eh    ::
         :: -> dispersion             -0.139175426178 Eh    ::
         :: -> Gsolv                  -0.061704943671 Eh    ::
         :: repulsion energy           2.625408434688 Eh    ::

    * Orbital Energies and Occupations

         #    Occupation            Energy/Eh            Energy/eV
      -------------------------------------------------------------
         1        2.0000           -0.7149137             -19.4538
       ...           ...                  ...                  ...
       130        2.0000           -0.4155959             -11.3089
       131        2.0000           -0.4133636             -11.2482
       132        2.0000           -0.4087996             -11.1240
       133        2.0000           -0.4081755             -11.1070
       134        2.0000           -0.4077384             -11.0951
       135        2.0000           -0.4062372             -11.0543
       136        2.0000           -0.3990180             -10.8578
       137        2.0000           -0.3961970             -10.7811
       138        2.0000           -0.3955745             -10.7641
       139        2.0000           -0.3754720             -10.2171
       140        2.0000           -0.3732702             -10.1572
       141        2.0000           -0.3591992              -9.7743
       142        2.0000           -0.3588510              -9.7648 (HOMO)
       143                         -0.2954379              -8.0393 (LUMO)
       144                         -0.2488444              -6.7714
       145                         -0.2453513              -6.6763
       146                         -0.2399589              -6.5296
       147                         -0.2379337              -6.4745
       148                         -0.2358318              -6.4173
       149                         -0.2193991              -5.9702
       150                         -0.2174939              -5.9183
       151                         -0.2033496              -5.5334
       152                         -0.1870247              -5.0892
       153                         -0.1860185              -5.0618
       ...                                ...                  ...
       280                          0.7451689              20.2771
      -------------------------------------------------------------
                  HL-Gap            0.0634131 Eh            1.7256 eV

     #   Z          covCN         q      C6AA      α(0)
     1   6 C        3.761    -0.105    22.543     6.768
     2   6 C        3.902     0.025    20.099     6.373
     3   6 C        3.761    -0.105    22.548     6.769
     4   6 C        3.761    -0.107    22.584     6.775
     5   6 C        2.972    -0.002    28.062     8.689
     6   6 C        2.928    -0.044    29.103     8.847
     7   6 C        2.909    -0.055    29.373     8.887
     8   6 C        3.071     0.043    26.967     8.515
     9   6 C        3.063    -0.019    28.415     8.741
    10   6 C        2.920    -0.040    29.001     8.831
    11   6 C        3.064    -0.019    28.415     8.741
    12   6 C        2.920    -0.040    28.998     8.831
    13   6 C        2.972    -0.001    28.059     8.689
    14   6 C        3.902     0.025    20.099     6.373
    15   6 C        3.761    -0.105    22.545     6.769
    16   6 C        3.761    -0.105    22.546     6.769
    17   6 C        3.761    -0.107    22.587     6.775
    18   6 C        2.928    -0.044    29.099     8.847
    19   6 C        2.909    -0.055    29.373     8.887
    20   6 C        3.070     0.043    26.964     8.514
    21   7 N        2.800    -0.047    22.149     6.990
    22   6 C        2.909     0.070    26.425     8.429
    23   6 C        2.923    -0.050    29.230     8.866
    24   6 C        2.971    -0.012    28.300     8.726
    25   6 C        2.829     0.229    23.196     7.892
    26   8 O        0.858    -0.414    21.954     6.282
    27   6 C        2.972    -0.014    28.346     8.733
    28   6 C        2.924    -0.016    28.421     8.743
    29   6 C        2.917    -0.025    28.633     8.775
    30   6 C        2.920    -0.020    28.513     8.756
    31   6 C        2.918    -0.025    28.638     8.775
    32   6 C        2.921    -0.025    28.625     8.774
    33   6 C        2.927    -0.040    29.002     8.832
    34   6 C        2.909     0.071    26.420     8.428
    35   7 N        2.801    -0.047    22.149     6.990
    36   6 C        3.074     0.043    26.958     8.513
    37   6 C        2.909    -0.054    29.346     8.883
    38   6 C        2.931    -0.040    28.997     8.831
    39   6 C        2.972    -0.002    28.065     8.690
    40   6 C        3.902     0.025    20.100     6.373
    41   6 C        3.761    -0.107    22.588     6.775
    42   6 C        3.761    -0.104    22.541     6.768
    43   6 C        3.761    -0.105    22.548     6.769
    44   6 C        2.918    -0.045    29.117     8.849
    45   6 C        3.065    -0.020    28.434     8.744
    46   6 C        3.066    -0.020    28.431     8.743
    47   6 C        2.918    -0.045    29.114     8.848
    48   6 C        2.972    -0.002    28.062     8.689
    49   6 C        3.902     0.025    20.100     6.373
    50   6 C        3.761    -0.105    22.548     6.769
    51   6 C        3.761    -0.107    22.587     6.775
    52   6 C        3.761    -0.105    22.546     6.769
    53   6 C        2.931    -0.040    28.997     8.831
    54   6 C        2.908    -0.055    29.357     8.884
    55   6 C        3.073     0.043    26.963     8.514
    56   6 C        2.926    -0.058    29.429     8.896
    57   1 H        0.925     0.036     2.500     2.472
    58   1 H        0.925     0.038     2.476     2.461
    59   1 H        0.925     0.032     2.562     2.503
    60   1 H        0.925     0.032     2.555     2.499
    61   1 H        0.925     0.036     2.496     2.471
    62   1 H        0.925     0.038     2.478     2.462
    63   1 H        0.925     0.035     2.515     2.480
    64   1 H        0.925     0.037     2.488     2.467
    65   1 H        0.925     0.035     2.520     2.482
    66   1 H        0.926     0.037     2.484     2.465
    67   1 H        0.926     0.023     2.685     2.562
    68   1 H        0.926     0.032     2.558     2.501
    69   1 H        0.926     0.032     2.563     2.504
    70   1 H        0.925     0.032     2.556     2.500
    71   1 H        0.925     0.036     2.502     2.474
    72   1 H        0.925     0.038     2.478     2.462
    73   1 H        0.925     0.032     2.557     2.501
    74   1 H        0.925     0.036     2.501     2.473
    75   1 H        0.925     0.038     2.481     2.463
    76   1 H        0.925     0.035     2.512     2.479
    77   1 H        0.925     0.037     2.491     2.468
    78   1 H        0.925     0.035     2.514     2.479
    79   1 H        0.926     0.038     2.470     2.458
    80   1 H        0.926     0.026     2.641     2.542
    81   1 H        0.926     0.054     2.274     2.358
    82   1 H        0.926     0.046     2.371     2.408
    83   1 H        0.926     0.047     2.357     2.401
    84   1 H        0.926     0.049     2.331     2.387
    85   1 H        0.926     0.048     2.346     2.395
    86   1 H        0.926     0.043     2.405     2.425
    87   1 H        0.926     0.055     2.263     2.353
    88   1 H        0.926     0.023     2.688     2.564
    89   1 H        0.926     0.030     2.586     2.515
    90   1 H        0.925     0.036     2.506     2.475
    91   1 H        0.925     0.036     2.500     2.473
    92   1 H        0.925     0.037     2.491     2.468
    93   1 H        0.925     0.035     2.518     2.482
    94   1 H        0.925     0.032     2.560     2.502
    95   1 H        0.925     0.038     2.475     2.460
    96   1 H        0.925     0.035     2.512     2.479
    97   1 H        0.925     0.038     2.474     2.460
    98   1 H        0.925     0.033     2.549     2.497
    99   1 H        0.926     0.040     2.448     2.447
   100   1 H        0.926     0.040     2.451     2.448
   101   1 H        0.925     0.036     2.507     2.476
   102   1 H        0.925     0.038     2.476     2.461
   103   1 H        0.925     0.033     2.551     2.498
   104   1 H        0.925     0.036     2.509     2.477
   105   1 H        0.925     0.037     2.492     2.469
   106   1 H        0.925     0.036     2.502     2.474
   107   1 H        0.925     0.038     2.476     2.461
   108   1 H        0.925     0.035     2.512     2.478
   109   1 H        0.925     0.032     2.559     2.502
   110   1 H        0.926     0.031     2.574     2.509
   111   1 H        0.926     0.025     2.654     2.547
   112   1 H        0.926     0.059     2.205     2.322

molecular dipole:
                 x           y           z       tot (Debye)
 q only:        1.002       0.738       1.189
   full:        1.063       0.606       1.170       4.303

 projected vibrational frequencies (cm⁻¹)
eigval :       -0.00    -0.00    -0.00    -0.00     0.00     0.00
eigval :        5.92     8.47    11.62    12.69    20.40    25.32
eigval :       29.92    31.92    36.65    37.52    42.61    45.90
eigval :       58.52    62.71    65.63    71.13    74.03    86.70
eigval :       87.27   102.69   111.36   126.88   144.64   153.73
eigval :      155.24   160.04   171.40   178.23   178.84   183.62
eigval :      185.72   196.90   200.87   204.26   215.50   219.75
eigval :      220.39   222.69   227.17   232.53   238.29   251.10
eigval :      258.06   261.44   269.27   274.63   283.66   291.61
eigval :      308.25   309.14   314.62   317.47   318.13   322.03
eigval :      326.69   331.58   337.04   342.69   350.91   354.57
eigval :      359.30   365.72   368.19   370.13   373.27   381.08
eigval :      394.52   398.91   405.05   410.07   412.24   431.47
eigval :      439.67   440.70   442.70   444.42   457.11   460.30
eigval :      461.26   462.97   466.27   470.46   477.98   512.41
eigval :      521.04   540.06   569.52   572.72   576.71   582.36
eigval :      584.28   585.87   590.62   601.30   621.49   636.07
eigval :      639.11   639.70   640.27   662.19   667.88   673.73
eigval :      685.94   688.13   699.68   706.20   708.11   709.75
eigval :      718.37   722.11   764.63   778.29   781.20   815.21
eigval :      818.92   820.06   821.00   830.70   833.56   851.71
eigval :      868.48   871.42   872.75   873.73   877.56   878.64
eigval :      883.18   892.76   895.51   900.57   910.45   912.35
eigval :      914.71   917.45   922.44   923.79   925.72   929.96
eigval :      931.93   934.07   934.40   958.11   958.76   958.95
eigval :      959.48   960.27   961.19   961.40   961.62   962.42
eigval :      962.48   962.70   963.53   977.37   994.52  1027.76
eigval :     1032.03  1033.10  1033.64  1034.03  1034.74  1034.77
eigval :     1035.55  1035.96  1038.02  1043.82  1048.29  1077.69
eigval :     1113.91  1117.59  1118.47  1129.50  1130.54  1140.17
eigval :     1142.76  1163.84  1176.55  1177.50  1180.26  1187.74
eigval :     1193.75  1216.99  1225.01  1225.20  1225.67  1225.69
eigval :     1225.77  1226.81  1229.39  1229.97  1231.17  1234.91
eigval :     1235.90  1239.89  1244.27  1251.83  1254.30  1268.84
eigval :     1274.17  1283.31  1284.28  1294.75  1301.22  1305.17
eigval :     1305.82  1320.72  1322.55  1337.67  1344.82  1348.85
eigval :     1356.00  1362.75  1390.13  1399.72  1400.21  1401.73
eigval :     1401.91  1402.30  1402.49  1402.61  1403.59  1410.14
eigval :     1410.97  1426.27  1426.39  1426.55  1427.03  1427.24
eigval :     1430.83  1432.39  1451.67  1457.20  1461.07  1473.14
eigval :     1473.38  1480.94  1482.91  1488.69  1489.08  1489.17
eigval :     1489.55  1491.57  1492.31  1492.66  1493.17  1499.05
eigval :     1499.32  1499.81  1500.76  1502.24  1502.41  1502.72
eigval :     1502.75  1511.46  1511.72  1512.11  1512.87  1517.71
eigval :     1517.86  1518.11  1518.62  1559.92  1562.99  1570.40
eigval :     1572.50  1576.36  1580.69  1584.18  1587.01  1603.29
eigval :     1604.19  1614.90  1618.00  1657.89  3018.06  3018.55
eigval :     3018.64  3018.67  3018.90  3019.24  3019.27  3019.38
eigval :     3022.18  3022.50  3022.75  3022.93  3023.72  3024.17
eigval :     3024.23  3024.37  3025.94  3026.29  3026.42  3026.69
eigval :     3029.70  3029.90  3030.41  3030.52  3034.90  3035.19
eigval :     3035.29  3035.39  3043.34  3043.53  3043.91  3044.11
eigval :     3046.78  3047.07  3047.24  3047.84  3075.18  3076.80
eigval :     3077.50  3077.85  3078.82  3079.50  3083.85  3087.44
eigval :     3089.59  3089.83  3090.10  3090.77  3096.54  3103.96
eigval :     3108.35  3112.56  3115.83  3116.56  3117.43  3118.76

   temp. (K)  partition function   enthalpy   heat capacity  entropy
                                   cal/mol     cal/K/mol   cal/K/mol   J/K/mol
 298.15  VIB  0.581E+26            32329.263    196.998    201.969
         ROT  0.159E+09              888.752      2.981     40.509
         INT  0.923E+34            33218.015    199.979    242.478
         TR   0.194E+29             1481.254      4.968     45.651
         TOT                       34699.2694   204.9470   288.1292  1205.5326

       T/K    H(0)-H(T)+PV         H(T)/Eh          T*S/Eh         G(T)/Eh
   ------------------------------------------------------------------------
    298.15    0.552968E-01    0.987819E+00    0.136899E+00    0.850919E+00
   ------------------------------------------------------------------------

         :::::::::::::::::::::::::::::::::::::::::::::::::::::
         ::                  THERMODYNAMIC                  ::
         :::::::::::::::::::::::::::::::::::::::::::::::::::::
         :: total free energy        -151.302351777717 Eh   ::
         ::.................................................::
         :: total energy             -152.153270857799 Eh   ::
         :: zero point energy           0.932521758494 Eh   ::
         :: G(RRHO) w/o ZPVE           -0.081602678412 Eh   ::
         :: G(RRHO) contrib.            0.850919080082 Eh   ::
         :::::::::::::::::::::::::::::::::::::::::::::::::::::

           -------------------------------------------------
          | TOTAL ENERGY             -152.153270857799 Eh   |
          | TOTAL ENTHALPY           -151.165452293756 Eh   |
          | TOTAL FREE ENERGY        -151.302351777717 Eh   |
          | GRADIENT NORM               0.000041206236 Eh/α |
          | HOMO-LUMO GAP               1.725559348051 eV   |
           -------------------------------------------------

 * finished run on 2025/09/08 at 04:39:04.517
