   * xtb version 6.7.1 (edcfbbe) compiled by 'albert@albert-system' on 2024-07-22

   ID    Z sym.   atoms
    1    7 N      1, 9, 24, 26, 32
    2    6 C      2-8, 10-23, 25, 27-31, 33-46
    3    1 H      47-75

          program call               : xtb data2507/gas/TPAPm/TPAPm_gas_S0_crest.xyz --gfn 2 --ohess vtight --parallel 40 --molden --ceasefiles --namespace data2507/gas/TPAPm/TPAPm_gas_S0_finalOpt
          :  Hamiltonian                  GFN2-xTB          :
 * total energy  :  -117.1683750 Eh     change       -0.8734702E-09 Eh
 * total energy  :  -117.1683760 Eh     change       -0.9303975E-06 Eh
 * total energy  :  -117.1683769 Eh     change       -0.9042503E-06 Eh
 * total energy  :  -117.1683782 Eh     change       -0.1384505E-05 Eh
 * total energy  :  -117.1683793 Eh     change       -0.1079445E-05 Eh
 * total energy  :  -117.1683807 Eh     change       -0.1408048E-05 Eh
 * total energy  :  -117.1683815 Eh     change       -0.7804239E-06 Eh
 * total energy  :  -117.1683821 Eh     change       -0.5650343E-06 Eh
 * total energy  :  -117.1683827 Eh     change       -0.5822933E-06 Eh
 * total energy  :  -117.1683833 Eh     change       -0.6215930E-06 Eh
 * total energy  :  -117.1683847 Eh     change       -0.2319278E-06 Eh
 * total energy  :  -117.1683850 Eh     change       -0.3065392E-06 Eh
 * total energy  :  -117.1683853 Eh     change       -0.2200946E-06 Eh
 * total energy  :  -117.1683855 Eh     change       -0.2596429E-06 Eh
 * total energy  :  -117.1683859 Eh     change       -0.3558186E-06 Eh
 * total energy  :  -117.1683863 Eh     change       -0.4607305E-06 Eh
 * total energy  :  -117.1683869 Eh     change       -0.5144817E-06 Eh
 * total energy  :  -117.1683874 Eh     change       -0.5380606E-06 Eh
 * total energy  :  -117.1683874 Eh     change       -0.1603131E-07 Eh
   *** GEOMETRY OPTIMIZATION CONVERGED AFTER 22 ITERATIONS ***

 final structure:
================
75
 xtb: 6.7.1 (edcfbbe)
N            0.01168189236570        1.28596548034018       -0.71895363320944
C            0.00530191311645        0.17042235540331       -0.44162635382725
C            0.00028585300593       -1.21589894884445       -0.20579075957440
C            1.20364498126835       -1.95530739834754       -0.15808168449831
C            2.51917941579890       -1.33433075721354       -0.08434777763535
C            2.73682316486272       -0.11793443812748        0.56515881999115
C            3.99689224671719        0.43179131208026        0.62173844929140
C            5.08529267069754       -0.21058215739730        0.02226273514521
N            6.35150941030539        0.35577846087350        0.06316079831965
C            7.49542810120886       -0.45656533683066        0.09838602419446
C            7.51634122454668       -1.61738951048456        0.86993444598496
C            8.64891565825043       -2.40776881241657        0.90391508454350
C            9.77533868932360       -2.05095621558130        0.18080344598119
C            9.76079610539210       -0.89485690540045       -0.58216712549217
C            8.63036063979086       -0.10202774329800       -0.62890169791613
C            6.50875895325925        1.75073825839069        0.07061644100174
C            5.68753801350105        2.56138378978423       -0.71141506911694
C            5.85329792272327        3.93287572595712       -0.69994892106884
C            6.84084128553543        4.51399450248905        0.07860786492210
C            7.66335775711284        3.71134527831386        0.85185271739641
C            7.49985463567535        2.33945985526657        0.85408496504037
C            4.87069184573835       -1.43998080192416       -0.61143864190108
C            3.61333927018083       -1.99364220713163       -0.65155992113278
N            1.17481182546215       -3.28809125336172       -0.19614897232979
C           -0.00253621809710       -3.87329760280421       -0.24845789385509
N           -1.17805450788232       -3.28524014506484       -0.19245003090758
C           -1.20490543217906       -1.95205490192226       -0.15580972785387
C           -2.51997891154367       -1.33036928037334       -0.08178603654631
C           -2.73455721753747       -0.10247832189208        0.54697632867972
C           -3.99452597713289        0.44782558604706        0.60105947490300
C           -5.08658843705372       -0.20677569051722        0.02196847387678
N           -6.35306542258262        0.35962636632696        0.06040940929984
C           -6.51104600046011        1.75408155859975        0.03163379634104
C           -7.49826267821927        2.36377725711133        0.80393883994498
C           -7.66280036980345        3.73496348277020        0.76447644213851
C           -6.84504717387283        4.51649738544123       -0.03501699099233
C           -5.86089961616661        3.91466329541886       -0.80202419189238
C           -5.69428343282912        2.54348385232707       -0.77642518529947
C           -7.49489252704813       -0.45350147416076        0.12718970587715
C           -8.63859129742969       -0.11933420202754       -0.59600003380293
C           -9.76614860712881       -0.91382998767395       -0.51821486946818
C           -9.76920220680566       -2.05163020642534        0.27192186423794
C           -8.63406628967032       -2.38819517924495        0.99109563808832
C           -7.50431264112800       -1.59576082537148        0.92625638065280
C           -4.87561414336564       -1.44828061994938       -0.58892158097471
C           -3.61793112629960       -2.00097085372957       -0.62869256378815
H            1.92279002054473        0.38564167569828        1.06387392774727
H            4.15289263430151        1.36354736013851        1.14440448788112
H            6.64268302175333       -1.89040887817242        1.44347997285593
H            8.65426753753974       -3.30381669616638        1.50674079072095
H           10.65936468254292       -2.66940482741342        0.21261986367074
H           10.63350552477956       -0.61147435849592       -1.15175034760850
H            8.61693807589150        0.79569605958498       -1.22948890893130
H            4.92354489189034        2.11016063641465       -1.32723593413962
H            5.21103659827309        4.55041976439826       -1.30993665164278
H            6.96905423331601        5.58569670213326        0.08233994997958
H            8.43337990281575        4.15634560687349        1.46461659966285
H            8.13637886860319        1.71469615508932        1.46356315608251
H            5.70049632942572       -1.94770362677202       -1.08016862896638
H            3.44701230936190       -2.93907734198081       -1.14387192079385
H           -0.00399965404679       -4.95402524048556       -0.32188083732861
H           -1.91794635367033        0.41089319023626        1.03106567553973
H           -4.14761381541726        1.38970626648527        1.10617900147267
H           -8.13122274610521        1.75603934530867        1.43398143801408
H           -8.43005626878500        4.19618311327794        1.36865346048544
H           -6.97428242330559        5.58777464878337       -0.06059520624008
H           -5.22216826337145        4.51546275546692       -1.43211395330406
H           -4.93319262344719        2.07587905827141       -1.38355458080060
H           -8.63437323895848        0.76381634987162       -1.21793608473541
H          -10.64575846304659       -0.64621245766209       -1.08479660848341
H          -10.65098065085074       -2.67157307914541        0.32779200400045
H           -8.63023147011418       -3.26977295326062        1.61490009948167
H           -6.62378728870312       -1.85281899067391        1.49666578131912
H           -5.70858065546927       -1.96594827671388       -1.04089305668525
H           -3.45422750065108       -2.95519405351506       -1.10460857262299

          :  Hamiltonian                  GFN2-xTB          :
         :: gradient norm              0.000147386603 Eh/a0 ::
         :: HOMO-LUMO gap              1.944468689845 eV    ::
         :: SCC energy              -119.365029595380 Eh    ::
         :: -> dispersion             -0.102220246496 Eh    ::
         :: repulsion energy           2.196642183149 Eh    ::

    * Orbital Energies and Occupations

         #    Occupation            Energy/Eh            Energy/eV
      -------------------------------------------------------------
         1        2.0000           -0.6822921             -18.5661
       ...           ...                  ...                  ...
        97        2.0000           -0.4135978             -11.2546
        98        2.0000           -0.4122161             -11.2170
        99        2.0000           -0.4121572             -11.2154
       100        2.0000           -0.4102700             -11.1640
       101        2.0000           -0.4097893             -11.1509
       102        2.0000           -0.4092524             -11.1363
       103        2.0000           -0.4088511             -11.1254
       104        2.0000           -0.4074638             -11.0877
       105        2.0000           -0.4057741             -11.0417
       106        2.0000           -0.3967384             -10.7958
       107        2.0000           -0.3676219             -10.0035
       108        2.0000           -0.3566551              -9.7051
       109        2.0000           -0.3554853              -9.6732 (HOMO)
       110                         -0.2840275              -7.7288 (LUMO)
       111                         -0.2812794              -7.6540
       112                         -0.2348427              -6.3904
       113                         -0.2347807              -6.3887
       114                         -0.2328016              -6.3349
       115                         -0.2320352              -6.3140
       116                         -0.2317754              -6.3069
       117                         -0.2269298              -6.1751
       118                         -0.2265373              -6.1644
       119                         -0.2255619              -6.1379
       120                         -0.2253926              -6.1332
       ...                                ...                  ...
       213                          1.1668325              31.7511
      -------------------------------------------------------------
                  HL-Gap            0.0714579 Eh            1.9445 eV

     #   Z          covCN         q      C6AA      α(0)
     1   7 N        0.911    -0.256    26.654     7.467
     2   6 C        1.905     0.111    28.358     8.600
     3   6 C        2.962    -0.024    28.595     8.771
     4   6 C        2.979     0.117    25.424     8.271
     5   6 C        2.980    -0.007    28.182     8.708
     6   6 C        2.921    -0.026    28.663     8.780
     7   6 C        2.921    -0.047    29.176     8.858
     8   6 C        2.923     0.071    26.416     8.428
     9   7 N        2.752    -0.068    22.560     7.054
    10   6 C        2.926     0.064    26.557     8.451
    11   6 C        2.922    -0.046    29.135     8.852
    12   6 C        2.920    -0.028    28.710     8.787
    13   6 C        2.919    -0.036    28.901     8.816
    14   6 C        2.920    -0.028    28.711     8.787
    15   6 C        2.922    -0.045    29.129     8.851
    16   6 C        2.926     0.064    26.569     8.453
    17   6 C        2.922    -0.045    29.123     8.850
    18   6 C        2.920    -0.028    28.694     8.784
    19   6 C        2.919    -0.036    28.897     8.815
    20   6 C        2.920    -0.029    28.716     8.788
    21   6 C        2.922    -0.046    29.141     8.853
    22   6 C        2.920    -0.048    29.200     8.861
    23   6 C        2.925    -0.024    28.592     8.769
    24   7 N        1.842    -0.259    27.579     7.783
    25   6 C        2.898     0.157    24.595     8.131
    26   7 N        1.843    -0.259    27.580     7.783
    27   6 C        2.978     0.117    25.428     8.272
    28   6 C        2.980    -0.007    28.181     8.708
    29   6 C        2.921    -0.027    28.668     8.780
    30   6 C        2.921    -0.047    29.174     8.857
    31   6 C        2.923     0.071    26.415     8.428
    32   7 N        2.752    -0.068    22.559     7.054
    33   6 C        2.925     0.064    26.569     8.453
    34   6 C        2.922    -0.046    29.142     8.853
    35   6 C        2.920    -0.029    28.716     8.788
    36   6 C        2.919    -0.036    28.897     8.815
    37   6 C        2.920    -0.028    28.694     8.784
    38   6 C        2.922    -0.045    29.124     8.850
    39   6 C        2.926     0.064    26.557     8.451
    40   6 C        2.922    -0.045    29.130     8.851
    41   6 C        2.920    -0.028    28.711     8.787
    42   6 C        2.919    -0.036    28.902     8.816
    43   6 C        2.920    -0.028    28.709     8.787
    44   6 C        2.922    -0.046    29.136     8.852
    45   6 C        2.920    -0.048    29.198     8.861
    46   6 C        2.925    -0.024    28.594     8.769
    47   1 H        0.926     0.039     2.458     2.452
    48   1 H        0.926     0.040     2.454     2.450
    49   1 H        0.926     0.035     2.519     2.482
    50   1 H        0.926     0.035     2.519     2.482
    51   1 H        0.926     0.033     2.542     2.493
    52   1 H        0.926     0.034     2.528     2.486
    53   1 H        0.926     0.034     2.534     2.489
    54   1 H        0.926     0.037     2.495     2.470
    55   1 H        0.926     0.037     2.491     2.468
    56   1 H        0.926     0.033     2.539     2.492
    57   1 H        0.926     0.034     2.535     2.490
    58   1 H        0.926     0.033     2.549     2.497
    59   1 H        0.926     0.038     2.469     2.457
    60   1 H        0.926     0.055     2.258     2.350
    61   1 H        0.925     0.041     2.432     2.439
    62   1 H        0.926     0.040     2.452     2.449
    63   1 H        0.926     0.040     2.454     2.450
    64   1 H        0.926     0.033     2.549     2.497
    65   1 H        0.926     0.034     2.535     2.490
    66   1 H        0.926     0.033     2.539     2.492
    67   1 H        0.926     0.037     2.492     2.469
    68   1 H        0.926     0.036     2.499     2.472
    69   1 H        0.926     0.034     2.534     2.489
    70   1 H        0.926     0.034     2.528     2.486
    71   1 H        0.926     0.033     2.542     2.493
    72   1 H        0.926     0.035     2.519     2.482
    73   1 H        0.926     0.035     2.520     2.483
    74   1 H        0.926     0.038     2.469     2.457
    75   1 H        0.926     0.056     2.252     2.347

molecular dipole:
                 x           y           z       tot (Debye)
 q only:       -0.006       0.250       0.218
   full:       -0.007       0.125       0.318       0.868

 projected vibrational frequencies (cm⁻¹)
eigval :       -0.00    -0.00    -0.00     0.00     0.00     0.00
eigval :        8.29     9.05    13.17    24.74    31.13    34.61
eigval :       41.00    46.30    46.68    57.94    58.68    72.03
eigval :       74.36    75.47    85.96    95.42   109.67   122.31
eigval :      126.98   147.31   164.02   184.52   187.98   211.29
eigval :      214.27   218.83   236.14   239.99   280.56   286.85
eigval :      306.69   308.26   311.11   329.01   369.10   373.63
eigval :      378.06   378.53   380.34   380.58   386.64   387.28
eigval :      392.58   398.64   402.67   424.37   432.55   477.66
eigval :      479.73   490.74   491.59   503.03   507.91   547.57
eigval :      562.42   573.76   583.70   584.23   584.44   587.18
eigval :      593.67   593.81   600.65   609.13   610.52   632.70
eigval :      637.48   660.53   661.23   665.49   668.67   681.63
eigval :      694.72   700.64   726.53   748.68   758.32   758.45
eigval :      760.50   761.95   818.25   820.08   828.21   836.29
eigval :      865.46   866.13   875.73   875.83   876.43   876.55
eigval :      895.29   895.45   895.59   895.78   900.21   910.02
eigval :      910.07   915.71   917.69   919.32   924.59   926.03
eigval :      927.29   928.39   928.43   929.41   929.60   930.60
eigval :      930.68   931.42   931.54   981.38   985.83  1005.34
eigval :     1005.38  1008.20  1018.89  1070.18  1082.64  1082.68
eigval :     1083.74  1083.79  1121.57  1121.62  1123.51  1123.60
eigval :     1142.31  1143.59  1161.65  1180.43  1180.45  1180.58
eigval :     1180.59  1186.08  1186.38  1191.99  1194.69  1194.85
eigval :     1195.08  1197.98  1213.88  1215.54  1222.96  1267.39
eigval :     1268.24  1276.88  1277.59  1278.07  1281.14  1282.91
eigval :     1301.71  1310.08  1312.49  1317.53  1317.94  1325.70
eigval :     1325.91  1331.10  1331.84  1333.89  1344.83  1381.89
eigval :     1389.29  1418.03  1418.41  1436.24  1436.34  1441.88
eigval :     1442.17  1468.86  1469.80  1474.16  1474.26  1487.56
eigval :     1491.36  1493.25  1515.22  1549.87  1550.37  1578.37
eigval :     1578.40  1582.13  1582.22  1589.89  1590.98  1593.84
eigval :     1593.93  1599.97  1600.11  2339.40  3048.44  3077.55
eigval :     3077.60  3078.34  3078.37  3079.25  3079.27  3080.96
eigval :     3081.00  3086.87  3086.93  3087.63  3087.68  3087.85
eigval :     3088.08  3088.98  3089.28  3091.10  3091.14  3092.00
eigval :     3092.09  3099.00  3099.04  3099.54  3099.66  3099.98
eigval :     3100.91  3105.93  3106.29

   temp. (K)  partition function   enthalpy   heat capacity  entropy
                                   cal/mol     cal/K/mol   cal/K/mol   J/K/mol
 298.15  VIB  0.130E+19            22031.312    136.061    139.518
         ROT  0.102E+09              888.752      2.981     39.630
         INT  0.133E+27            22920.065    139.042    179.148
         TR   0.139E+29             1481.254      4.968     44.997
         TOT                       24401.3185   144.0104   224.1445   937.8207

       T/K    H(0)-H(T)+PV         H(T)/Eh          T*S/Eh         G(T)/Eh
   ------------------------------------------------------------------------
    298.15    0.388860E-01    0.612616E+00    0.106498E+00    0.506118E+00
   ------------------------------------------------------------------------

         :::::::::::::::::::::::::::::::::::::::::::::::::::::
         ::                  THERMODYNAMIC                  ::
         :::::::::::::::::::::::::::::::::::::::::::::::::::::
         :: total free energy        -116.662269596742 Eh   ::
         ::.................................................::
         :: total energy             -117.168387412228 Eh   ::
         :: zero point energy           0.573730140606 Eh   ::
         :: G(RRHO) w/o ZPVE           -0.067612325120 Eh   ::
         :: G(RRHO) contrib.            0.506117815486 Eh   ::
         :::::::::::::::::::::::::::::::::::::::::::::::::::::

           -------------------------------------------------
          | TOTAL ENERGY             -117.168387412228 Eh   |
          | TOTAL ENTHALPY           -116.555771295382 Eh   |
          | TOTAL FREE ENERGY        -116.662269596742 Eh   |
          | GRADIENT NORM               0.000147214089 Eh/α |
          | HOMO-LUMO GAP               1.944467143263 eV   |
           -------------------------------------------------

 * finished run on 2025/09/14 at 11:17:03.884
