   * xtb version 6.7.1 (edcfbbe) compiled by 'albert@albert-system' on 2024-07-22

   ID    Z sym.   atoms
    1    7 N      1, 9, 24, 26, 32
    2    6 C      2-8, 10-23, 25, 27-31, 33-46
    3    1 H      47-75

          program call               : xtb data2507/gas/TPAPm/TPAPm_gas_S0_finalOpt.xtbopt.xyz --gfn 2 --spinpol --tblite --uhf 2 --ohess vtight --parallel 40 --molden --ceasefiles --namespace data2507/gas/TPAPm/TPAPm_gas_T1_preOpt
 * total energy  :  -117.0884340 Eh     change        0.1399710E-07 Eh
 * total energy  :  -117.0906282 Eh     change       -0.2194236E-02 Eh
 * total energy  :  -117.0914799 Eh     change       -0.8516778E-03 Eh
 * total energy  :  -117.0916957 Eh     change       -0.2157684E-03 Eh
 * total energy  :  -117.0919512 Eh     change       -0.2555603E-03 Eh
 * total energy  :  -117.0920440 Eh     change       -0.9277718E-04 Eh
 * total energy  :  -117.0921401 Eh     change       -0.9609147E-04 Eh
 * total energy  :  -117.0921999 Eh     change       -0.5976748E-04 Eh
 * total energy  :  -117.0922665 Eh     change       -0.6660436E-04 Eh
 * total energy  :  -117.0923484 Eh     change       -0.8192218E-04 Eh
 * total energy  :  -117.0933009 Eh     change       -0.7597995E-06 Eh
 * total energy  :  -117.0933017 Eh     change       -0.7532108E-06 Eh
 * total energy  :  -117.0933024 Eh     change       -0.7453979E-06 Eh
 * total energy  :  -117.0933032 Eh     change       -0.7466201E-06 Eh
 * total energy  :  -117.0933039 Eh     change       -0.7470866E-06 Eh
 * total energy  :  -117.0933047 Eh     change       -0.7572809E-06 Eh
 * total energy  :  -117.0933054 Eh     change       -0.7615247E-06 Eh
 * total energy  :  -117.0933062 Eh     change       -0.7499074E-06 Eh
 * total energy  :  -117.0933062 Eh     change       -0.1978530E-07 Eh
   *** GEOMETRY OPTIMIZATION CONVERGED AFTER 122 ITERATIONS ***

 final structure:
================
75
 xtb: 6.7.1 (edcfbbe)
N            0.24105236536387        1.51493171867506       -0.52880507678211
C            0.13355586823486        0.37228254760992       -0.41084979432386
C            0.03849930267322       -1.02165203608420       -0.35779866052423
C            1.19841835110917       -1.79827839102116       -0.37803065296318
C            2.53466420323218       -1.23050663595354       -0.21933519920333
C            2.78967194040366       -0.13634194740374        0.60983025172123
C            4.06354310308486        0.37156222949054        0.72898170218805
C            5.12713329739946       -0.20195365916505        0.02748521204058
N            6.41382967867081        0.32746815266779        0.13477231882457
C            7.52269162327925       -0.52507066658196        0.14024058749517
C            7.45872406525273       -1.75965688079411        0.78761755258040
C            8.55498811728808       -2.59933852445527        0.79179078095402
C            9.72950030526652       -2.22354012308688        0.15981776666700
C            9.79859122339020       -0.99788226842047       -0.48286582615565
C            8.70618002627156       -0.15309178004091       -0.49838438904925
C            6.59308630129142        1.71204980114553        0.22954537644865
C            5.76108980645044        2.58157827959993       -0.47681855689032
C            5.94229239710226        3.94711284166721       -0.37992832267669
C            6.95355642956032        4.46699281070377        0.41203825527263
C            7.78308610616806        3.60748111500571        1.11418840747310
C            7.60637129697614        2.24031021710032        1.03014082310438
C            4.88112230118782       -1.31875875163630       -0.77650184604840
C            3.60780784792311       -1.82591618999880       -0.88943452944867
N            1.14750284518846       -3.12287285614636       -0.59574409090097
C           -0.04471853321309       -3.68692242333144       -0.80233866489835
N           -1.16752965250506       -3.05824663941211       -0.74188431248429
C           -1.22730770351380       -1.72263755225358       -0.47415756198969
C           -2.51636434120640       -1.15014887450895       -0.33069633602573
C           -2.75812469699036        0.14023107149580        0.19883754613064
C           -4.03101677184020        0.62773681535938        0.32701236657042
C           -5.14074805054430       -0.13744992551100       -0.06306880517624
N           -6.43784827615450        0.37138216466282        0.06021726673583
C           -6.67966487991982        1.71863103268840       -0.20065508129213
C           -7.62914922848909        2.42620386490282        0.54258914193942
C           -7.85362118476881        3.76377002139855        0.28807598196166
C           -7.13880993193791        4.42048889663457       -0.70200114494357
C           -6.19308957261495        3.72481133748842       -1.43984556245421
C           -5.96181873181705        2.38632863715720       -1.19695179172346
C           -7.47737443009940       -0.47268989759532        0.44470471003882
C           -8.75860147113345       -0.31200850428865       -0.09129358349026
C           -9.77952114840464       -1.16125012701789        0.28375009485633
C           -9.54626468082286       -2.18343329576530        1.19115310945163
C           -8.27692051317288       -2.34963451735694        1.72390999577716
C           -7.24847578341522       -1.50526408912764        1.35865530230498
C           -4.92083098810451       -1.42867646536316       -0.57245429160897
C           -3.65279188651690       -1.92115169255367       -0.69375670948934
H            1.99233962959833        0.30379826907628        1.18802341132519
H            4.24996058060178        1.21288838067050        1.37981005922391
H            6.54787366904129       -2.04830559869560        1.29107297753157
H            8.49431006541003       -3.55037164560466        1.29970155152157
H           10.58504047007343       -2.88139681189127        0.16793500079465
H           10.70800632070006       -0.70036952886920       -0.98357738083592
H            8.75765922354079        0.79654290884033       -1.01038355159395
H            4.97882753137022        2.17925096961667       -1.10310363598365
H            5.29315173399752        4.60894143338988       -0.93327789175951
H            7.09377379536176        5.53478819339468        0.48243861430756
H            8.56902347506292        4.00444200885222        1.73956056245037
H            8.24557667545614        1.57234018156043        1.58875643107278
H            5.69684946098224       -1.77226608479317       -1.32023483025442
H            3.41556708639495       -2.68176310635425       -1.51784489072600
H           -0.05477947354788       -4.74372161446644       -1.03034883779579
H           -1.93363829770447        0.74574604003697        0.53622346436464
H           -4.19210200160819        1.60614191143129        0.75661689900371
H           -8.17232426863801        1.92155333786069        1.32813325153267
H           -8.58489671965074        4.30098954352666        0.87363679187198
H           -7.31605375417640        5.46727517244569       -0.89529181281301
H           -5.63528231503560        4.22813126837093       -2.21515444195768
H           -5.23414906757395        1.84210886432557       -1.77999130905026
H           -8.93745315682843        0.47139921596576       -0.81305898367382
H          -10.76318855114976       -1.03102595773069       -0.14243837472429
H          -10.34750005472074       -2.84630393982639        1.47957562518193
H           -8.08892946410262       -3.13983493372244        2.43535788590457
H           -6.26332076074910       -1.62590928591901        1.78377318250034
H           -5.76780442930889       -2.02108629222357       -0.88853062088331
H           -3.48495064351983       -2.90880850544036       -1.09383618888729

 projected vibrational frequencies (cm⁻¹)
eigval :       -0.00    -0.00    -0.00     0.00     0.00     0.00
eigval :        4.33     7.06    12.53    23.55    28.58    34.38
eigval :       40.38    45.36    49.82    57.54    58.06    71.01
eigval :       75.22    77.89    87.82    95.85   109.75   121.28
eigval :      123.25   145.70   166.39   174.10   187.42   207.96
eigval :      214.28   218.14   232.86   237.78   273.76   293.17
eigval :      301.52   309.44   313.05   321.53   344.46   364.32
eigval :      367.91   376.57   376.70   377.53   379.88   385.59
eigval :      390.29   395.55   401.59   410.13   420.73   459.34
eigval :      468.94   476.36   484.24   503.58   506.33   516.57
eigval :      539.86   548.52   562.67   578.89   579.97   584.43
eigval :      586.11   590.97   593.05   594.47   606.04   611.75
eigval :      633.85   649.07   657.05   659.39   661.24   662.35
eigval :      665.92   688.39   692.65   720.17   754.09   756.26
eigval :      757.33   758.72   767.76   794.08   803.44   819.01
eigval :      826.30   834.09   856.82   867.47   868.57   872.14
eigval :      872.46   874.85   890.82   892.55   893.22   894.70
eigval :      902.07   907.27   908.76   909.70   910.89   915.30
eigval :      919.51   924.29   925.45   926.83   927.02   927.20
eigval :      928.14   928.22   928.68   929.11   972.13   981.37
eigval :      993.65  1000.11  1004.00  1007.97  1033.46  1079.77
eigval :     1080.61  1081.76  1082.73  1118.51  1120.72  1121.31
eigval :     1123.34  1123.59  1137.16  1141.73  1158.15  1171.97
eigval :     1176.48  1177.27  1177.69  1178.66  1183.83  1188.49
eigval :     1189.74  1191.82  1193.36  1212.46  1214.50  1245.90
eigval :     1259.06  1265.71  1273.86  1275.32  1275.96  1277.30
eigval :     1281.04  1301.49  1304.67  1309.84  1314.81  1318.00
eigval :     1319.75  1323.60  1326.93  1328.52  1331.05  1334.15
eigval :     1373.03  1379.01  1415.11  1429.46  1431.28  1434.92
eigval :     1440.29  1441.67  1452.99  1457.40  1459.77  1465.52
eigval :     1468.39  1468.98  1479.52  1512.11  1541.63  1552.09
eigval :     1561.32  1566.02  1573.21  1576.76  1577.37  1581.10
eigval :     1586.89  1588.18  1594.73  2275.08  3058.34  3072.70
eigval :     3077.53  3078.38  3078.85  3079.64  3080.10  3080.72
eigval :     3082.82  3083.19  3083.92  3084.33  3087.54  3088.63
eigval :     3089.07  3089.73  3090.40  3092.87  3094.17  3094.72
eigval :     3095.46  3099.92  3100.63  3101.22  3101.84  3102.14
eigval :     3102.63  3104.23  3127.51

   temp. (K)  partition function   enthalpy   heat capacity  entropy
                                   cal/mol     cal/K/mol   cal/K/mol   J/K/mol
 298.15  VIB  0.506E+19            22368.916    138.352    142.233
         ROT  0.103E+09              888.752      2.981     39.649
         INT  0.522E+27            23257.668    141.333    181.882
         TR   0.139E+29             1481.254      4.968     44.997
         TOT                       24738.9221   146.3013   226.8788   949.2609

       T/K    H(0)-H(T)+PV         H(T)/Eh          T*S/Eh         G(T)/Eh
   ------------------------------------------------------------------------
    298.15    0.394240E-01    0.608373E+00    0.107797E+00    0.500575E+00
   ------------------------------------------------------------------------

         :::::::::::::::::::::::::::::::::::::::::::::::::::::
         ::                  THERMODYNAMIC                  ::
         :::::::::::::::::::::::::::::::::::::::::::::::::::::
         :: total free energy        -116.592730894203 Eh   ::
         ::.................................................::
         :: total energy             -117.093306182656 Eh   ::
         :: zero point energy           0.568948746892 Eh   ::
         :: G(RRHO) w/o ZPVE           -0.068373458438 Eh   ::
         :: G(RRHO) contrib.            0.500575288454 Eh   ::
         :::::::::::::::::::::::::::::::::::::::::::::::::::::

           -------------------------------------------------
          | TOTAL ENERGY             -117.093306182656 Eh   |
          | TOTAL ENTHALPY           -116.484933454026 Eh   |
          | TOTAL FREE ENERGY        -116.592730894203 Eh   |
          | GRADIENT NORM               0.000072114470 Eh/α |
           -------------------------------------------------

 * finished run on 2025/09/14 at 11:17:23.326
