   * xtb version 6.7.1 (edcfbbe) compiled by 'albert@albert-system' on 2024-07-22

   ID    Z sym.   atoms
    1    7 N      1, 9, 24, 26, 32
    2    6 C      2-8, 10-23, 25, 27-31, 33-46
    3    1 H      47-75

          program call               : xtb data2507/gas/TPAPm/TPAPm_gas_T1_crest.xyz --gfn 2 --spinpol --tblite --uhf 2 --ohess vtight --parallel 40 --molden --ceasefiles --namespace data2507/gas/TPAPm/TPAPm_gas_T1_finalOpt
 * total energy  :  -117.0935349 Eh     change        0.8225669E-09 Eh
 * total energy  :  -117.0935776 Eh     change       -0.4273565E-04 Eh
 * total energy  :  -117.0935917 Eh     change       -0.1404029E-04 Eh
 * total energy  :  -117.0936008 Eh     change       -0.9165820E-05 Eh
 * total energy  :  -117.0936027 Eh     change       -0.1879097E-05 Eh
 * total energy  :  -117.0936047 Eh     change       -0.2000471E-05 Eh
 * total energy  :  -117.0936063 Eh     change       -0.1548767E-05 Eh
 * total energy  :  -117.0936078 Eh     change       -0.1533379E-05 Eh
 * total energy  :  -117.0936090 Eh     change       -0.1221408E-05 Eh
 * total energy  :  -117.0936103 Eh     change       -0.1313874E-05 Eh
 * total energy  :  -117.0936163 Eh     change       -0.1240681E-06 Eh
 * total energy  :  -117.0936165 Eh     change       -0.1900695E-06 Eh
 * total energy  :  -117.0936167 Eh     change       -0.2032007E-06 Eh
 * total energy  :  -117.0936169 Eh     change       -0.2356766E-06 Eh
 * total energy  :  -117.0936172 Eh     change       -0.2866962E-06 Eh
 * total energy  :  -117.0936175 Eh     change       -0.3448128E-06 Eh
 * total energy  :  -117.0936177 Eh     change       -0.1786126E-06 Eh
 * total energy  :  -117.0936179 Eh     change       -0.1582184E-06 Eh
 * total energy  :  -117.0936179 Eh     change       -0.3203397E-07 Eh
   *** GEOMETRY OPTIMIZATION CONVERGED AFTER 33 ITERATIONS ***

 final structure:
================
75
 xtb: 6.7.1 (edcfbbe)
N            0.31341405480437        1.15503291805969       -1.02030072310625
C            0.16715341234736        0.16017025126991       -0.45320384219012
C            0.05207329162727       -1.08250421654350        0.17356434568740
C            1.21057225181260       -1.80607781748479        0.46080956671905
C            2.54631597407898       -1.21970008063929        0.33765267269995
C            2.81547528107532        0.09692259301726        0.71170438613109
C            4.08221869958626        0.61885415227935        0.57508673648800
C            5.12028757203778       -0.15936028671996        0.05625597357967
N            6.39541568569233        0.38044465183669       -0.10761804197038
C            7.52794746392556       -0.41849121339449        0.08658387141917
C            7.55558533340873       -1.36837462129865        1.10818748914503
C            8.67548475605688       -2.15462399541670        1.29499078541894
C            9.78314175621763       -2.00457131004201        0.47609220856073
C            9.76177199421724       -1.06014059183021       -0.53758541301468
C            8.64470295725474       -0.27287298181670       -0.73688673032202
C            6.54717107959353        1.72237212533581       -0.47766130830986
C            5.65675691804912        2.31528171254960       -1.37335074375375
C            5.81307173109730        3.63974021277469       -1.73201242879154
C            6.85684863405021        4.38943103252569       -1.21372402951399
C            7.74548042720614        3.80381956115820       -0.32651713908609
C            7.59430139289304        2.48206351744300        0.04456309647996
C            4.85876095180724       -1.48825152280004       -0.28946397278506
C            3.59444872234652       -2.00982446312461       -0.13848977783178
N            1.16944750642638       -3.09026124742714        0.83564335832555
C           -0.02733387955072       -3.68362038973505        0.91023550935178
N           -1.14866371791894       -3.07326956334771        0.74434782212011
C           -1.21737981225358       -1.75526006513634        0.41115053074809
C           -2.50747350832733       -1.18313336868845        0.29879695095163
C           -2.76062015732564        0.19583826861215        0.09996774836953
C           -4.03905409325430        0.67776504870922        0.01022569032201
C           -5.14359397029614       -0.18148207744737        0.10864651744786
N           -6.44807265891438        0.31429860148987        0.00637743035266
C           -7.40539887259991       -0.41699281836052       -0.69220882713593
C           -7.03879356504980       -1.16506329716607       -1.81481140943644
C           -7.98471649252829       -1.90302627742500       -2.49640491611772
C           -9.30637448988341       -1.91097182027125       -2.07719168729875
C           -9.67569585865975       -1.17304877042577       -0.96284073652012
C           -8.73857159528407       -0.43286789602006       -0.27136335347694
C           -6.77345332671686        1.52963343697149        0.60381961496937
C           -7.69207687326631        2.39556192632201        0.00334629896913
C           -7.99871585796203        3.60267703788097        0.59763346005973
C           -7.39764827013446        3.97157771428129        1.79139111252063
C           -6.48164357685264        3.11919606887880        2.38883033944463
C           -6.16868829620723        1.90843000752221        1.80566828423090
C           -4.91295729645398       -1.55218695122454        0.31956805386735
C           -3.64012416006831       -2.03501132614252        0.41319992545398
H            2.03583556970520        0.70924262338000        1.13781833570999
H            4.28166903937810        1.63548210066242        0.87943020239239
H            6.69738224665066       -1.47779814657250        1.75468524576583
H            8.68626183403486       -2.88405057255823        2.09118794955799
H           10.65719100923180       -2.61948175730663        0.62686647510762
H           10.61859598106151       -0.94102638778986       -1.18403981253379
H            8.62472987525146        0.45483640984447       -1.53479487513138
H            4.84817349941311        1.73118589378306       -1.78690444121955
H            5.11811499156020        4.08649941617588       -2.42698059268479
H            6.97672244341780        5.42348314242007       -1.49868642832254
H            8.55799676427696        4.38261571675006        0.08721518456971
H            8.28037684706475        2.03045801178993        0.74615394136206
H            5.65341521833786       -2.10029591547065       -0.69002741795796
H            3.39154523543315       -3.03379659460023       -0.41213084208172
H           -0.03995559662158       -4.73752014552426        1.14971767180592
H           -1.93865166844258        0.88607158661090        0.01517321562880
H           -4.20712374233284        1.73183242657382       -0.15867163395609
H           -6.01238518429042       -1.14715420762594       -2.14932511129141
H           -7.69034721258377       -2.47103491866731       -3.36622096225232
H          -10.04296891093006       -2.48912251166631       -2.61360811926847
H          -10.70116737814345       -1.18219838012906       -0.62438122351350
H           -9.02465725891412        0.12493993196006        0.60822877441318
H           -8.14594556801405        2.11941368703705       -0.93705992495629
H           -8.70524611252464        4.26575523793246        0.12085195919700
H           -7.63969314143755        4.91735377794103        2.25125192828451
H           -6.01258375080360        3.39764076487964        3.32068499257110
H           -5.46539118855882        1.23852198724128        2.27731828118120
H           -5.75927682330196       -2.21574115076510        0.42858585067945
H           -3.46103374372157       -3.08432092229328        0.59081948046648

 projected vibrational frequencies (cm⁻¹)
eigval :       -0.00     0.00     0.00     0.00     0.00     0.00
eigval :        7.63     8.51    12.33    27.57    27.81    33.36
eigval :       39.98    44.15    53.12    57.22    59.19    67.57
eigval :       72.26    80.34    90.95    97.32   107.50   119.29
eigval :      123.78   145.37   166.78   174.23   187.93   206.99
eigval :      215.93   219.13   233.31   238.41   278.10   283.24
eigval :      308.55   309.22   314.03   324.86   345.68   367.27
eigval :      374.03   376.92   377.08   378.23   380.21   386.51
eigval :      389.60   393.05   399.16   412.06   422.00   460.01
eigval :      469.06   479.68   485.76   504.35   507.40   516.39
eigval :      539.52   550.50   566.29   578.83   580.13   584.58
eigval :      586.37   590.91   592.90   595.56   607.70   611.39
eigval :      634.65   649.19   657.53   659.61   661.72   663.38
eigval :      666.78   688.93   694.34   719.56   754.87   757.53
eigval :      758.42   759.24   769.52   793.59   809.80   819.46
eigval :      829.73   848.49   863.40   868.49   872.35   873.60
eigval :      875.15   891.30   893.61   894.76   895.46   898.16
eigval :      906.55   907.52   908.83   909.73   914.52   916.53
eigval :      921.93   925.97   927.11   927.22   927.65   928.21
eigval :      929.35   929.51   930.38   930.80   972.53   981.42
eigval :      994.36  1000.31  1004.20  1008.25  1034.80  1080.27
eigval :     1081.01  1082.06  1083.03  1121.40  1121.56  1123.00
eigval :     1124.15  1124.53  1136.29  1142.44  1159.12  1173.63
eigval :     1179.25  1179.39  1179.93  1180.14  1184.45  1190.71
eigval :     1191.03  1192.64  1194.06  1212.91  1214.86  1247.31
eigval :     1257.65  1266.43  1274.49  1275.79  1276.61  1277.56
eigval :     1281.21  1302.60  1305.59  1309.39  1316.96  1318.38
eigval :     1320.06  1326.30  1327.64  1328.73  1330.31  1334.98
eigval :     1378.90  1385.80  1414.31  1428.67  1431.51  1435.42
eigval :     1441.19  1441.97  1454.52  1458.38  1460.65  1465.95
eigval :     1468.82  1472.61  1481.37  1527.92  1545.73  1558.57
eigval :     1561.88  1566.64  1573.85  1577.36  1577.92  1582.19
eigval :     1587.61  1588.55  1595.82  2270.95  3061.64  3070.84
eigval :     3077.71  3078.36  3079.45  3079.75  3080.47  3080.90
eigval :     3082.96  3083.31  3083.88  3084.56  3087.83  3088.74
eigval :     3089.51  3089.80  3090.78  3092.88  3094.60  3094.66
eigval :     3095.16  3095.48  3099.95  3100.83  3101.20  3101.35
eigval :     3101.40  3101.83  3137.30

   temp. (K)  partition function   enthalpy   heat capacity  entropy
                                   cal/mol     cal/K/mol   cal/K/mol   J/K/mol
 298.15  VIB  0.214E+19            22321.135    138.112    141.231
         ROT  0.104E+09              888.752      2.981     39.656
         INT  0.221E+27            23209.887    141.093    180.888
         TR   0.139E+29             1481.254      4.968     44.997
         TOT                       24691.1411   146.0607   225.8847   945.1017

       T/K    H(0)-H(T)+PV         H(T)/Eh          T*S/Eh         G(T)/Eh
   ------------------------------------------------------------------------
    298.15    0.393478E-01    0.608838E+00    0.107325E+00    0.501513E+00
   ------------------------------------------------------------------------

         :::::::::::::::::::::::::::::::::::::::::::::::::::::
         ::                  THERMODYNAMIC                  ::
         :::::::::::::::::::::::::::::::::::::::::::::::::::::
         :: total free energy        -116.592104750193 Eh   ::
         ::.................................................::
         :: total energy             -117.093617876764 Eh   ::
         :: zero point energy           0.569490407722 Eh   ::
         :: G(RRHO) w/o ZPVE           -0.067977281150 Eh   ::
         :: G(RRHO) contrib.            0.501513126571 Eh   ::
         :::::::::::::::::::::::::::::::::::::::::::::::::::::

           -------------------------------------------------
          | TOTAL ENERGY             -117.093617876764 Eh   |
          | TOTAL ENTHALPY           -116.484779631146 Eh   |
          | TOTAL FREE ENERGY        -116.592104750193 Eh   |
          | GRADIENT NORM               0.000062766713 Eh/α |
           -------------------------------------------------

 * finished run on 2025/09/14 at 11:28:25.993
