   * xtb version 6.7.1 (edcfbbe) compiled by 'albert@albert-system' on 2024-07-22

   ID    Z sym.   atoms
    1    7 N      1, 9, 24, 26, 32
    2    6 C      2-8, 10-23, 25, 27-31, 33-46
    3    1 H      47-75

          program call               : xtb data2507/gas/TPAPm/TPAPm.xyz --gfn 2 --ohess vtight --parallel 40 --molden --ceasefiles --namespace data2507/gas/TPAPm/TPAPm_gas_S0_preOpt
          :  Hamiltonian                  GFN2-xTB          :
 * total energy  :  -117.1362928 Eh     change       -0.1391541E-08 Eh
 * total energy  :  -117.1524340 Eh     change       -0.1614116E-01 Eh
 * total energy  :  -117.1588995 Eh     change       -0.6465508E-02 Eh
 * total energy  :  -117.1614364 Eh     change       -0.2536974E-02 Eh
 * total energy  :  -117.1634850 Eh     change       -0.2048541E-02 Eh
 * total energy  :  -117.1647430 Eh     change       -0.1258050E-02 Eh
 * total energy  :  -117.1654934 Eh     change       -0.7503824E-03 Eh
 * total energy  :  -117.1660758 Eh     change       -0.5824203E-03 Eh
 * total energy  :  -117.1665572 Eh     change       -0.4813417E-03 Eh
 * total energy  :  -117.1668956 Eh     change       -0.3384659E-03 Eh
 * total energy  :  -117.1683837 Eh     change       -0.5208670E-06 Eh
 * total energy  :  -117.1683843 Eh     change       -0.5505932E-06 Eh
 * total energy  :  -117.1683850 Eh     change       -0.6818495E-06 Eh
 * total energy  :  -117.1683857 Eh     change       -0.7681755E-06 Eh
 * total energy  :  -117.1683863 Eh     change       -0.5970306E-06 Eh
 * total energy  :  -117.1683867 Eh     change       -0.3427262E-06 Eh
 * total energy  :  -117.1683869 Eh     change       -0.1793249E-06 Eh
 * total energy  :  -117.1683870 Eh     change       -0.1142562E-06 Eh
 * total energy  :  -117.1683870 Eh     change       -0.2762931E-08 Eh
   *** GEOMETRY OPTIMIZATION CONVERGED AFTER 68 ITERATIONS ***

 final structure:
================
75
 xtb: 6.7.1 (edcfbbe)
N           -0.00001952423657        1.10064906224226       -0.72313335820887
C           -0.00000650948783       -0.00250428726161       -0.40000262967072
C           -0.00000234723777       -1.37763245274359       -0.10546466916674
C            1.20423675385275       -2.11252914651334       -0.02660455542286
C            2.51867820606694       -1.48600009140293        0.01017403356134
C            2.73663827786350       -0.23895355367247        0.59857805382891
C            3.99393969094740        0.31965701282546        0.61369040478945
C            5.07891510326356       -0.34452733183931        0.03202609395740
N            6.34083283781031        0.23286819553710        0.02637384445821
C            7.49198219693783       -0.56779117833140        0.08288409401627
C            7.53470900904533       -1.68882314453447        0.91036269505171
C            8.67367637653686       -2.46884611814124        0.96397885913710
C            9.78514006047289       -2.14055255028704        0.20509322723907
C            9.74911902040788       -1.02352627111526       -0.61335639255960
C            8.61204364062119       -0.24171775679815       -0.67993462184392
C            6.48580357595094        1.62745815957167       -0.04380356999895
C            5.64562848759473        2.38804117163543       -0.85543403585783
C            5.79991128742324        3.75933060770280       -0.92132074384402
C            6.79453323238152        4.38952243606050       -0.19149707559827
C            7.63558114045739        3.63650660066287        0.61119237844442
C            7.48378191021148        2.26557456170802        0.69072039951770
C            4.86494916915419       -1.60540231333969       -0.53666793321962
C            3.61050176526246       -2.16712884913806       -0.53524825314875
N            1.17667286611673       -3.44573749818065       -0.00280216783141
C            0.00000044078184       -4.03411718229148       -0.02765555341995
N           -1.17667267738527       -3.44573971865966       -0.00278420130316
C           -1.20423947960340       -2.11253163380729       -0.02658955866369
C           -2.51868226049709       -1.48600587118698        0.01019999356512
C           -2.73664375639061       -0.23896219435781        0.59860960770772
C           -3.99394576426418        0.31964706955288        0.61372223817792
C           -5.07891952185704       -0.34453491008452        0.03205186947898
N           -6.34083527716282        0.23286515035949        0.02639084768965
C           -6.48579731669234        1.62745541034130       -0.04379669658930
C           -7.48378067194100        2.26558289238742        0.69071077034805
C           -7.63556742050694        3.63651593453037        0.61117485259727
C           -6.79450055240867        4.38952198840618       -0.19150402355187
C           -5.79987457733023        3.75931884320378       -0.92131252665745
C           -5.64560613466978        2.38802818741974       -0.85542019498728
C           -7.49198904816728       -0.56778857613241        0.08288905210536
C           -8.61203976273975       -0.24171082478599       -0.67994360922164
C           -9.74912117828137       -1.02351133572647       -0.61337526689630
C           -9.78515943312878       -2.14053336125107        0.20507940740946
C           -8.67370615006048       -2.46883182980794        0.96397817568502
C           -7.53473205421869       -1.68881795597477        0.91037035898258
C           -4.86495322866263       -1.60540954114100       -0.53664228140062
C           -3.61050530217305       -2.16713508199692       -0.53522246211461
H            1.92530367073938        0.28360992704282        1.08188920372200
H            4.15040944790665        1.27663491019401        1.08844355854721
H            6.67274634254823       -1.93915714135663        1.51129725648499
H            8.69585098546375       -3.33407265989901        1.60990199613487
H           10.67417761074150       -2.75078412248893        0.25212338441442
H           10.61004580905697       -0.76252592159913       -1.21087719238709
H            8.58188759219146        0.62504866667216       -1.32382190484164
H            4.87602707484291        1.89811372943460       -1.43352978765854
H            5.14310021209979        4.33772782760787       -1.55377083587208
H            6.91389451806103        5.46074066922191       -0.24843084399574
H            8.41125397412133        4.12008547139544        1.18644347508395
H            8.13506665457949        1.67994902582017        1.32303591531760
H            5.69235305206548       -2.13108740591514       -0.98955643841949
H            3.44431542270528       -3.13635105811853       -0.97898072228429
H            0.00000121114859       -5.11712795314931       -0.04911734196353
H           -1.92530931941640        0.28360153813345        1.08192084933215
H           -4.15041695931018        1.27662389211864        1.08847718696906
H           -8.13507733034390        1.67996573979875        1.32302177839588
H           -8.41124120682544        4.12010421878140        1.18641666233680
H           -6.91385153673542        5.46074102005552       -0.24844293935075
H           -5.14305350338878        4.33770722651578       -1.55376026876126
H           -4.87600364999487        1.89809159683767       -1.43350671599452
H           -8.58187074990963        0.62505332386890       -1.32383334363112
H          -10.61003970367084       -0.76250685296893       -1.21090620526669
H          -10.67420168865837       -2.75075870921447        0.25210206750784
H           -8.69589268677217       -3.33405799197762        1.60990142585928
H           -6.67277700428228       -1.93915705752862        1.51131371305142
H           -5.69235649957030       -2.13109432628048       -0.98953218276293
H           -3.44431783943236       -3.13635630669342       -0.97895662663462

          :  Hamiltonian                  GFN2-xTB          :
         :: gradient norm              0.000046737192 Eh/a0 ::
         :: HOMO-LUMO gap              1.945853264185 eV    ::
         :: SCC energy              -119.365139608089 Eh    ::
         :: -> dispersion             -0.102242993145 Eh    ::
         :: repulsion energy           2.196752628441 Eh    ::

    * Orbital Energies and Occupations

         #    Occupation            Energy/Eh            Energy/eV
      -------------------------------------------------------------
         1        2.0000           -0.6823850             -18.5686
       ...           ...                  ...                  ...
        97        2.0000           -0.4135778             -11.2540
        98        2.0000           -0.4121880             -11.2162
        99        2.0000           -0.4121329             -11.2147
       100        2.0000           -0.4102679             -11.1640
       101        2.0000           -0.4097735             -11.1505
       102        2.0000           -0.4092177             -11.1354
       103        2.0000           -0.4088382             -11.1251
       104        2.0000           -0.4074453             -11.0872
       105        2.0000           -0.4058306             -11.0432
       106        2.0000           -0.3967859             -10.7971
       107        2.0000           -0.3676493             -10.0042
       108        2.0000           -0.3566077              -9.7038
       109        2.0000           -0.3554495              -9.6723 (HOMO)
       110                         -0.2839406              -7.7264 (LUMO)
       111                         -0.2811770              -7.6512
       112                         -0.2348094              -6.3895
       113                         -0.2347559              -6.3880
       114                         -0.2328652              -6.3366
       115                         -0.2320134              -6.3134
       116                         -0.2317533              -6.3063
       117                         -0.2269305              -6.1751
       118                         -0.2265323              -6.1643
       119                         -0.2255323              -6.1370
       120                         -0.2253604              -6.1324
       ...                                ...                  ...
       213                          1.1668192              31.7508
      -------------------------------------------------------------
                  HL-Gap            0.0715088 Eh            1.9459 eV

     #   Z          covCN         q      C6AA      α(0)
     1   7 N        0.911    -0.256    26.651     7.466
     2   6 C        1.905     0.111    28.358     8.600
     3   6 C        2.962    -0.024    28.594     8.771
     4   6 C        2.979     0.117    25.424     8.271
     5   6 C        2.980    -0.007    28.182     8.708
     6   6 C        2.921    -0.026    28.664     8.780
     7   6 C        2.921    -0.047    29.175     8.858
     8   6 C        2.923     0.071    26.416     8.428
     9   7 N        2.752    -0.068    22.560     7.054
    10   6 C        2.926     0.064    26.557     8.451
    11   6 C        2.922    -0.046    29.136     8.852
    12   6 C        2.920    -0.028    28.710     8.787
    13   6 C        2.919    -0.036    28.902     8.816
    14   6 C        2.920    -0.028    28.711     8.787
    15   6 C        2.922    -0.045    29.130     8.851
    16   6 C        2.926     0.064    26.569     8.453
    17   6 C        2.922    -0.045    29.123     8.850
    18   6 C        2.920    -0.028    28.694     8.784
    19   6 C        2.919    -0.036    28.896     8.815
    20   6 C        2.920    -0.029    28.716     8.788
    21   6 C        2.922    -0.046    29.141     8.852
    22   6 C        2.920    -0.048    29.201     8.861
    23   6 C        2.925    -0.024    28.593     8.769
    24   7 N        1.842    -0.259    27.577     7.783
    25   6 C        2.899     0.157    24.595     8.131
    26   7 N        1.842    -0.259    27.577     7.783
    27   6 C        2.979     0.117    25.424     8.271
    28   6 C        2.980    -0.007    28.182     8.708
    29   6 C        2.921    -0.026    28.664     8.780
    30   6 C        2.921    -0.047    29.175     8.858
    31   6 C        2.923     0.071    26.416     8.428
    32   7 N        2.752    -0.068    22.560     7.054
    33   6 C        2.926     0.064    26.569     8.453
    34   6 C        2.922    -0.046    29.141     8.852
    35   6 C        2.920    -0.029    28.716     8.788
    36   6 C        2.919    -0.036    28.896     8.815
    37   6 C        2.920    -0.028    28.694     8.784
    38   6 C        2.922    -0.045    29.123     8.850
    39   6 C        2.926     0.064    26.557     8.451
    40   6 C        2.922    -0.045    29.130     8.851
    41   6 C        2.920    -0.028    28.711     8.787
    42   6 C        2.919    -0.036    28.902     8.816
    43   6 C        2.920    -0.028    28.710     8.787
    44   6 C        2.922    -0.046    29.136     8.852
    45   6 C        2.920    -0.048    29.201     8.861
    46   6 C        2.925    -0.024    28.593     8.769
    47   1 H        0.926     0.039     2.457     2.451
    48   1 H        0.926     0.040     2.453     2.449
    49   1 H        0.926     0.035     2.519     2.482
    50   1 H        0.926     0.035     2.519     2.482
    51   1 H        0.926     0.033     2.542     2.493
    52   1 H        0.926     0.034     2.528     2.487
    53   1 H        0.926     0.034     2.535     2.490
    54   1 H        0.926     0.036     2.496     2.471
    55   1 H        0.926     0.037     2.491     2.468
    56   1 H        0.926     0.033     2.539     2.492
    57   1 H        0.926     0.034     2.535     2.490
    58   1 H        0.926     0.033     2.549     2.497
    59   1 H        0.926     0.038     2.469     2.457
    60   1 H        0.926     0.055     2.259     2.350
    61   1 H        0.925     0.041     2.431     2.438
    62   1 H        0.926     0.039     2.457     2.451
    63   1 H        0.926     0.040     2.453     2.449
    64   1 H        0.926     0.033     2.549     2.497
    65   1 H        0.926     0.034     2.535     2.490
    66   1 H        0.926     0.033     2.539     2.492
    67   1 H        0.926     0.037     2.491     2.468
    68   1 H        0.926     0.036     2.496     2.471
    69   1 H        0.926     0.034     2.535     2.490
    70   1 H        0.926     0.034     2.528     2.487
    71   1 H        0.926     0.033     2.542     2.493
    72   1 H        0.926     0.035     2.519     2.482
    73   1 H        0.926     0.035     2.519     2.482
    74   1 H        0.926     0.038     2.469     2.457
    75   1 H        0.926     0.055     2.259     2.350

molecular dipole:
                 x           y           z       tot (Debye)
 q only:        0.000       0.274       0.176
   full:        0.000       0.154       0.279       0.809

 projected vibrational frequencies (cm⁻¹)
eigval :       -0.00    -0.00    -0.00     0.00     0.00     0.00
eigval :        8.21     9.00    13.08    24.67    31.28    34.46
eigval :       41.02    46.34    46.65    57.93    58.55    71.93
eigval :       74.26    75.30    85.88    95.05   109.59   122.18
eigval :      127.14   147.75   164.19   185.05   187.70   211.30
eigval :      214.07   218.70   236.15   239.90   280.10   286.30
eigval :      306.93   308.38   311.04   329.11   369.11   373.28
eigval :      378.07   378.51   380.35   380.60   386.94   387.40
eigval :      392.66   398.45   402.28   424.30   432.65   477.81
eigval :      479.78   490.78   491.49   502.96   508.00   547.47
eigval :      562.37   573.88   583.77   584.25   584.55   587.17
eigval :      593.76   593.80   600.73   608.67   610.47   633.14
eigval :      637.57   660.55   661.25   665.51   668.71   681.54
eigval :      694.47   700.80   726.57   748.78   758.32   758.42
eigval :      760.50   761.95   818.10   820.01   828.51   836.21
eigval :      865.47   866.14   875.78   875.81   876.42   876.55
eigval :      895.28   895.46   895.64   895.81   900.29   910.02
eigval :      910.07   915.74   917.67   919.24   924.56   926.01
eigval :      927.30   928.41   928.41   929.38   929.58   930.67
eigval :      930.68   931.49   931.54   981.39   985.85  1005.34
eigval :     1005.38  1008.20  1018.89  1070.42  1082.65  1082.66
eigval :     1083.75  1083.75  1121.58  1121.58  1123.51  1123.55
eigval :     1142.32  1143.56  1161.85  1180.42  1180.45  1180.58
eigval :     1180.59  1186.07  1186.36  1191.89  1194.68  1194.83
eigval :     1195.07  1197.84  1213.95  1215.50  1223.08  1267.43
eigval :     1268.24  1276.79  1277.59  1278.01  1281.12  1282.86
eigval :     1301.73  1310.06  1312.50  1317.50  1317.90  1325.70
eigval :     1325.89  1331.20  1331.99  1333.80  1344.67  1382.06
eigval :     1389.82  1418.00  1418.39  1436.25  1436.36  1441.88
eigval :     1442.18  1468.85  1469.80  1474.18  1474.27  1487.76
eigval :     1491.59  1493.41  1515.25  1549.94  1550.42  1578.39
eigval :     1578.40  1582.14  1582.22  1589.92  1591.05  1593.85
eigval :     1593.94  1599.99  1600.12  2339.64  3048.46  3077.58
eigval :     3077.58  3078.35  3078.37  3079.26  3079.26  3081.03
eigval :     3081.05  3086.90  3086.94  3087.66  3087.70  3087.86
eigval :     3087.99  3088.99  3089.19  3091.12  3091.15  3092.04
eigval :     3092.12  3099.02  3099.05  3099.54  3099.65  3099.93
eigval :     3100.35  3105.78  3105.91

   temp. (K)  partition function   enthalpy   heat capacity  entropy
                                   cal/mol     cal/K/mol   cal/K/mol   J/K/mol
 298.15  VIB  0.135E+19            22032.941    136.054    139.556
         ROT  0.102E+09              888.752      2.981     39.625
         INT  0.137E+27            22921.693    139.035    179.181
         TR   0.139E+29             1481.254      4.968     44.997
         TOT                       24402.9472   144.0035   224.1777   937.9597

       T/K    H(0)-H(T)+PV         H(T)/Eh          T*S/Eh         G(T)/Eh
   ------------------------------------------------------------------------
    298.15    0.388886E-01    0.612618E+00    0.106514E+00    0.506104E+00
   ------------------------------------------------------------------------

         :::::::::::::::::::::::::::::::::::::::::::::::::::::
         ::                  THERMODYNAMIC                  ::
         :::::::::::::::::::::::::::::::::::::::::::::::::::::
         :: total free energy        -116.662282891924 Eh   ::
         ::.................................................::
         :: total energy             -117.168386979647 Eh   ::
         :: zero point energy           0.573729598716 Eh   ::
         :: G(RRHO) w/o ZPVE           -0.067625510993 Eh   ::
         :: G(RRHO) contrib.            0.506104087723 Eh   ::
         :::::::::::::::::::::::::::::::::::::::::::::::::::::

           -------------------------------------------------
          | TOTAL ENERGY             -117.168386979647 Eh   |
          | TOTAL ENTHALPY           -116.555768809209 Eh   |
          | TOTAL FREE ENERGY        -116.662282891924 Eh   |
          | GRADIENT NORM               0.000046776424 Eh/α |
          | HOMO-LUMO GAP               1.945853965013 eV   |
           -------------------------------------------------

 * finished run on 2025/09/14 at 11:10:19.263
