   * xtb version 6.7.1 (edcfbbe) compiled by 'albert@albert-system' on 2024-07-22

   ID    Z sym.   atoms
    1    6 C      1-4, 6-19, 21-27, 29-40, 42-48, 50-61, 63
    2    7 N      5, 20, 28, 41, 49, 62
    3    1 H      64-99

          program call               : xtb data2507/toluene/TrisCz-Trz/TrisCz-Trz_toluene_T1_crest.xyz --gfn 2 --uhf 2 --gbsa toluene --ohess vtight --parallel 40 --molden --ceasefiles --namespace data2507/toluene/TrisCz-Trz/TrisCz-Trz_toluene_T1_finalOpt
      * Solvation model:               GBSA
        Solvent                        toluene
        Solvent mass                       9.2140E+01 g/mol
          :  Hamiltonian                  GFN2-xTB          :
 * total energy  :  -158.0823916 Eh     change       -0.5410357E-09 Eh
 * total energy  :  -158.0825832 Eh     change       -0.1916714E-03 Eh
 * total energy  :  -158.0828044 Eh     change       -0.2211509E-03 Eh
 * total energy  :  -158.0828941 Eh     change       -0.8972456E-04 Eh
 * total energy  :  -158.0830025 Eh     change       -0.1084135E-03 Eh
 * total energy  :  -158.0831359 Eh     change       -0.1334174E-03 Eh
 * total energy  :  -158.0832708 Eh     change       -0.1348829E-03 Eh
 * total energy  :  -158.0834116 Eh     change       -0.1408079E-03 Eh
 * total energy  :  -158.0835724 Eh     change       -0.1607875E-03 Eh
 * total energy  :  -158.0837255 Eh     change       -0.1530897E-03 Eh
 * total energy  :  -158.0847503 Eh     change       -0.1081637E-05 Eh
 * total energy  :  -158.0847512 Eh     change       -0.9064846E-06 Eh
 * total energy  :  -158.0847521 Eh     change       -0.9224460E-06 Eh
 * total energy  :  -158.0847530 Eh     change       -0.8904784E-06 Eh
 * total energy  :  -158.0847539 Eh     change       -0.8887959E-06 Eh
 * total energy  :  -158.0847548 Eh     change       -0.8600149E-06 Eh
 * total energy  :  -158.0847556 Eh     change       -0.8516124E-06 Eh
 * total energy  :  -158.0847566 Eh     change       -0.9296386E-06 Eh
 * total energy  :  -158.0847566 Eh     change       -0.4776268E-09 Eh
   *** GEOMETRY OPTIMIZATION CONVERGED AFTER 68 ITERATIONS ***

 final structure:
================
99
 xtb: 6.7.1 (edcfbbe)
C           -0.80430968673703        4.10845024852226        2.00790906037286
C           -2.17641457802409        4.33529549034748        2.02933377790251
C           -3.02993876275368        3.42424189575170        1.43094820547844
C           -2.53394187992457        2.28012464557739        0.82102968760090
N           -3.43176740069216        1.41076403950712        0.18177117085315
C           -3.40683518050316        1.06282721390083       -1.15051553512780
C           -2.51010617239132        1.43266354750641       -2.14345799945322
C           -2.72236621030619        0.93940609910751       -3.41753864196013
C           -3.80740739029775        0.11576954062528       -3.70943441007477
C           -4.71934791393616       -0.23353599888993       -2.73024570957817
C           -4.52266426410781        0.24081259725677       -1.44076230151319
C           -5.24744696574415        0.08918220206355       -0.20677320832087
C           -6.40137334144133       -0.59330281652314        0.15055005298163
C           -6.82218194724606       -0.53786174760243        1.46693796426342
C           -6.10183139051062        0.17660132464308        2.42257854574810
C           -4.95050765199730        0.86529486029190        2.09035662783368
C           -4.53323806692209        0.82893521895151        0.76595936341424
C           -1.14638762191800        2.02904269803078        0.81512259480364
C           -0.57951332852127        0.82313341319379        0.26442291301715
N           -1.33680900691959       -0.31715592537821        0.21215551030253
C           -0.69848155073374       -1.39397581646588       -0.21234301830550
C           -1.42383239291699       -2.67712514008158       -0.10371476589667
C           -2.75825744778516       -2.76716769451145       -0.47297145933298
C           -3.42744355543421       -3.97604902828286       -0.40177398856195
C           -2.76814413752415       -5.10516356908427        0.05714353475042
C           -1.44691960590738       -5.02239748828430        0.45917290663886
C           -0.76477567478580       -3.81263124640055        0.38389115768467
N            0.56809098545496       -3.73799268702459        0.81667427616793
C            1.07109092758535       -2.82169736266608        1.71712577648483
C            0.39581062229285       -1.90172148917010        2.50685480892390
C            1.14810758595659       -1.08284855460250        3.32838568390064
C            2.53594630831784       -1.18863961450621        3.38475356989214
C            3.20890443989744       -2.13407060112230        2.63332666204058
C            2.47530524268709       -2.96300905099835        1.79657376941618
C            2.82755619526692       -4.02992602636321        0.89885220176520
C            4.03044031939515       -4.62408915010597        0.54418017997157
C            4.01529002669030       -5.64271166906274       -0.39049889302471
C            2.82347212893554       -6.05800233548535       -0.98077403299873
C            1.61291244738747       -5.48068024195345       -0.64455981817461
C            1.61983258218772       -4.47372161915993        0.31073631599052
N            0.52315568829127       -1.43430172302911       -0.68853852607211
C            1.23720628362389       -0.25876684710667       -0.61449074902971
C            2.59681025079603       -0.26993065673468       -1.04467389602100
C            3.20509428942953       -1.48404006563047       -1.41628227906988
C            4.54018426243240       -1.54859003902295       -1.73199844325612
C            5.32689950350899       -0.40008424286883       -1.69469860983340
C            4.74473422528878        0.81499389746907       -1.36904006940918
C            3.39675565553988        0.89877139459709       -1.06203787457847
N            2.84487150932795        2.16264875704531       -0.78540509674295
C            1.93568694681647        2.83668445299456       -1.57323964327345
C            1.30427077533282        2.42074042704651       -2.73565510320417
C            0.43756513730584        3.30780922138324       -3.34829391154041
C            0.20425039447376        4.57629850388404       -2.82252700966264
C            0.84550156475745        5.00101660942254       -1.67259422960316
C            1.72321344868623        4.13084210943510       -1.04347745402855
C            2.56363847912960        4.23499887717474        0.12056713674290
C            2.80200541397119        5.23697425103719        1.04923411914084
C            3.69407718022151        4.98788245040098        2.07770475468469
C            4.34009186225122        3.75723239960298        2.19083379558448
C            4.12299996719161        2.74420887832601        1.27649732963744
C            3.23768290155658        2.99349957000319        0.23440248229052
N            0.68454268652686        0.83155909390886       -0.10375297917941
C           -0.30121549089371        2.97573768546871        1.41056523638880
H           -0.13035071142793        4.81509920821629        2.46790038993847
H           -2.57721605373730        5.21980744897767        2.49969542679976
H           -4.09537419052730        3.60481264225418        1.41382895345931
H           -1.66889001803541        2.07628675786005       -1.92893209752813
H           -2.03244954828196        1.20119334226316       -4.20606046703649
H           -3.93759591534077       -0.24797069275824       -4.71782757354601
H           -5.56519466540199       -0.86342090493958       -2.96094435134513
H           -6.95591500695259       -1.15640621084393       -0.58478046171677
H           -7.71904606247335       -1.06035040739790        1.76432375205523
H           -6.44967979903268        0.19086668778628        3.44486671047610
H           -4.38843828825086        1.40891458540221        2.83477402601899
H           -3.25561508473533       -1.87990237864830       -0.83233066513838
H           -4.46112769367262       -4.03632938496633       -0.70499120995236
H           -3.28612995338381       -6.05029640529300        0.11646854502354
H           -0.93628487447943       -5.89025619012086        0.85000149385564
H           -0.68132575633421       -1.81730034824882        2.47567544878413
H            0.64690250972690       -0.34462581091655        3.93820083840201
H            3.08811087133032       -0.52520896694854        4.03389035010837
H            4.28303046649218       -2.22576216916526        2.69103430721230
H            4.95623702594449       -4.29145303107363        0.98831440324228
H            4.94034432240540       -6.12037388937052       -0.67701081588408
H            2.84543843622587       -6.84688871062253       -1.71793317809075
H            0.69464552344988       -5.79624947835755       -1.11630955921823
H            2.58923576199679       -2.36993959259250       -1.42318527140969
H            4.98115495447434       -2.49586415531679       -2.00403609803581
H            6.37760584695132       -0.44756161703360       -1.93447337404674
H            5.33548067777576        1.72055927287868       -1.37064281162013
H            1.48148662640229        1.43571740470527       -3.14299807048545
H           -0.06766343076391        3.01258254176753       -4.25616277163063
H           -0.48503858161954        5.23662313642336       -3.32744508288297
H            0.66909315516359        5.98820720997616       -1.27371338083463
H            2.29945017245248        6.18875242916203        0.96953483839649
H            3.89280528216869        5.75589285233813        2.81024684713971
H            5.02440552145793        3.59315990839473        3.00988588244949
H            4.61748967764243        1.78834144269296        1.36414508984625
H            0.75860229119349        2.77395593344620        1.41437738094685

          :  Hamiltonian                  GFN2-xTB          :
         :: gradient norm              0.000059257543 Eh/a0 ::
         :: HOMO-LUMO gap              0.247965299405 eV    ::
         :: SCC energy              -161.006056019030 Eh    ::
         :: -> dispersion             -0.171383351349 Eh    ::
         :: -> Gsolv                  -0.060161539235 Eh    ::
         :: repulsion energy           2.921299448903 Eh    ::

    * Orbital Energies and Occupations

         #    Occupation            Energy/Eh            Energy/eV
      -------------------------------------------------------------
         1        2.0000           -0.6864692             -18.6798
       ...           ...                  ...                  ...
       136        2.0000           -0.4138802             -11.2623
       137        2.0000           -0.4119749             -11.2104
       138        2.0000           -0.4085646             -11.1176
       139        2.0000           -0.4014707             -10.9246
       140        2.0000           -0.3898676             -10.6088
       141        2.0000           -0.3885641             -10.5734
       142        2.0000           -0.3879130             -10.5557
       143        2.0000           -0.3785806             -10.3017
       144        2.0000           -0.3768421             -10.2544
       145        1.9982           -0.3730456             -10.1511
       146        1.6581           -0.3676747             -10.0049
       147        1.3437           -0.3664380              -9.9713
       148        0.9918           -0.2873538              -7.8193 (HOMO)
       149        0.0082           -0.2782413              -7.5713 (LUMO)
       150                         -0.2560470              -6.9674
       151                         -0.2554146              -6.9502
       152                         -0.2550162              -6.9393
       153                         -0.2491460              -6.7796
       154                         -0.2443224              -6.6484
       155                         -0.2356052              -6.4111
       156                         -0.2331789              -6.3451
       157                         -0.2318567              -6.3091
       158                         -0.2314721              -6.2987
       159                         -0.2312850              -6.2936
       ...                                ...                  ...
       288                          0.7360453              20.0288
      -------------------------------------------------------------
                  HL-Gap            0.0091126 Eh            0.2480 eV

     #   Z          covCN         q      C6AA      α(0)
     1   6 C        2.916    -0.033    28.834     8.805
     2   6 C        2.918    -0.038    28.948     8.823
     3   6 C        2.921    -0.046    29.130     8.851
     4   6 C        2.914     0.057    26.726     8.477
     5   7 N        2.803    -0.023    21.682     6.916
     6   6 C        3.078     0.061    26.550     8.448
     7   6 C        2.909    -0.044    29.082     8.843
     8   6 C        2.924    -0.035    28.877     8.812
     9   6 C        2.919    -0.041    29.023     8.834
    10   6 C        2.912    -0.035    28.873     8.811
    11   6 C        3.068    -0.017    28.369     8.734
    12   6 C        3.066    -0.015    28.319     8.726
    13   6 C        2.912    -0.033    28.820     8.803
    14   6 C        2.920    -0.038    28.942     8.822
    15   6 C        2.923    -0.033    28.828     8.805
    16   6 C        2.909    -0.046    29.152     8.853
    17   6 C        3.080     0.053    26.728     8.476
    18   6 C        2.980    -0.015    28.379     8.738
    19   6 C        2.946     0.199    23.769     7.996
    20   7 N        1.842    -0.339    29.655     8.071
    21   6 C        2.949     0.237    23.062     7.877
    22   6 C        2.987    -0.006    28.156     8.704
    23   6 C        2.923    -0.030    28.759     8.794
    24   6 C        2.918    -0.031    28.776     8.797
    25   6 C        2.919    -0.028    28.691     8.784
    26   6 C        2.922    -0.045    29.110     8.848
    27   6 C        2.915     0.068    26.486     8.439
    28   7 N        2.802    -0.039    21.994     6.965
    29   6 C        3.078     0.063    26.514     8.442
    30   6 C        2.909    -0.047    29.162     8.855
    31   6 C        2.923    -0.036    28.896     8.815
    32   6 C        2.920    -0.042    29.041     8.837
    33   6 C        2.912    -0.036    28.891     8.814
    34   6 C        3.067    -0.017    28.363     8.733
    35   6 C        3.068    -0.014    28.291     8.722
    36   6 C        2.912    -0.032    28.807     8.801
    37   6 C        2.920    -0.039    28.961     8.825
    38   6 C        2.923    -0.033    28.827     8.805
    39   6 C        2.909    -0.049    29.227     8.865
    40   6 C        3.076     0.055    26.690     8.470
    41   7 N        1.844    -0.333    29.485     8.047
    42   6 C        2.941     0.188    23.994     8.034
    43   6 C        2.977    -0.018    28.447     8.749
    44   6 C        2.924    -0.040    28.995     8.830
    45   6 C        2.915    -0.034    28.840     8.806
    46   6 C        2.918    -0.043    29.079     8.843
    47   6 C        2.920    -0.045    29.111     8.848
    48   6 C        2.913     0.049    26.891     8.503
    49   7 N        2.803    -0.019    21.609     6.904
    50   6 C        3.082     0.060    26.563     8.449
    51   6 C        2.909    -0.043    29.073     8.841
    52   6 C        2.924    -0.034    28.841     8.807
    53   6 C        2.920    -0.040    28.997     8.830
    54   6 C        2.912    -0.033    28.827     8.804
    55   6 C        3.067    -0.015    28.321     8.726
    56   6 C        3.066    -0.012    28.249     8.715
    57   6 C        2.911    -0.032    28.796     8.799
    58   6 C        2.920    -0.036    28.902     8.816
    59   6 C        2.923    -0.033    28.815     8.803
    60   6 C        2.909    -0.045    29.129     8.850
    61   6 C        3.082     0.053    26.728     8.475
    62   7 N        1.847    -0.265    27.742     7.806
    63   6 C        2.926    -0.037    28.931     8.821
    64   1 H        0.926     0.043     2.414     2.430
    65   1 H        0.926     0.046     2.375     2.410
    66   1 H        0.926     0.043     2.411     2.428
    67   1 H        0.926     0.015     2.804     2.619
    68   1 H        0.926     0.029     2.596     2.520
    69   1 H        0.926     0.037     2.493     2.469
    70   1 H        0.926     0.042     2.428     2.437
    71   1 H        0.926     0.041     2.435     2.440
    72   1 H        0.926     0.041     2.441     2.443
    73   1 H        0.926     0.040     2.451     2.448
    74   1 H        0.926     0.033     2.546     2.495
    75   1 H        0.926     0.045     2.386     2.415
    76   1 H        0.926     0.053     2.285     2.364
    77   1 H        0.926     0.057     2.238     2.339
    78   1 H        0.926     0.053     2.288     2.365
    79   1 H        0.926     0.016     2.795     2.614
    80   1 H        0.926     0.027     2.623     2.533
    81   1 H        0.926     0.035     2.512     2.479
    82   1 H        0.926     0.039     2.466     2.456
    83   1 H        0.926     0.039     2.468     2.457
    84   1 H        0.926     0.040     2.454     2.450
    85   1 H        0.926     0.040     2.442     2.444
    86   1 H        0.926     0.034     2.536     2.490
    87   1 H        0.926     0.040     2.453     2.449
    88   1 H        0.926     0.037     2.483     2.464
    89   1 H        0.926     0.041     2.438     2.442
    90   1 H        0.925     0.038     2.474     2.460
    91   1 H        0.926     0.019     2.742     2.590
    92   1 H        0.926     0.033     2.540     2.492
    93   1 H        0.926     0.038     2.470     2.458
    94   1 H        0.926     0.042     2.416     2.430
    95   1 H        0.926     0.043     2.410     2.428
    96   1 H        0.926     0.042     2.416     2.431
    97   1 H        0.926     0.041     2.432     2.438
    98   1 H        0.926     0.033     2.548     2.496
    99   1 H        0.926     0.037     2.495     2.470

molecular dipole:
                 x           y           z       tot (Debye)
 q only:       -0.415      -0.125       0.330
   full:       -0.401      -0.118       0.279       1.278

 projected vibrational frequencies (cm⁻¹)
eigval :       -0.00     0.00     0.00     0.00     0.00     0.00
eigval :        5.90    12.50    20.52    22.64    24.17    27.46
eigval :       32.17    39.54    41.18    52.49    56.87    59.25
eigval :       68.01    69.01    76.37    88.97    94.52   102.22
eigval :      108.01   112.52   123.24   133.08   141.48   142.79
eigval :      147.84   149.69   161.51   171.80   175.98   191.88
eigval :      192.58   208.02   215.68   243.77   254.16   264.91
eigval :      269.50   271.68   271.83   274.28   275.33   281.00
eigval :      314.33   321.15   337.04   372.21   383.79   392.52
eigval :      393.93   396.68   402.19   405.77   413.78   422.42
eigval :      423.12   425.20   429.90   431.88   434.07   435.48
eigval :      443.00   451.11   472.77   480.07   494.13   515.82
eigval :      516.25   516.95   537.55   538.63   539.85   540.67
eigval :      541.18   544.81   563.96   568.64   572.14   581.54
eigval :      582.88   584.91   588.12   599.18   601.02   602.76
eigval :      608.06   609.62   610.30   618.61   646.59   669.80
eigval :      674.11   674.23   674.61   684.38   698.11   704.28
eigval :      706.59   708.27   710.78   713.58   718.77   721.06
eigval :      754.87   755.06   755.68   763.62   764.81   768.33
eigval :      769.57   772.84   776.04   778.86   780.07   786.49
eigval :      811.39   815.76   861.46   866.39   868.31   868.65
eigval :      868.86   870.13   873.42   875.59   885.36   890.97
eigval :      894.53   896.37   896.71   899.54   900.85   901.42
eigval :      901.65   902.62   903.50   909.52   915.05   916.07
eigval :      916.56   917.34   917.35   920.08   920.42   921.12
eigval :      921.69   923.00   923.89   924.62   930.43   965.80
eigval :      996.94  1010.00  1010.57  1010.89  1025.28  1063.67
eigval :     1065.75  1067.36  1068.67  1069.61  1071.21  1072.90
eigval :     1080.93  1083.93  1085.48  1087.91  1108.00  1117.17
eigval :     1130.13  1141.08  1142.02  1144.02  1146.66  1147.92
eigval :     1168.12  1170.36  1171.60  1172.45  1173.73  1174.27
eigval :     1176.50  1177.34  1178.31  1182.97  1187.07  1189.89
eigval :     1199.97  1228.38  1230.57  1230.92  1232.59  1233.30
eigval :     1236.44  1241.34  1243.17  1243.92  1277.78  1288.51
eigval :     1289.90  1291.06  1291.87  1294.08  1295.42  1310.67
eigval :     1316.90  1326.68  1331.61  1339.70  1342.54  1347.24
eigval :     1348.64  1350.80  1351.75  1352.52  1359.01  1359.05
eigval :     1361.88  1382.94  1392.02  1411.64  1414.36  1417.99
eigval :     1418.58  1420.10  1422.77  1433.62  1436.89  1442.45
eigval :     1452.04  1462.12  1464.00  1465.91  1469.65  1481.40
eigval :     1481.81  1482.16  1483.83  1509.95  1525.66  1562.30
eigval :     1563.32  1565.52  1566.27  1570.36  1573.14  1580.14
eigval :     1582.22  1582.95  1583.49  1585.08  1586.78  1588.78
eigval :     1601.01  1602.30  1606.82  3067.00  3070.61  3071.39
eigval :     3072.53  3076.07  3077.52  3078.01  3078.25  3078.61
eigval :     3079.40  3079.81  3080.00  3082.06  3082.14  3083.10
eigval :     3083.90  3083.99  3085.37  3085.60  3087.20  3088.47
eigval :     3089.83  3090.91  3091.71  3092.59  3094.26  3095.86
eigval :     3096.18  3096.58  3096.87  3097.53  3098.32  3099.81
eigval :     3102.16  3105.62  3110.53

   temp. (K)  partition function   enthalpy   heat capacity  entropy
                                   cal/mol     cal/K/mol   cal/K/mol   J/K/mol
 298.15  VIB  0.136E+23            28738.073    183.694    178.301
         ROT  0.954E+08              888.752      2.981     39.494
         INT  0.130E+31            29626.826    186.675    217.794
         TR   0.221E+29             1481.254      4.968     45.914
         TOT                       31108.0797   191.6427   263.7082  1103.3550

       T/K    H(0)-H(T)+PV         H(T)/Eh          T*S/Eh         G(T)/Eh
   ------------------------------------------------------------------------
    298.15    0.495739E-01    0.796779E+00    0.125296E+00    0.671483E+00
   ------------------------------------------------------------------------

         :::::::::::::::::::::::::::::::::::::::::::::::::::::
         ::                  THERMODYNAMIC                  ::
         :::::::::::::::::::::::::::::::::::::::::::::::::::::
         :: total free energy        -157.413273504330 Eh   ::
         ::.................................................::
         :: total energy             -158.084756568761 Eh   ::
         :: zero point energy           0.747205444070 Eh   ::
         :: G(RRHO) w/o ZPVE           -0.075722379639 Eh   ::
         :: G(RRHO) contrib.            0.671483064431 Eh   ::
         :::::::::::::::::::::::::::::::::::::::::::::::::::::

           -------------------------------------------------
          | TOTAL ENERGY             -158.084756568761 Eh   |
          | TOTAL ENTHALPY           -157.287977244174 Eh   |
          | TOTAL FREE ENERGY        -157.413273504330 Eh   |
          | GRADIENT NORM               0.000058666313 Eh/α |
          | HOMO-LUMO GAP               0.247965833051 eV   |
           -------------------------------------------------

 * finished run on 2025/09/14 at 13:23:28.701
