   * xtb version 6.7.1 (edcfbbe) compiled by 'albert@albert-system' on 2024-07-22

   ID    Z sym.   atoms
    1    6 C      1-4, 6-19, 21-27, 29-40, 42-48, 50-61, 63
    2    7 N      5, 20, 28, 41, 49, 62
    3    1 H      64-99

          program call               : xtb data2507/toluene/TrisCz-Trz/TrisCz-Trz_toluene_S0_finalOpt.xtbopt.xyz --gfn 2 --uhf 2 --gbsa toluene --ohess vtight --parallel 40 --molden --ceasefiles --namespace data2507/toluene/TrisCz-Trz/TrisCz-Trz_toluene_T1_preOpt
      * Solvation model:               GBSA
        Solvent                        toluene
        Solvent mass                       9.2140E+01 g/mol
          :  Hamiltonian                  GFN2-xTB          :
 * total energy  :  -158.0802100 Eh     change       -0.6975966E-08 Eh
 * total energy  :  -158.0822858 Eh     change       -0.2075802E-02 Eh
 * total energy  :  -158.0835357 Eh     change       -0.1249823E-02 Eh
 * total energy  :  -158.0838001 Eh     change       -0.2644012E-03 Eh
 * total energy  :  -158.0840365 Eh     change       -0.2363866E-03 Eh
 * total energy  :  -158.0840973 Eh     change       -0.6080203E-04 Eh
 * total energy  :  -158.0841615 Eh     change       -0.6425494E-04 Eh
 * total energy  :  -158.0841994 Eh     change       -0.3788843E-04 Eh
 * total energy  :  -158.0842529 Eh     change       -0.5351392E-04 Eh
 * total energy  :  -158.0843049 Eh     change       -0.5199176E-04 Eh
 * total energy  :  -158.0847391 Eh     change       -0.6513440E-06 Eh
 * total energy  :  -158.0847397 Eh     change       -0.6329681E-06 Eh
 * total energy  :  -158.0847404 Eh     change       -0.6612877E-06 Eh
 * total energy  :  -158.0847411 Eh     change       -0.7486797E-06 Eh
 * total energy  :  -158.0847420 Eh     change       -0.9049204E-06 Eh
 * total energy  :  -158.0847432 Eh     change       -0.1158642E-05 Eh
 * total energy  :  -158.0847445 Eh     change       -0.1299060E-05 Eh
 * total energy  :  -158.0847455 Eh     change       -0.9880609E-06 Eh
 * total energy  :  -158.0847456 Eh     change       -0.8812341E-07 Eh
   *** GEOMETRY OPTIMIZATION CONVERGED AFTER 68 ITERATIONS ***

 final structure:
================
99
 xtb: 6.7.1 (edcfbbe)
C           -1.05177030305638        4.29870576238050        1.68473451437309
C           -2.42715323915485        4.48375820519344        1.60303965883398
C           -3.22065479754928        3.48833893206284        1.05976774152267
C           -2.66126651618144        2.30104475957813        0.60548400012036
N           -3.49995519185832        1.34290864919503        0.01494566912735
C           -3.38760233346575        0.84911688379045       -1.26593252526185
C           -2.44085588203511        1.12962461066539       -2.24144649465636
C           -2.56538887537902        0.49041046660035       -3.46096989235805
C           -3.61311607982928       -0.39089802962801       -3.71911107554529
C           -4.57511884962621       -0.65235813944801       -2.76116620555674
C           -4.46687384008483       -0.03007367068177       -1.52528663788879
C           -5.26288038322497       -0.06094791683373       -0.32674692256777
C           -6.42263255157770       -0.73036460356141        0.03732375173706
C           -6.92488872012311       -0.53851507556831        1.31141416486632
C           -6.27951700117479        0.29856582980768        2.21988879872939
C           -5.12392355731526        0.97627682219333        1.88011745700800
C           -4.62482281843016        0.80216927611043        0.59570835386616
C           -1.27104884560022        2.09673256265268        0.70278894654171
C           -0.63310133454649        0.86353918071314        0.29686092486587
N           -1.33342868238753       -0.30869194000426        0.34718012644648
C           -0.63845096223207       -1.38941072342175        0.01291975247654
C           -1.31634700764082       -2.68856447088934        0.18243025130671
C           -2.67518330887888       -2.80194280329183       -0.08316324760493
C           -3.31643200638704       -4.02236904122494        0.02216635016828
C           -2.60400311441347       -5.14512332240921        0.41331098151935
C           -1.25830625514117       -5.04067439884766        0.71624364046437
C           -0.60383569409989       -3.81772937425377        0.60730349583260
N            0.75311371407974       -3.73272346102798        0.95214804769773
C            1.30312672553143       -2.85334382569692        1.86194611023235
C            0.67475540812530       -1.93428388476749        2.68993969227482
C            1.46997142949528       -1.15993667176147        3.51443052059892
C            2.85503269101869       -1.30675754733942        3.53369487778316
C            3.48221269432405       -2.24829075609048        2.73894528105127
C            2.70472003714758       -3.03346208629290        1.89984773669297
C            3.00517569503923       -4.08449831905667        0.96493701656987
C            4.18189148856824       -4.69863513293407        0.56040321619214
C            4.11456408855975       -5.68957233123215       -0.40170619561482
C            2.89646003573802       -6.05840827700096       -0.96909462551611
C            1.71088900770112       -5.46174223241815       -0.58210629513941
C            1.77015141906095       -4.48230237812332        0.40028249649682
N            0.59046668917432       -1.40297601596744       -0.43985408485539
C            1.24827956435239       -0.19549153119987       -0.46638945590746
C            2.60483412298188       -0.17153200112670       -0.89700552093160
C            3.26948194448660       -1.37706400084219       -1.19739080285887
C            4.60579112047856       -1.39979080470199       -1.51119248521182
C            5.34071929342313       -0.21679565270584       -1.54367933311157
C            4.70314490337801        0.98785489827067       -1.29080211725665
C            3.35262075968570        1.02917414162344       -0.98840950253954
N            2.74453651222714        2.28287882546447       -0.79102038800428
C            1.82606221267256        2.87414578536798       -1.63204697729435
C            1.23519719290601        2.36748460630792       -2.77967071437974
C            0.34630145921622        3.18211481545097       -3.45775615257445
C            0.05198717684172        4.46756217028957       -3.00929460561716
C            0.65325680999194        4.98294006951692       -1.87495114857971
C            1.55245737290465        4.18676025919745       -1.18157494438735
C            2.36550606092647        4.39066215861747       -0.01133611715749
C            2.54669302753380        5.45232716620223        0.86230902110853
C            3.42679298467049        5.29736816300920        1.91923092712156
C            4.11718951986300        4.10158189843281        2.11446357954641
C            3.95784966688617        3.03061684227701        1.25596549900323
C            3.08447515905945        3.18511336886310        0.18577034141471
N            0.63200196636351        0.90924664773982       -0.05591916157613
C           -0.48669507660551        3.12470737409556        1.24101954258046
H           -0.42360397540976        5.07012987837794        2.10332795667902
H           -2.87712506618799        5.40080568538116        1.95059340497166
H           -4.28726804189504        3.63309710188263        0.96318337382280
H           -1.62881247694459        1.81787711480513       -2.05467824650927
H           -1.83398222379633        0.67959033696599       -4.23289521645098
H           -3.67421581484039       -0.86919713056245       -4.68535334796502
H           -5.39213391511218       -1.32736938159331       -2.96651669953260
H           -6.91858545012816       -1.38745253176226       -0.66099167384502
H           -7.82746433266717       -1.04840048395702        1.61336580162443
H           -6.69020850054310        0.41882651385832        3.21137036420391
H           -4.62025062751072        1.61495367454541        2.58998384300956
H           -3.21248188803274       -1.91944499359255       -0.39203748265566
H           -4.36920700603612       -4.09732716900697       -0.20132162106820
H           -3.09828966193032       -6.10091939556451        0.49834361804599
H           -0.70438246880513       -5.90308198810001        1.05717575887434
H           -0.39988956165320       -1.81699357303917        2.68546914827429
H            1.00512864043645       -0.42524954873903        4.15632041437627
H            3.44185080608426       -0.67838153777078        4.18722181085209
H            4.55441000972497       -2.37024833060752        2.76588610957703
H            5.12790867313596       -4.40231678691531        0.98717552719590
H            5.01881533968956       -6.18131920957568       -0.72799127453158
H            2.87775330234629       -6.82509607112528       -1.72936259853746
H            0.77192644540723       -5.74077102418724       -1.03592385455901
H            2.69425428653441       -2.28875226984553       -1.15375109293866
H            5.08892346098646       -2.34063353298926       -1.72886987197689
H            6.39282368727304       -0.23090263447269       -1.78147950956117
H            5.25221030700395        1.91769105842185       -1.34691126869977
H            1.46045641243671        1.36895118443480       -3.12590945043465
H           -0.12917361269299        2.81600087450659       -4.35590440724527
H           -0.65304713720207        5.06948875003618       -3.56311548628464
H            0.43010173859731        5.98338403607362       -1.53724854968755
H            2.01003969903297        6.37770272056996        0.71896880982191
H            3.58089084415307        6.11249201668102        2.61037592012951
H            4.79045158549171        4.01130131467782        2.95387346629865
H            4.48639912723633        2.10121639327570        1.40754791676491
H            0.57610224733606        2.95903497662260        1.32417013551915

          :  Hamiltonian                  GFN2-xTB          :
         :: gradient norm              0.000165962116 Eh/a0 ::
         :: HOMO-LUMO gap              0.192772440299 eV    ::
         :: SCC energy              -161.005627748059 Eh    ::
         :: -> dispersion             -0.170641793567 Eh    ::
         :: -> Gsolv                  -0.060274364736 Eh    ::
         :: repulsion energy           2.920882163385 Eh    ::

    * Orbital Energies and Occupations

         #    Occupation            Energy/Eh            Energy/eV
      -------------------------------------------------------------
         1        2.0000           -0.6862409             -18.6736
       ...           ...                  ...                  ...
       136        2.0000           -0.4136826             -11.2569
       137        2.0000           -0.4107746             -11.1777
       138        2.0000           -0.4087678             -11.1231
       139        2.0000           -0.4004837             -10.8977
       140        2.0000           -0.3893807             -10.5956
       141        2.0000           -0.3883731             -10.5682
       142        2.0000           -0.3880207             -10.5586
       143        2.0000           -0.3783722             -10.2960
       144        2.0000           -0.3768171             -10.2537
       145        1.9985           -0.3727410             -10.1428
       146        1.6445           -0.3671443              -9.9905
       147        1.3571           -0.3660204              -9.9599
       148        0.9765           -0.2866298              -7.7996 (HOMO)
       149        0.0235           -0.2795449              -7.6068 (LUMO)
       150                         -0.2559060              -6.9636
       151                         -0.2551473              -6.9429
       152                         -0.2545848              -6.9276
       153                         -0.2491739              -6.7804
       154                         -0.2440171              -6.6400
       155                         -0.2362482              -6.4286
       156                         -0.2326690              -6.3312
       157                         -0.2317130              -6.3052
       158                         -0.2313165              -6.2944
       159                         -0.2299164              -6.2563
       ...                                ...                  ...
       288                          0.7358546              20.0236
      -------------------------------------------------------------
                  HL-Gap            0.0070849 Eh            0.1928 eV

     #   Z          covCN         q      C6AA      α(0)
     1   6 C        2.916    -0.033    28.830     8.805
     2   6 C        2.918    -0.037    28.915     8.818
     3   6 C        2.922    -0.046    29.131     8.851
     4   6 C        2.914     0.058    26.693     8.472
     5   7 N        2.803    -0.025    21.734     6.924
     6   6 C        3.077     0.061    26.554     8.448
     7   6 C        2.909    -0.044    29.093     8.845
     8   6 C        2.924    -0.035    28.879     8.813
     9   6 C        2.920    -0.041    29.027     8.835
    10   6 C        2.912    -0.035    28.874     8.811
    11   6 C        3.068    -0.018    28.377     8.735
    12   6 C        3.066    -0.016    28.330     8.728
    13   6 C        2.912    -0.033    28.827     8.804
    14   6 C        2.920    -0.038    28.948     8.823
    15   6 C        2.923    -0.033    28.827     8.805
    16   6 C        2.909    -0.047    29.161     8.855
    17   6 C        3.080     0.053    26.734     8.477
    18   6 C        2.981    -0.014    28.362     8.736
    19   6 C        2.946     0.203    23.690     7.983
    20   7 N        1.842    -0.344    29.784     8.088
    21   6 C        2.947     0.233    23.130     7.888
    22   6 C        2.986    -0.007    28.183     8.708
    23   6 C        2.924    -0.031    28.764     8.795
    24   6 C        2.918    -0.031    28.776     8.797
    25   6 C        2.919    -0.027    28.688     8.783
    26   6 C        2.922    -0.045    29.107     8.847
    27   6 C        2.915     0.067    26.505     8.442
    28   7 N        2.802    -0.033    21.883     6.948
    29   6 C        3.077     0.062    26.532     8.445
    30   6 C        2.910    -0.046    29.144     8.852
    31   6 C        2.923    -0.036    28.892     8.815
    32   6 C        2.920    -0.041    29.029     8.835
    33   6 C        2.912    -0.035    28.866     8.810
    34   6 C        3.067    -0.016    28.339     8.729
    35   6 C        3.067    -0.013    28.272     8.719
    36   6 C        2.912    -0.032    28.800     8.800
    37   6 C        2.920    -0.038    28.947     8.823
    38   6 C        2.923    -0.033    28.821     8.804
    39   6 C        2.909    -0.049    29.210     8.862
    40   6 C        3.077     0.054    26.711     8.474
    41   7 N        1.845    -0.322    29.212     8.010
    42   6 C        2.938     0.184    24.074     8.047
    43   6 C        2.976    -0.019    28.470     8.752
    44   6 C        2.924    -0.041    29.027     8.835
    45   6 C        2.915    -0.034    28.848     8.807
    46   6 C        2.917    -0.045    29.112     8.848
    47   6 C        2.920    -0.045    29.111     8.848
    48   6 C        2.913     0.048    26.919     8.508
    49   7 N        2.803    -0.018    21.601     6.903
    50   6 C        3.083     0.060    26.561     8.449
    51   6 C        2.909    -0.043    29.071     8.841
    52   6 C        2.924    -0.034    28.845     8.808
    53   6 C        2.920    -0.040    29.001     8.831
    54   6 C        2.912    -0.033    28.829     8.804
    55   6 C        3.067    -0.015    28.325     8.727
    56   6 C        3.066    -0.012    28.253     8.716
    57   6 C        2.911    -0.032    28.799     8.800
    58   6 C        2.920    -0.036    28.906     8.817
    59   6 C        2.923    -0.033    28.820     8.804
    60   6 C        2.909    -0.045    29.129     8.850
    61   6 C        3.082     0.053    26.727     8.475
    62   7 N        1.847    -0.268    27.819     7.817
    63   6 C        2.926    -0.036    28.905     8.817
    64   1 H        0.926     0.044     2.400     2.423
    65   1 H        0.926     0.047     2.361     2.403
    66   1 H        0.926     0.044     2.398     2.422
    67   1 H        0.926     0.015     2.812     2.623
    68   1 H        0.926     0.028     2.609     2.526
    69   1 H        0.926     0.036     2.501     2.473
    70   1 H        0.926     0.041     2.430     2.438
    71   1 H        0.926     0.040     2.442     2.444
    72   1 H        0.926     0.040     2.448     2.447
    73   1 H        0.926     0.040     2.455     2.450
    74   1 H        0.926     0.033     2.546     2.495
    75   1 H        0.926     0.048     2.350     2.397
    76   1 H        0.926     0.052     2.291     2.367
    77   1 H        0.926     0.056     2.241     2.341
    78   1 H        0.926     0.052     2.291     2.367
    79   1 H        0.926     0.015     2.813     2.623
    80   1 H        0.926     0.029     2.605     2.524
    81   1 H        0.926     0.036     2.500     2.472
    82   1 H        0.926     0.040     2.444     2.445
    83   1 H        0.926     0.040     2.452     2.449
    84   1 H        0.926     0.040     2.448     2.447
    85   1 H        0.926     0.041     2.440     2.443
    86   1 H        0.926     0.034     2.533     2.489
    87   1 H        0.926     0.039     2.467     2.456
    88   1 H        0.926     0.036     2.499     2.472
    89   1 H        0.926     0.039     2.459     2.452
    90   1 H        0.925     0.037     2.495     2.470
    91   1 H        0.926     0.020     2.736     2.587
    92   1 H        0.926     0.033     2.538     2.491
    93   1 H        0.926     0.038     2.475     2.460
    94   1 H        0.926     0.042     2.420     2.433
    95   1 H        0.926     0.043     2.414     2.430
    96   1 H        0.926     0.042     2.421     2.433
    97   1 H        0.926     0.041     2.437     2.441
    98   1 H        0.926     0.032     2.555     2.499
    99   1 H        0.926     0.037     2.487     2.466

molecular dipole:
                 x           y           z       tot (Debye)
 q only:       -0.432      -0.178       0.332
   full:       -0.412      -0.163       0.294       1.353

 projected vibrational frequencies (cm⁻¹)
eigval :       -0.00    -0.00    -0.00     0.00     0.00     0.00
eigval :        7.20    10.89    19.94    22.61    24.11    26.74
eigval :       32.03    39.21    41.73    53.68    57.17    61.61
eigval :       67.03    71.13    79.55    85.86    94.05   100.22
eigval :      109.56   110.95   123.53   132.02   139.46   141.45
eigval :      145.51   150.30   162.23   169.06   175.54   192.25
eigval :      193.24   202.03   215.43   245.96   254.34   265.10
eigval :      269.18   270.69   271.54   273.20   274.75   281.08
eigval :      316.19   320.74   335.12   377.30   384.01   391.93
eigval :      394.00   395.98   401.73   405.95   415.67   422.22
eigval :      422.94   423.58   429.30   430.73   433.66   434.77
eigval :      442.21   451.67   472.57   480.26   494.51   516.02
eigval :      516.57   516.68   537.15   538.21   538.89   539.88
eigval :      540.42   544.01   564.92   569.45   572.53   581.55
eigval :      583.12   584.87   587.83   599.28   601.63   603.01
eigval :      608.56   609.67   609.97   616.97   646.89   668.87
eigval :      673.96   674.21   674.33   684.19   700.39   704.36
eigval :      706.29   708.32   711.03   712.96   719.33   721.23
eigval :      754.78   754.88   755.63   762.80   766.49   766.89
eigval :      769.67   774.35   776.43   776.97   780.30   783.37
eigval :      811.67   815.79   860.28   865.46   866.49   867.82
eigval :      869.69   871.36   874.20   875.46   883.05   890.16
eigval :      894.28   895.78   897.64   899.17   900.59   901.82
eigval :      901.87   902.16   904.24   906.03   911.23   915.75
eigval :      916.76   917.32   918.62   919.57   920.55   920.80
eigval :      921.42   923.68   924.15   925.69   926.11   938.45
eigval :      967.13  1010.11  1010.51  1010.71  1024.29  1063.38
eigval :     1065.97  1066.40  1068.99  1070.10  1071.02  1072.85
eigval :     1081.22  1084.22  1086.55  1088.43  1108.12  1118.58
eigval :     1129.51  1141.60  1142.51  1144.88  1145.52  1147.89
eigval :     1169.09  1169.66  1171.23  1173.07  1173.27  1174.60
eigval :     1177.14  1177.75  1179.06  1182.28  1187.91  1191.67
eigval :     1195.74  1215.62  1229.18  1231.49  1232.17  1232.49
eigval :     1234.98  1239.91  1242.25  1244.36  1246.12  1287.80
eigval :     1290.21  1291.04  1292.41  1292.92  1294.07  1296.35
eigval :     1312.31  1327.19  1327.53  1335.93  1342.51  1348.41
eigval :     1348.45  1350.79  1351.69  1351.95  1358.88  1359.10
eigval :     1362.12  1380.68  1393.23  1411.22  1414.84  1416.26
eigval :     1419.05  1419.98  1422.60  1433.14  1434.61  1441.67
eigval :     1452.91  1462.44  1464.93  1465.27  1468.86  1480.77
eigval :     1481.72  1482.52  1483.16  1507.90  1529.52  1560.03
eigval :     1562.38  1565.46  1566.49  1569.54  1571.67  1579.89
eigval :     1580.56  1583.43  1584.58  1585.00  1585.95  1588.07
eigval :     1600.90  1602.81  1606.32  3066.29  3069.45  3071.52
eigval :     3071.93  3075.64  3077.55  3078.51  3078.53  3078.66
eigval :     3079.09  3079.42  3082.55  3082.69  3082.91  3083.32
eigval :     3083.52  3084.21  3085.65  3085.88  3086.96  3088.93
eigval :     3089.89  3090.02  3092.34  3093.55  3095.01  3095.75
eigval :     3095.93  3096.32  3097.07  3097.21  3098.10  3101.13
eigval :     3103.31  3105.60  3115.89

   temp. (K)  partition function   enthalpy   heat capacity  entropy
                                   cal/mol     cal/K/mol   cal/K/mol   J/K/mol
 298.15  VIB  0.135E+23            28761.921    183.909    178.457
         ROT  0.975E+08              888.752      2.981     39.538
         INT  0.132E+31            29650.673    186.890    217.995
         TR   0.221E+29             1481.254      4.968     45.914
         TOT                       31131.9274   191.8581   263.9088  1104.1943

       T/K    H(0)-H(T)+PV         H(T)/Eh          T*S/Eh         G(T)/Eh
   ------------------------------------------------------------------------
    298.15    0.496119E-01    0.796439E+00    0.125392E+00    0.671048E+00
   ------------------------------------------------------------------------

         :::::::::::::::::::::::::::::::::::::::::::::::::::::
         ::                  THERMODYNAMIC                  ::
         :::::::::::::::::::::::::::::::::::::::::::::::::::::
         :: total free energy        -157.413697787760 Eh   ::
         ::.................................................::
         :: total energy             -158.084745587108 Eh   ::
         :: zero point energy           0.746827491495 Eh   ::
         :: G(RRHO) w/o ZPVE           -0.075779692147 Eh   ::
         :: G(RRHO) contrib.            0.671047799348 Eh   ::
         :::::::::::::::::::::::::::::::::::::::::::::::::::::

           -------------------------------------------------
          | TOTAL ENERGY             -158.084745587108 Eh   |
          | TOTAL ENTHALPY           -157.288306211352 Eh   |
          | TOTAL FREE ENERGY        -157.413697787760 Eh   |
          | GRADIENT NORM               0.000155078163 Eh/α |
          | HOMO-LUMO GAP               0.192789997836 eV   |
           -------------------------------------------------

 * finished run on 2025/09/14 at 13:11:14.336
