   * xtb version 6.7.1 (edcfbbe) compiled by 'albert@albert-system' on 2024-07-22

   ID    Z sym.   atoms
    1    6 C      1-4, 6-19, 21-27, 29-40, 42-48, 50-61, 63
    2    7 N      5, 20, 28, 41, 49, 62
    3    1 H      64-99

          program call               : xtb data2507/toluene/TrisCz-Trz/TrisCz-Trz_toluene_S0_crest.xyz --gfn 2 --gbsa toluene --ohess vtight --parallel 40 --molden --ceasefiles --namespace data2507/toluene/TrisCz-Trz/TrisCz-Trz_toluene_S0_finalOpt
      * Solvation model:               GBSA
        Solvent                        toluene
        Solvent mass                       9.2140E+01 g/mol
          :  Hamiltonian                  GFN2-xTB          :
 * total energy  :  -158.1584148 Eh     change       -0.5700883E-08 Eh
 * total energy  :  -158.1585939 Eh     change       -0.1790556E-03 Eh
 * total energy  :  -158.1587822 Eh     change       -0.1883425E-03 Eh
 * total energy  :  -158.1588604 Eh     change       -0.7816530E-04 Eh
 * total energy  :  -158.1589638 Eh     change       -0.1034600E-03 Eh
 * total energy  :  -158.1590850 Eh     change       -0.1212019E-03 Eh
 * total energy  :  -158.1591916 Eh     change       -0.1065960E-03 Eh
 * total energy  :  -158.1592820 Eh     change       -0.9036720E-04 Eh
 * total energy  :  -158.1593659 Eh     change       -0.8394804E-04 Eh
 * total energy  :  -158.1594452 Eh     change       -0.7920978E-04 Eh
 * total energy  :  -158.1607807 Eh     change       -0.4380427E-06 Eh
 * total energy  :  -158.1607812 Eh     change       -0.4532628E-06 Eh
 * total energy  :  -158.1607815 Eh     change       -0.3655694E-06 Eh
 * total energy  :  -158.1607819 Eh     change       -0.3401872E-06 Eh
 * total energy  :  -158.1607823 Eh     change       -0.3833793E-06 Eh
 * total energy  :  -158.1607828 Eh     change       -0.4911356E-06 Eh
 * total energy  :  -158.1607833 Eh     change       -0.4937534E-06 Eh
 * total energy  :  -158.1607838 Eh     change       -0.5260748E-06 Eh
 * total energy  :  -158.1607838 Eh     change       -0.4493927E-08 Eh
   *** GEOMETRY OPTIMIZATION CONVERGED AFTER 94 ITERATIONS ***

 final structure:
================
99
 xtb: 6.7.1 (edcfbbe)
C           -1.07398027240526        4.22654168580742        1.83874504586197
C           -2.43129523081021        4.46528283041983        1.68773400187876
C           -3.23537980097386        3.52634877175157        1.06883555522255
C           -2.70027862710744        2.32592512870472        0.60896806025184
N           -3.54488383944292        1.40637378048241       -0.02713129927446
C           -3.34670555344257        0.83527506103936       -1.26618633699768
C           -2.33366225716304        1.05456071503291       -2.18822072035034
C           -2.37737240436200        0.34858578975443       -3.37546201320306
C           -3.41115181220829       -0.54305686048820       -3.65570879534067
C           -4.43969485352275       -0.74103593606180       -2.75621733079909
C           -4.41376391491740       -0.04828572626526       -1.55213203862945
C           -5.29136204602921       -0.00851992831317       -0.41454725709567
C           -6.47693627516974       -0.66079042849504       -0.09845158251804
C           -7.06483944385846       -0.40763171947841        1.12480569234598
C           -6.47781186200694        0.47124709961643        2.03327951348487
C           -5.29932055378750        1.13154375445800        1.74093560305511
C           -4.71556103824202        0.89871915695644        0.50377026710366
C           -1.33057896881847        2.08023810911716        0.76709870986971
C           -0.69749673127842        0.82618065345282        0.34339727876838
N           -1.36722980707361       -0.31238527972728        0.47029522756240
C           -0.71111094863670       -1.39826508857910        0.07365670169629
C           -1.35479443486360       -2.69780667614093        0.30693382363277
C           -2.72857063873145       -2.81943454904184        0.12942473622788
C           -3.35508428635181       -4.04079373481060        0.29263840662811
C           -2.61218803220950       -5.15387758840666        0.65447325286534
C           -1.25108053811393       -5.03952530903674        0.87432416457761
C           -0.61016407170112       -3.81648107696048        0.70540835744317
N            0.76223640485334       -3.70989611235210        0.97630610169552
C            1.34886737741824       -2.76402073800399        1.79093371660574
C            0.75373757271835       -1.83389084685788        2.63196250490156
C            1.57991897528713       -0.99463096006915        3.35504941664090
C            2.96761259312341       -1.08722729622707        3.26538701572221
C            3.56520785396265       -2.03742064753898        2.46111585417238
C            2.75524071588188       -2.88866334196217        1.72055948622939
C            3.02202996044829       -3.97141554552628        0.81507099311021
C            4.18998546110785       -4.55866520437373        0.34506036871751
C            4.09075784652716       -5.59807473864161       -0.55868491103884
C            2.84791229650454       -6.04266953500496       -1.00556769348380
C            1.67203673452449       -5.47482333514706       -0.55168800592381
C            1.76515892784968       -4.44552417919747        0.37406461597282
N            0.47216730601494       -1.38462550048257       -0.52040566875006
C            1.09177405419119       -0.20465289295505       -0.55356268321169
C            2.46260450868737       -0.19878593762515       -1.06935227735880
C            3.02052270141964       -1.42014821170277       -1.45489052057665
C            4.34457757830175       -1.52068404837420       -1.82665439944710
C            5.15076535712470       -0.39199829013109       -1.81022466454974
C            4.61145754882603        0.83192175734684       -1.46266870704658
C            3.26941340407199        0.94962777100118       -1.10890469829334
N            2.77810590303149        2.23109467853265       -0.81911358696272
C            1.80169021735151        2.90203959461440       -1.52181669552654
C            1.09930800387435        2.50436231877389       -2.64931540883747
C            0.19065517300887        3.39475891024038       -3.19056977170079
C           -0.01687013403389        4.65302972862735       -2.62848264258264
C            0.69461562743562        5.06114089289194       -1.51761426110266
C            1.61731585876253        4.18618472526193       -0.95968150542333
C            2.53116774556790        4.28093582866617        0.14533638297608
C            2.80923420791616        5.27067143737365        1.07969701069632
C            3.76722049254578        5.02181974628580        2.04325910943076
C            4.44230292382948        3.80315872176046        2.08664489880186
C            4.18571724257804        2.80374930730948        1.16665171839834
C            3.23176298341093        3.05329520910391        0.19059399083052
N            0.55552580294547        0.91553826618527       -0.08795409707378
C           -0.53046536211927        3.04617150221736        1.37193947514829
H           -0.44029195324473        4.95740541170928        2.31589657386763
H           -2.86359554355419        5.38872630977843        2.04190578983304
H           -4.28813788264284        3.71888254190122        0.92382604670489
H           -1.53187352535740        1.75150239841725       -1.98750211424468
H           -1.59177839998362        0.49304891202026       -4.10340067192258
H           -3.40657458153038       -1.07712632439673       -4.59424965139574
H           -5.24783703705703       -1.42087162541166       -2.97979340842904
H           -6.92254923129133       -1.35299488236365       -0.79687670134739
H           -7.98778943968604       -0.90167181673014        1.38915210021087
H           -6.95281832248305        0.63859242370160        2.98867393589336
H           -4.84339386269963        1.79828479298538        2.45719231049790
H           -3.28867587269709       -1.94322829450377       -0.15734680878217
H           -4.41975487248153       -4.12291318963217        0.13950293969963
H           -3.09541383667037       -6.11035067343880        0.78397350922505
H           -0.67412825738118       -5.89438923252700        1.19457592241176
H           -0.32190217910757       -1.76102278259390        2.71860735148626
H            1.13862015246946       -0.25207256957548        4.00486055881770
H            3.57745031948144       -0.40958359831009        3.84430635250356
H            4.64022306655969       -2.11994373137807        2.40655603467094
H            5.15220949863721       -4.20407510384416        0.68199293410460
H            4.98630979678996       -6.07122761186003       -0.93303779987861
H            2.80149541166863       -6.84833493569444       -1.72324703906325
H            0.71407911665949       -5.81604418034630       -0.91381311279507
H            2.38657376478848       -2.29237618374661       -1.43798055522225
H            4.74896871232771       -2.47804273299370       -2.11545653044797
H            6.19256439134362       -0.46182172597521       -2.08373475416327
H            5.22258156401976        1.72282554879177       -1.47531152774781
H            1.25569979069495        1.52830464497388       -3.08776244961917
H           -0.37155449102884        3.11113608430798       -4.06893944663352
H           -0.74078338886325        5.31638050512429       -3.07812546141728
H            0.54234931716094        6.04192769890050       -1.09349665317368
H            2.28255494059652        6.21251052053533        1.05093736104174
H            3.99839489475622        5.77881682583933        2.77789602498601
H            5.18190853629885        3.63581047926191        2.85589336855673
H            4.70739167710783        1.85897628929351        1.20600728831936
H            0.52327392345694        2.84149593247852        1.48320866453577

          :  Hamiltonian                  GFN2-xTB          :
         :: gradient norm              0.000046369714 Eh/a0 ::
         :: HOMO-LUMO gap              1.916445387533 eV    ::
         :: SCC energy              -161.090626357390 Eh    ::
         :: -> dispersion             -0.172202119131 Eh    ::
         :: -> Gsolv                  -0.061765931001 Eh    ::
         :: repulsion energy           2.929842571207 Eh    ::

    * Orbital Energies and Occupations

         #    Occupation            Energy/Eh            Energy/eV
      -------------------------------------------------------------
         1        2.0000           -0.6966521             -18.9569
       ...           ...                  ...                  ...
       135        2.0000           -0.4208826             -11.4528
       136        2.0000           -0.4204860             -11.4420
       137        2.0000           -0.4142309             -11.2718
       138        2.0000           -0.4134993             -11.2519
       139        2.0000           -0.4118917             -11.2081
       140        2.0000           -0.3893314             -10.5942
       141        2.0000           -0.3884253             -10.5696
       142        2.0000           -0.3873333             -10.5399
       143        2.0000           -0.3867422             -10.5238
       144        2.0000           -0.3829027             -10.4193
       145        2.0000           -0.3728174             -10.1449
       146        2.0000           -0.3713086             -10.1038
       147        2.0000           -0.3695955             -10.0572 (HOMO)
       148                         -0.2991674              -8.1408 (LUMO)
       149                         -0.2936349              -7.9902
       150                         -0.2588030              -7.0424
       151                         -0.2559952              -6.9660
       152                         -0.2542997              -6.9198
       153                         -0.2525056              -6.8710
       154                         -0.2466567              -6.7119
       155                         -0.2461394              -6.6978
       156                         -0.2455726              -6.6824
       157                         -0.2312918              -6.2938
       158                         -0.2305493              -6.2736
       ...                                ...                  ...
       288                          0.7390016              20.1093
      -------------------------------------------------------------
                  HL-Gap            0.0704281 Eh            1.9164 eV

     #   Z          covCN         q      C6AA      α(0)
     1   6 C        2.917    -0.031    28.780     8.797
     2   6 C        2.919    -0.025    28.619     8.773
     3   6 C        2.923    -0.045    29.128     8.851
     4   6 C        2.913     0.070    26.434     8.431
     5   7 N        2.802    -0.047    22.151     6.990
     6   6 C        3.076     0.059    26.608     8.457
     7   6 C        2.909    -0.052    29.284     8.873
     8   6 C        2.924    -0.038    28.944     8.823
     9   6 C        2.920    -0.045    29.121     8.849
    10   6 C        2.912    -0.038    28.936     8.821
    11   6 C        3.068    -0.020    28.437     8.744
    12   6 C        3.067    -0.019    28.403     8.739
    13   6 C        2.912    -0.035    28.876     8.812
    14   6 C        2.920    -0.042    29.039     8.837
    15   6 C        2.924    -0.034    28.845     8.808
    16   6 C        2.910    -0.052    29.291     8.875
    17   6 C        3.077     0.051    26.772     8.483
    18   6 C        2.984    -0.013    28.330     8.731
    19   6 C        2.998     0.242    22.949     7.858
    20   7 N        1.843    -0.324    29.264     8.017
    21   6 C        2.998     0.243    22.936     7.856
    22   6 C        2.985    -0.014    28.345     8.733
    23   6 C        2.925    -0.029    28.729     8.790
    24   6 C        2.918    -0.031    28.783     8.798
    25   6 C        2.919    -0.025    28.631     8.775
    26   6 C        2.922    -0.045    29.122     8.850
    27   6 C        2.914     0.070    26.441     8.432
    28   7 N        2.801    -0.051    22.216     7.000
    29   6 C        3.078     0.059    26.600     8.456
    30   6 C        2.910    -0.053    29.317     8.878
    31   6 C        2.923    -0.039    28.973     8.827
    32   6 C        2.920    -0.045    29.129     8.851
    33   6 C        2.912    -0.039    28.958     8.824
    34   6 C        3.067    -0.021    28.453     8.747
    35   6 C        3.068    -0.018    28.391     8.737
    36   6 C        2.912    -0.035    28.866     8.810
    37   6 C        2.920    -0.042    29.042     8.837
    38   6 C        2.924    -0.034    28.849     8.808
    39   6 C        2.909    -0.053    29.306     8.877
    40   6 C        3.077     0.052    26.752     8.480
    41   7 N        1.846    -0.324    29.255     8.016
    42   6 C        2.989     0.235    23.089     7.882
    43   6 C        2.980    -0.015    28.375     8.738
    44   6 C        2.928    -0.029    28.715     8.788
    45   6 C        2.917    -0.030    28.754     8.793
    46   6 C        2.918    -0.022    28.564     8.764
    47   6 C        2.924    -0.044    29.084     8.844
    48   6 C        2.912     0.071    26.415     8.428
    49   7 N        2.804    -0.042    22.052     6.974
    50   6 C        3.080     0.062    26.533     8.445
    51   6 C        2.909    -0.048    29.191     8.859
    52   6 C        2.924    -0.036    28.907     8.817
    53   6 C        2.920    -0.045    29.127     8.850
    54   6 C        2.912    -0.037    28.915     8.818
    55   6 C        3.069    -0.018    28.383     8.736
    56   6 C        3.068    -0.018    28.381     8.735
    57   6 C        2.912    -0.035    28.880     8.812
    58   6 C        2.919    -0.043    29.072     8.842
    59   6 C        2.924    -0.035    28.870     8.811
    60   6 C        2.909    -0.053    29.317     8.878
    61   6 C        3.080     0.050    26.796     8.486
    62   7 N        1.845    -0.317    29.076     7.992
    63   6 C        2.927    -0.027    28.677     8.782
    64   1 H        0.926     0.055     2.258     2.350
    65   1 H        0.926     0.060     2.204     2.321
    66   1 H        0.926     0.055     2.261     2.352
    67   1 H        0.926     0.008     2.919     2.672
    68   1 H        0.926     0.022     2.700     2.570
    69   1 H        0.926     0.033     2.541     2.493
    70   1 H        0.926     0.040     2.453     2.449
    71   1 H        0.926     0.037     2.482     2.464
    72   1 H        0.926     0.037     2.484     2.465
    73   1 H        0.926     0.038     2.476     2.461
    74   1 H        0.926     0.030     2.584     2.514
    75   1 H        0.926     0.045     2.378     2.411
    76   1 H        0.926     0.055     2.261     2.351
    77   1 H        0.926     0.059     2.206     2.323
    78   1 H        0.926     0.055     2.255     2.348
    79   1 H        0.925     0.008     2.927     2.675
    80   1 H        0.926     0.024     2.676     2.558
    81   1 H        0.926     0.033     2.541     2.493
    82   1 H        0.926     0.038     2.479     2.462
    83   1 H        0.926     0.037     2.490     2.468
    84   1 H        0.926     0.038     2.476     2.461
    85   1 H        0.926     0.039     2.463     2.454
    86   1 H        0.926     0.031     2.567     2.506
    87   1 H        0.926     0.055     2.254     2.348
    88   1 H        0.926     0.056     2.251     2.346
    89   1 H        0.926     0.061     2.188     2.313
    90   1 H        0.926     0.054     2.266     2.354
    91   1 H        0.925     0.008     2.923     2.673
    92   1 H        0.926     0.028     2.619     2.531
    93   1 H        0.926     0.033     2.549     2.497
    94   1 H        0.926     0.038     2.471     2.458
    95   1 H        0.926     0.037     2.487     2.466
    96   1 H        0.926     0.036     2.507     2.476
    97   1 H        0.926     0.035     2.512     2.479
    98   1 H        0.926     0.025     2.661     2.551
    99   1 H        0.926     0.045     2.381     2.413

molecular dipole:
                 x           y           z       tot (Debye)
 q only:        0.153      -0.330       0.205
   full:        0.147      -0.319       0.157       0.977

 projected vibrational frequencies (cm⁻¹)
eigval :       -0.00    -0.00    -0.00     0.00     0.00     0.00
eigval :        5.74     9.94    18.61    21.64    22.10    25.89
eigval :       31.06    38.63    43.48    51.41    56.65    59.12
eigval :       65.84    67.54    75.84    80.76    91.43   102.54
eigval :      106.82   110.14   125.83   141.39   143.21   145.52
eigval :      147.64   153.82   163.07   165.90   180.04   186.83
eigval :      194.39   200.30   217.81   240.79   248.96   261.38
eigval :      272.12   273.02   273.89   275.17   276.64   285.39
eigval :      322.09   330.07   339.04   377.96   387.16   393.92
eigval :      396.53   397.28   399.62   409.53   413.69   424.55
eigval :      425.07   425.28   434.46   436.68   436.75   440.82
eigval :      451.60   462.16   476.22   488.97   503.28   518.09
eigval :      518.56   518.88   534.76   540.85   541.26   541.75
eigval :      542.40   542.97   568.31   581.15   582.37   586.40
eigval :      595.92   599.24   604.24   605.53   606.87   612.17
eigval :      618.76   619.60   637.32   640.78   656.59   673.41
eigval :      674.18   674.51   694.14   706.53   706.66   707.26
eigval :      715.54   716.14   721.95   722.91   724.43   756.04
eigval :      756.42   756.72   767.97   769.12   769.84   775.25
eigval :      780.09   780.61   781.22   788.76   789.25   797.95
eigval :      843.32   844.36   867.55   869.81   870.77   871.43
eigval :      873.27   874.92   888.90   890.17   891.53   897.18
eigval :      897.23   898.57   900.09   900.38   902.19   902.51
eigval :      903.86   904.27   920.36   920.85   920.96   921.09
eigval :      921.59   922.73   923.57   923.76   924.83   925.27
eigval :      926.45   926.91   928.82   932.34   932.69  1010.57
eigval :     1011.06  1011.65  1022.14  1062.00  1066.53  1068.36
eigval :     1069.12  1070.71  1072.65  1074.98  1087.73  1088.38
eigval :     1089.31  1090.96  1091.83  1116.06  1131.55  1132.58
eigval :     1145.65  1148.37  1150.35  1151.60  1171.54  1171.80
eigval :     1173.67  1174.40  1174.62  1175.90  1178.17  1178.87
eigval :     1180.44  1185.90  1186.42  1193.71  1199.89  1201.28
eigval :     1209.61  1234.53  1234.92  1235.46  1236.93  1237.44
eigval :     1240.07  1244.80  1245.44  1246.43  1296.54  1297.26
eigval :     1297.79  1301.89  1302.79  1303.91  1310.85  1312.01
eigval :     1313.91  1351.45  1353.00  1354.14  1356.75  1357.08
eigval :     1359.10  1360.70  1361.39  1361.52  1365.24  1370.73
eigval :     1373.46  1416.19  1418.51  1420.94  1426.74  1427.26
eigval :     1427.28  1440.02  1442.13  1445.22  1462.08  1468.24
eigval :     1473.38  1474.40  1474.68  1481.73  1486.29  1486.33
eigval :     1486.38  1517.74  1522.65  1563.10  1566.30  1567.50
eigval :     1572.58  1573.34  1573.49  1586.04  1586.56  1587.32
eigval :     1588.57  1588.87  1589.83  1596.98  1597.30  1597.59
eigval :     1612.73  1613.46  1613.93  3057.54  3060.54  3067.17
eigval :     3073.24  3073.51  3074.22  3075.86  3077.69  3078.11
eigval :     3079.63  3081.31  3081.77  3082.32  3083.01  3083.12
eigval :     3083.21  3085.62  3085.85  3087.13  3088.35  3089.99
eigval :     3092.94  3093.19  3093.67  3093.83  3093.96  3094.60
eigval :     3095.87  3097.29  3097.85  3098.44  3102.05  3103.06
eigval :     3107.79  3111.67  3113.92

   temp. (K)  partition function   enthalpy   heat capacity  entropy
                                   cal/mol     cal/K/mol   cal/K/mol   J/K/mol
 298.15  VIB  0.219E+23            28515.342    181.512    177.724
         ROT  0.960E+08              888.752      2.981     39.506
         INT  0.210E+31            29404.095    184.493    217.230
         TR   0.221E+29             1481.254      4.968     45.914
         TOT                       30885.3486   189.4608   263.1443  1100.9959

       T/K    H(0)-H(T)+PV         H(T)/Eh          T*S/Eh         G(T)/Eh
   ------------------------------------------------------------------------
    298.15    0.492189E-01    0.801170E+00    0.125028E+00    0.676141E+00
   ------------------------------------------------------------------------

         :::::::::::::::::::::::::::::::::::::::::::::::::::::
         ::                  THERMODYNAMIC                  ::
         :::::::::::::::::::::::::::::::::::::::::::::::::::::
         :: total free energy        -157.484642645607 Eh   ::
         ::.................................................::
         :: total energy             -158.160783785472 Eh   ::
         :: zero point energy           0.751950569817 Eh   ::
         :: G(RRHO) w/o ZPVE           -0.075809429953 Eh   ::
         :: G(RRHO) contrib.            0.676141139865 Eh   ::
         :::::::::::::::::::::::::::::::::::::::::::::::::::::

           -------------------------------------------------
          | TOTAL ENERGY             -158.160783785472 Eh   |
          | TOTAL ENTHALPY           -157.359614279803 Eh   |
          | TOTAL FREE ENERGY        -157.484642645607 Eh   |
          | GRADIENT NORM               0.000046373843 Eh/α |
          | HOMO-LUMO GAP               1.916445223597 eV   |
           -------------------------------------------------

 * finished run on 2025/09/14 at 13:10:55.547
