   * xtb version 6.7.1 (edcfbbe) compiled by 'albert@albert-system' on 2024-07-22

   ID    Z sym.   atoms
    1    6 C      1-4, 6-19, 21-27, 29-40, 42-48, 50-61, 63
    2    7 N      5, 20, 28, 41, 49, 62
    3    1 H      64-99

          program call               : xtb data2507/toluene/TrisCz-Trz/TrisCz-Trz.xyz --gfn 2 --gbsa toluene --ohess vtight --parallel 40 --molden --ceasefiles --namespace data2507/toluene/TrisCz-Trz/TrisCz-Trz_toluene_S0_preOpt
      * Solvation model:               GBSA
        Solvent                        toluene
        Solvent mass                       9.2140E+01 g/mol
          :  Hamiltonian                  GFN2-xTB          :
 * total energy  :  -158.1280565 Eh     change       -0.4163809E-08 Eh
 * total energy  :  -158.1472022 Eh     change       -0.1914570E-01 Eh
 * total energy  :  -158.1521277 Eh     change       -0.4925542E-02 Eh
 * total energy  :  -158.1533583 Eh     change       -0.1230636E-02 Eh
 * total energy  :  -158.1540818 Eh     change       -0.7234797E-03 Eh
 * total energy  :  -158.1543896 Eh     change       -0.3077474E-03 Eh
 * total energy  :  -158.1546252 Eh     change       -0.2356037E-03 Eh
 * total energy  :  -158.1548362 Eh     change       -0.2110335E-03 Eh
 * total energy  :  -158.1550323 Eh     change       -0.1960580E-03 Eh
 * total energy  :  -158.1552107 Eh     change       -0.1784732E-03 Eh
 * total energy  :  -158.1584029 Eh     change       -0.3252846E-06 Eh
 * total energy  :  -158.1584032 Eh     change       -0.3293720E-06 Eh
 * total energy  :  -158.1584034 Eh     change       -0.2498462E-06 Eh
 * total energy  :  -158.1584036 Eh     change       -0.1927838E-06 Eh
 * total energy  :  -158.1584038 Eh     change       -0.1680626E-06 Eh
 * total energy  :  -158.1584040 Eh     change       -0.1749163E-06 Eh
 * total energy  :  -158.1584042 Eh     change       -0.2357541E-06 Eh
 * total energy  :  -158.1584045 Eh     change       -0.2809371E-06 Eh
 * total energy  :  -158.1584045 Eh     change       -0.2883780E-08 Eh
   *** GEOMETRY OPTIMIZATION CONVERGED AFTER 122 ITERATIONS ***

 final structure:
================
99
 xtb: 6.7.1 (edcfbbe)
C           -1.56180807401534        1.26307104166674        3.50728365205716
C           -0.67332583296613        2.29868666835781        3.75381130005602
C            0.30200763943244        2.61025905452333        2.82547888358884
C            0.42269384265943        1.88357577446558        1.64254363564319
N            1.43055019645585        2.23982975761696        0.73664147566698
C            2.77213368030482        2.36429627180889        1.05465105894720
C            3.41290190355751        2.20964495201200        2.27532510716962
C            4.77778821209833        2.42006196345563        2.32025393301289
C            5.50101456336421        2.75712390859895        1.17837667087422
C            4.87572212041908        2.87400498607385       -0.04659954580107
C            3.50209231784400        2.67818688076858       -0.11354886425651
C            2.54924360146344        2.74279220971362       -1.18603581744636
C            2.65768407342635        3.01478232221199       -2.54340865760204
C            1.50907689728773        3.03384154662137       -3.30909253430252
C            0.26169793617081        2.81181308407920       -2.72958135101389
C            0.12936397576147        2.54232355885118       -1.38102083639723
C            1.28406520832321        2.47600854471599       -0.61443305581741
C           -0.47964585114136        0.83991323598387        1.38986865194906
C           -0.44909682927935        0.04538972494725        0.15959063527080
N           -1.61858740713235       -0.41565202152738       -0.27356267354892
C           -1.61397138260101       -0.97736616277408       -1.47312712114490
C           -2.86005410641316       -1.53819200285284       -2.00475013438695
C           -2.77575354298888       -2.44167092165838       -3.06572099491807
C           -3.89567476514892       -3.09161545884188       -3.54383138648167
C           -5.13170897412535       -2.85137608956860       -2.96182835309707
C           -5.24060007067386       -1.93966462387575       -1.92858555544054
C           -4.11968799470672       -1.26761381257277       -1.44816276385543
N           -4.30047016901950       -0.31626381816464       -0.43425162577954
C           -3.99619884815676        1.02418024989196       -0.52040925733406
C           -3.51230879038990        1.74806008692643       -1.59980275806320
C           -3.33988828084044        3.11024538833558       -1.43758045406439
C           -3.63766883060401        3.74179637495074       -0.23140836032944
C           -4.13592282628188        3.02788818760759        0.84055876021540
C           -4.32695304505662        1.65981416654132        0.69861088607811
C           -4.84790419353609        0.63652295883624        1.56192728758030
C           -5.32648137180501        0.63337217273205        2.86601970477182
C           -5.75281376248735       -0.56169122623077        3.41196043080644
C           -5.69879983023610       -1.74576848258648        2.67875588559799
C           -5.22909295034917       -1.76798848440957        1.37873606905330
C           -4.81506928913602       -0.56711410760260        0.82063733922858
N           -0.52007419535715       -1.10958718363468       -2.22550379282360
C            0.61752393444432       -0.77442722975099       -1.63065554106178
C            1.86470798346022       -1.03146382001318       -2.36402891025784
C            1.94254255984152       -0.68885357232094       -3.70837171000682
C            3.12383884471200       -0.85073348299317       -4.40831793062294
C            4.23511042912096       -1.37857629466526       -3.76972712083311
C            4.15996975363162       -1.76078974519222       -2.44246101903213
C            2.97932696632254       -1.58947379994465       -1.72652775420138
N            2.89649639249918       -2.01746369225456       -0.39506595001043
C            3.73550811792784       -1.63625073356005        0.63632871060729
C            4.88103019946660       -0.85549350775440        0.60352514647715
C            5.55688724189324       -0.65205739182557        1.79135601004616
C            5.09802316799138       -1.18898187754265        2.99189130654255
C            3.93913188663951       -1.93766929307258        3.03691068733688
C            3.25028581146676       -2.16783393202158        1.85265458713273
C            2.05675719906676       -2.90085034608554        1.53290223830801
C            1.15345672204883       -3.63700081245839        2.28879041646181
C            0.10625498489605       -4.26586588448658        1.64427929005196
C           -0.02756408379940       -4.19419893810745        0.25915870946854
C            0.85996348444880       -3.46912747826376       -0.51376258531574
C            1.88310105094985       -2.79038465275544        0.13421260779873
N            0.70680992644056       -0.18788421806051       -0.44585191556702
C           -1.46973259905668        0.55298076867267        2.32758953741448
H           -2.32841447392022        1.01604844157109        4.22472707465737
H           -0.74636100088963        2.87312260427966        4.66483468598937
H            0.97550713815006        3.43605269637483        3.00023344446112
H            2.86806474668371        1.92838911522033        3.16329384973134
H            5.29387195243792        2.32016909511634        3.26320662566891
H            6.56567750276653        2.92052526686280        1.25489850936929
H            5.43614128273470        3.11785102703715       -0.93669319008591
H            3.62197337520288        3.20913759194590       -2.98789531965283
H            1.57037306082246        3.23516642427018       -4.36836237530892
H           -0.62436514037810        2.85219211003146       -3.34730945075328
H           -0.84689737379903        2.38388308230753       -0.94313816648549
H           -1.80216503883996       -2.62913105791327       -3.49264941357792
H           -3.80593842353137       -3.78976867293594       -4.36177455186761
H           -6.01151560492167       -3.36259236225736       -3.32167099267452
H           -6.20271595825156       -1.72466216302389       -1.48695854671110
H           -3.27610325139703        1.26234795624479       -2.53708272665225
H           -2.96555132528681        3.70001691611700       -2.26198945464829
H           -3.48077898405157        4.80667698840018       -0.14382496830707
H           -4.37804558037575        3.52190181943945        1.76926055152482
H           -5.36002617193784        1.54876894065988        3.43715253249267
H           -6.13086015946179       -0.58514023343106        4.42324303971643
H           -6.02986767791485       -2.66662065299646        3.13600957454650
H           -5.18134876417568       -2.68976083004527        0.81777695214665
H            1.06759507931919       -0.27347357959945       -4.18569148217158
H            3.17715620467313       -0.56725201316593       -5.44807322360811
H            5.15903942582432       -1.51115001755326       -4.31179483267379
H            5.01066435226183       -2.21167796117319       -1.95400150170329
H            5.23336767675272       -0.41397434794733       -0.31552090104556
H            6.46124501083287       -0.06354098341745        1.78658347512842
H            5.65634982081569       -1.01053161967681        3.89864440922890
H            3.57405035714352       -2.34334033501352        3.96849652616618
H            1.27264681857908       -3.71770947757460        3.35869720597327
H           -0.61172500729397       -4.83682404724630        2.21413968233296
H           -0.83902065681270       -4.72070323285970       -0.22337768400900
H            0.75782433882626       -3.43801674963194       -1.58939521305922
H           -2.15775347923611       -0.24990347986659        2.11239157144918

          :  Hamiltonian                  GFN2-xTB          :
         :: gradient norm              0.000041287034 Eh/a0 ::
         :: HOMO-LUMO gap              1.905012900560 eV    ::
         :: SCC energy              -161.089981624547 Eh    ::
         :: -> dispersion             -0.173404077933 Eh    ::
         :: -> Gsolv                  -0.060365642024 Eh    ::
         :: repulsion energy           2.931577120151 Eh    ::

    * Orbital Energies and Occupations

         #    Occupation            Energy/Eh            Energy/eV
      -------------------------------------------------------------
         1        2.0000           -0.6966763             -18.9575
       ...           ...                  ...                  ...
       135        2.0000           -0.4203829             -11.4392
       136        2.0000           -0.4190046             -11.4017
       137        2.0000           -0.4125793             -11.2269
       138        2.0000           -0.4125057             -11.2249
       139        2.0000           -0.4110109             -11.1842
       140        2.0000           -0.3893079             -10.5936
       141        2.0000           -0.3884383             -10.5699
       142        2.0000           -0.3865975             -10.5199
       143        2.0000           -0.3842294             -10.4554
       144        2.0000           -0.3833707             -10.4320
       145        2.0000           -0.3714571             -10.1079
       146        2.0000           -0.3706877             -10.0869
       147        2.0000           -0.3691499             -10.0451 (HOMO)
       148                         -0.2991420              -8.1401 (LUMO)
       149                         -0.2921752              -7.9505
       150                         -0.2571326              -6.9969
       151                         -0.2554483              -6.9511
       152                         -0.2536195              -6.9013
       153                         -0.2515165              -6.8441
       154                         -0.2481444              -6.7524
       155                         -0.2455699              -6.6823
       156                         -0.2440050              -6.6397
       157                         -0.2295227              -6.2456
       158                         -0.2291659              -6.2359
       ...                                ...                  ...
       288                          0.7390204              20.1098
      -------------------------------------------------------------
                  HL-Gap            0.0700079 Eh            1.9050 eV

     #   Z          covCN         q      C6AA      α(0)
     1   6 C        2.917    -0.031    28.778     8.797
     2   6 C        2.919    -0.024    28.601     8.770
     3   6 C        2.924    -0.046    29.131     8.851
     4   6 C        2.911     0.070    26.423     8.429
     5   7 N        2.801    -0.048    22.161     6.992
     6   6 C        3.077     0.051    26.767     8.482
     7   6 C        2.910    -0.052    29.284     8.873
     8   6 C        2.924    -0.032    28.807     8.802
     9   6 C        2.920    -0.041    29.008     8.832
    10   6 C        2.913    -0.035    28.871     8.811
    11   6 C        3.068    -0.018    28.387     8.736
    12   6 C        3.068    -0.020    28.426     8.742
    13   6 C        2.913    -0.038    28.949     8.823
    14   6 C        2.920    -0.046    29.132     8.851
    15   6 C        2.924    -0.039    28.973     8.827
    16   6 C        2.910    -0.049    29.226     8.865
    17   6 C        3.076     0.061    26.547     8.448
    18   6 C        2.983    -0.015    28.368     8.737
    19   6 C        3.000     0.240    22.983     7.864
    20   7 N        1.846    -0.318    29.100     7.995
    21   6 C        2.993     0.237    23.043     7.874
    22   6 C        2.980    -0.015    28.382     8.739
    23   6 C        2.927    -0.030    28.739     8.792
    24   6 C        2.916    -0.032    28.787     8.798
    25   6 C        2.918    -0.023    28.585     8.767
    26   6 C        2.923    -0.043    29.080     8.843
    27   6 C        2.913     0.071    26.408     8.427
    28   7 N        2.804    -0.043    22.068     6.977
    29   6 C        3.080     0.060    26.572     8.451
    30   6 C        2.909    -0.050    29.246     8.868
    31   6 C        2.924    -0.036    28.900     8.816
    32   6 C        2.920    -0.045    29.123     8.850
    33   6 C        2.912    -0.037    28.919     8.818
    34   6 C        3.069    -0.018    28.392     8.737
    35   6 C        3.068    -0.017    28.370     8.734
    36   6 C        2.912    -0.035    28.865     8.810
    37   6 C        2.919    -0.043    29.059     8.840
    38   6 C        2.924    -0.035    28.864     8.810
    39   6 C        2.909    -0.053    29.314     8.878
    40   6 C        3.080     0.051    26.768     8.482
    41   7 N        1.846    -0.340    29.683     8.074
    42   6 C        3.004     0.247    22.863     7.843
    43   6 C        2.986    -0.012    28.316     8.729
    44   6 C        2.925    -0.028    28.709     8.787
    45   6 C        2.918    -0.032    28.804     8.801
    46   6 C        2.919    -0.026    28.646     8.777
    47   6 C        2.922    -0.045    29.127     8.850
    48   6 C        2.914     0.071    26.421     8.429
    49   7 N        2.801    -0.052    22.248     7.005
    50   6 C        3.075     0.053    26.735     8.478
    51   6 C        2.910    -0.051    29.272     8.872
    52   6 C        2.925    -0.033    28.816     8.803
    53   6 C        2.920    -0.041    29.025     8.835
    54   6 C        2.912    -0.036    28.885     8.813
    55   6 C        3.069    -0.019    28.413     8.740
    56   6 C        3.066    -0.021    28.451     8.746
    57   6 C        2.912    -0.038    28.945     8.822
    58   6 C        2.919    -0.046    29.132     8.851
    59   6 C        2.923    -0.040    28.989     8.830
    60   6 C        2.910    -0.054    29.343     8.882
    61   6 C        3.076     0.057    26.633     8.461
    62   7 N        1.843    -0.308    28.825     7.957
    63   6 C        2.928    -0.027    28.670     8.781
    64   1 H        0.926     0.055     2.260     2.351
    65   1 H        0.926     0.060     2.204     2.322
    66   1 H        0.926     0.055     2.256     2.349
    67   1 H        0.926     0.031     2.571     2.507
    68   1 H        0.926     0.040     2.449     2.447
    69   1 H        0.926     0.038     2.477     2.461
    70   1 H        0.926     0.037     2.494     2.470
    71   1 H        0.926     0.039     2.464     2.455
    72   1 H        0.926     0.034     2.536     2.491
    73   1 H        0.926     0.021     2.723     2.580
    74   1 H        0.925     0.004     2.988     2.703
    75   1 H        0.926     0.053     2.280     2.361
    76   1 H        0.926     0.055     2.254     2.348
    77   1 H        0.926     0.060     2.195     2.317
    78   1 H        0.926     0.055     2.260     2.351
    79   1 H        0.925     0.007     2.947     2.684
    80   1 H        0.926     0.027     2.623     2.533
    81   1 H        0.926     0.033     2.550     2.497
    82   1 H        0.926     0.038     2.475     2.460
    83   1 H        0.926     0.037     2.485     2.465
    84   1 H        0.926     0.036     2.499     2.472
    85   1 H        0.926     0.036     2.501     2.473
    86   1 H        0.926     0.026     2.648     2.545
    87   1 H        0.926     0.040     2.443     2.444
    88   1 H        0.926     0.055     2.263     2.352
    89   1 H        0.926     0.059     2.209     2.324
    90   1 H        0.926     0.055     2.254     2.348
    91   1 H        0.926     0.031     2.569     2.506
    92   1 H        0.926     0.041     2.438     2.442
    93   1 H        0.926     0.038     2.474     2.460
    94   1 H        0.926     0.036     2.503     2.474
    95   1 H        0.926     0.038     2.477     2.461
    96   1 H        0.926     0.033     2.544     2.494
    97   1 H        0.926     0.023     2.682     2.561
    98   1 H        0.926     0.011     2.875     2.652
    99   1 H        0.926     0.047     2.363     2.404

molecular dipole:
                 x           y           z       tot (Debye)
 q only:        0.209      -0.166       0.204
   full:       -0.025      -0.269      -0.097       0.729

 projected vibrational frequencies (cm⁻¹)
eigval :       -0.00    -0.00    -0.00     0.00     0.00     0.00
eigval :        8.96    14.88    18.62    20.54    23.18    31.06
eigval :       34.83    43.87    47.70    56.43    57.94    59.77
eigval :       66.79    71.43    75.73    87.72    89.36   103.66
eigval :      108.32   120.08   125.89   138.86   145.07   146.47
eigval :      150.41   155.03   165.94   170.33   179.75   186.68
eigval :      197.51   211.17   226.07   241.20   251.85   256.25
eigval :      268.34   272.17   275.09   276.64   278.23   297.17
eigval :      311.89   332.42   352.43   360.36   386.39   395.47
eigval :      395.67   398.42   401.90   406.39   416.43   423.16
eigval :      425.25   425.68   433.23   436.83   437.88   442.74
eigval :      454.15   458.98   477.21   491.72   502.65   518.49
eigval :      518.53   519.28   534.56   541.13   541.83   542.43
eigval :      542.86   543.72   567.94   582.02   582.54   586.52
eigval :      597.03   600.67   601.68   606.05   607.97   612.75
eigval :      617.61   618.94   637.66   639.70   655.47   673.24
eigval :      674.34   674.77   698.92   706.16   707.27   708.27
eigval :      713.85   717.32   719.59   723.09   723.55   756.25
eigval :      756.56   757.52   767.98   769.32   770.93   776.09
eigval :      779.64   780.19   781.07   786.00   791.06   798.55
eigval :      842.59   844.48   867.27   869.52   871.12   872.63
eigval :      874.56   875.07   885.99   890.91   891.83   895.98
eigval :      897.34   898.40   899.92   900.26   901.08   902.15
eigval :      902.33   904.38   915.91   918.72   919.71   921.59
eigval :      921.94   922.20   924.74   925.18   926.10   926.48
eigval :      926.69   927.58   927.71   934.87   935.16  1011.01
eigval :     1011.11  1011.69  1021.77  1062.09  1067.68  1069.51
eigval :     1070.98  1072.18  1073.04  1075.32  1086.78  1088.19
eigval :     1090.49  1091.49  1093.05  1116.87  1131.69  1133.83
eigval :     1146.16  1149.73  1151.24  1152.00  1172.83  1173.05
eigval :     1173.85  1174.32  1174.77  1176.76  1178.61  1180.19
eigval :     1181.65  1186.46  1188.53  1195.33  1200.07  1201.61
eigval :     1210.41  1234.58  1235.39  1235.78  1236.64  1238.43
eigval :     1242.60  1245.49  1246.21  1246.81  1297.36  1297.48
eigval :     1297.82  1300.54  1302.21  1304.42  1309.88  1312.50
eigval :     1314.22  1352.53  1353.07  1354.44  1357.55  1358.05
eigval :     1358.67  1360.86  1362.03  1362.74  1365.23  1372.00
eigval :     1374.81  1417.12  1419.61  1420.88  1427.42  1427.53
eigval :     1428.30  1438.77  1442.29  1445.79  1464.67  1469.29
eigval :     1473.61  1474.32  1474.95  1482.69  1486.58  1486.77
eigval :     1487.37  1515.04  1525.82  1563.19  1565.44  1568.67
eigval :     1572.95  1574.62  1574.71  1584.99  1586.74  1587.84
eigval :     1589.06  1589.68  1590.04  1597.38  1597.62  1598.11
eigval :     1613.32  1613.91  1614.14  3056.67  3062.80  3065.05
eigval :     3072.46  3074.49  3074.79  3074.83  3077.34  3078.76
eigval :     3079.28  3080.07  3081.56  3083.48  3083.96  3085.30
eigval :     3085.94  3086.04  3086.62  3087.25  3088.91  3089.16
eigval :     3091.04  3091.67  3092.35  3093.19  3093.81  3094.68
eigval :     3095.73  3096.12  3097.16  3098.73  3099.03  3102.94
eigval :     3103.46  3104.80  3107.47

   temp. (K)  partition function   enthalpy   heat capacity  entropy
                                   cal/mol     cal/K/mol   cal/K/mol   J/K/mol
 298.15  VIB  0.394E+22            28402.888    181.934    175.988
         ROT  0.860E+08              888.752      2.981     39.287
         INT  0.338E+30            29291.640    184.915    215.275
         TR   0.221E+29             1481.254      4.968     45.914
         TOT                       30772.8941   189.8828   261.1885  1092.8128

       T/K    H(0)-H(T)+PV         H(T)/Eh          T*S/Eh         G(T)/Eh
   ------------------------------------------------------------------------
    298.15    0.490397E-01    0.801292E+00    0.124099E+00    0.677192E+00
   ------------------------------------------------------------------------

         :::::::::::::::::::::::::::::::::::::::::::::::::::::
         ::                  THERMODYNAMIC                  ::
         :::::::::::::::::::::::::::::::::::::::::::::::::::::
         :: total free energy        -157.481212050940 Eh   ::
         ::.................................................::
         :: total energy             -158.158404500507 Eh   ::
         :: zero point energy           0.752251815397 Eh   ::
         :: G(RRHO) w/o ZPVE           -0.075059365830 Eh   ::
         :: G(RRHO) contrib.            0.677192449567 Eh   ::
         :::::::::::::::::::::::::::::::::::::::::::::::::::::

           -------------------------------------------------
          | TOTAL ENERGY             -158.158404500507 Eh   |
          | TOTAL ENTHALPY           -157.357112956853 Eh   |
          | TOTAL FREE ENERGY        -157.481212050940 Eh   |
          | GRADIENT NORM               0.000041317464 Eh/α |
          | HOMO-LUMO GAP               1.905012787618 eV   |
           -------------------------------------------------

 * finished run on 2025/09/14 at 13:02:59.309
