   * xtb version 6.7.1 (edcfbbe) compiled by 'albert@albert-system' on 2024-07-22

   ID    Z sym.   atoms
    1    6 C      1-9, 11-15, 17-30
    2    7 N      10
    3    8 O      16
    4    1 H      31-53

          program call               : xtb data2507/gas/PhCO-DMAC/PhCO-DMAC.xyz --gfn 2 --ohess vtight --parallel 40 --molden --ceasefiles --namespace data2507/gas/PhCO-DMAC/PhCO-DMAC_gas_S0_preOpt
          :  Hamiltonian                  GFN2-xTB          :
 * total energy  :   -78.6644168 Eh     change       -0.5457039E-08 Eh
 * total energy  :   -78.6754772 Eh     change       -0.1106040E-01 Eh
 * total energy  :   -78.6784230 Eh     change       -0.2945869E-02 Eh
 * total energy  :   -78.6789304 Eh     change       -0.5073603E-03 Eh
 * total energy  :   -78.6792751 Eh     change       -0.3446669E-03 Eh
 * total energy  :   -78.6793600 Eh     change       -0.8487797E-04 Eh
 * total energy  :   -78.6794265 Eh     change       -0.6655539E-04 Eh
 * total energy  :   -78.6795046 Eh     change       -0.7810803E-04 Eh
 * total energy  :   -78.6795354 Eh     change       -0.3080360E-04 Eh
 * total energy  :   -78.6795593 Eh     change       -0.2383574E-04 Eh
 * total energy  :   -78.6795825 Eh     change       -0.7371117E-05 Eh
 * total energy  :   -78.6795887 Eh     change       -0.6252538E-05 Eh
 * total energy  :   -78.6795930 Eh     change       -0.4217570E-05 Eh
 * total energy  :   -78.6795959 Eh     change       -0.2886553E-05 Eh
 * total energy  :   -78.6795976 Eh     change       -0.1728115E-05 Eh
 * total energy  :   -78.6795989 Eh     change       -0.1316006E-05 Eh
 * total energy  :   -78.6796000 Eh     change       -0.1084246E-05 Eh
 * total energy  :   -78.6796005 Eh     change       -0.4876429E-06 Eh
 * total energy  :   -78.6796005 Eh     change       -0.8437539E-08 Eh
   *** GEOMETRY OPTIMIZATION CONVERGED AFTER 22 ITERATIONS ***

 final structure:
================
53
 xtb: 6.7.1 (edcfbbe)
C           -4.70454524645956       -0.52328041156496        1.62784135929889
C           -4.05167869571342       -0.27775326651196        0.25541272187318
C           -5.11964224005707       -0.29538209877072       -0.85344756360521
C           -3.38970337008861        1.08741825655032        0.26861536258625
C           -4.15711059528910        2.21858960933350        0.50988350835775
C           -3.60784906850413        3.48727180549683        0.53383308971903
C           -2.25148464742710        3.64208986609918        0.31224774413294
C           -1.46504150202403        2.53562299301780        0.06982851829268
C           -2.01960391742589        1.25303995140827        0.04286491505573
N           -1.20344176043444        0.16009210686566       -0.20244286270221
C            0.18205870963741        0.37458011006916       -0.43424889194051
C            0.64029828285625        0.63553578459134       -1.72117592123034
C            1.98621114394038        0.84950942400434       -1.93961779680463
C            2.89351837541272        0.78453353070928       -0.88355853982330
C            4.33005944588935        1.04627475089041       -1.16451751253150
O            4.67304958054150        1.80503258121298       -2.04849873642954
C            5.32132133386661        0.34028115497211       -0.31386215535078
C            6.53372779008140        0.97067000182249       -0.04100092852074
C            7.48906922683116        0.34073696611867        0.73309733369614
C            7.25193060019060       -0.93385303266750        1.22281966532119
C            6.05980131656263       -1.57819450413261        0.93252556787679
C            5.09396711807579       -0.94600339592832        0.17122611785745
C            2.42726719447241        0.53390824188781        0.40553454581840
C            1.07860358968210        0.33340785998955        0.62823845347425
C           -1.69661150020487       -1.13380722665651       -0.23219301964450
C           -0.82679410227220       -2.19793565174439       -0.48665493634060
C           -1.28764296156368       -3.49712042468758       -0.52254740675696
C           -2.62842870013320       -3.75776150936765       -0.30578722530438
C           -3.49077082805169       -2.70571855395326       -0.05744219304897
C           -3.05459712219848       -1.38881361859829       -0.01517177160326
H           -5.43956312003027        0.24491638266295        1.85132557844491
H           -3.94467836583251       -0.50835886632978        2.40704705840458
H           -5.20316650267223       -1.48822858222474        1.65376178766722
H           -4.65121652583595       -0.12265900104446       -1.82066845475305
H           -5.86232469987800        0.48043797317118       -0.68909521433212
H           -5.62979402199246       -1.25413666230262       -0.88607914099745
H           -5.21718097015934        2.11318297353508        0.68499276617812
H           -4.23433219818415        4.34525273465486        0.72429492179942
H           -1.80163943075953        4.62356083996485        0.32748224354956
H           -0.40688692802927        2.66282752023448       -0.10150746042504
H           -0.06576337730937        0.67477237958523       -2.53716534018354
H            2.35886960458561        1.06369349528530       -2.93008284163541
H            6.70371273080970        1.95983597268025       -0.43947106854451
H            8.42164390426477        0.83951733955732        0.95122791221737
H            7.99947948229841       -1.42920820036589        1.82466170978191
H            5.88300119221968       -2.57792278137050        1.30111765426378
H            4.17352587387996       -1.45834665249887       -0.06859233162514
H            3.11725474254124        0.52012965528287        1.23630249177473
H            0.70768257726417        0.14504098041950        1.62485217335040
H            0.22018191354663       -1.99941593404518       -0.65998456635223
H           -0.59756901810690       -4.30362878740299       -0.72137819130426
H           -3.00198075670636       -4.77002867794347       -0.33148615785122
H           -4.53519555610892       -2.92420340196161        0.10664302885069

          :  Hamiltonian                  GFN2-xTB          :
         :: gradient norm              0.000068065792 Eh/a0 ::
         :: HOMO-LUMO gap              1.473953800406 eV    ::
         :: SCC energy               -80.085923022365 Eh    ::
         :: -> dispersion             -0.068140791984 Eh    ::
         :: repulsion energy           1.406322547385 Eh    ::

    * Orbital Energies and Occupations

         #    Occupation            Energy/Eh            Energy/eV
      -------------------------------------------------------------
         1        2.0000           -0.7075456             -19.2533
       ...           ...                  ...                  ...
        61        2.0000           -0.4352637             -11.8441
        62        2.0000           -0.4273823             -11.6297
        63        2.0000           -0.4269017             -11.6166
        64        2.0000           -0.4202634             -11.4359
        65        2.0000           -0.4193403             -11.4108
        66        2.0000           -0.4188528             -11.3976
        67        2.0000           -0.4076089             -11.0916
        68        2.0000           -0.4066696             -11.0660
        69        2.0000           -0.4021993             -10.9444
        70        2.0000           -0.3969058             -10.8004
        71        2.0000           -0.3931805             -10.6990
        72        2.0000           -0.3915643             -10.6550
        73        2.0000           -0.3457009              -9.4070 (HOMO)
        74                         -0.2915341              -7.9330 (LUMO)
        75                         -0.2452508              -6.6736
        76                         -0.2438536              -6.6356
        77                         -0.2370870              -6.4515
        78                         -0.2228657              -6.0645
        79                         -0.2181190              -5.9353
        80                         -0.2167142              -5.8971
        81                         -0.1956751              -5.3246
        82                         -0.1886343              -5.1330
        83                         -0.1147389              -3.1222
        84                         -0.0935491              -2.5456
       ...                                ...                  ...
       143                          0.6806159              18.5205
      -------------------------------------------------------------
                  HL-Gap            0.0541668 Eh            1.4740 eV

     #   Z          covCN         q      C6AA      α(0)
     1   6 C        3.761    -0.103    22.512     6.764
     2   6 C        3.909     0.021    20.157     6.381
     3   6 C        3.761    -0.103    22.510     6.763
     4   6 C        2.979    -0.014    28.363     8.736
     5   6 C        2.928    -0.036    28.897     8.816
     6   6 C        2.917    -0.045    29.109     8.847
     7   6 C        2.920    -0.033    28.813     8.802
     8   6 C        2.924    -0.059    29.468     8.902
     9   6 C        2.929     0.058    26.699     8.474
    10   7 N        2.755    -0.073    22.658     7.070
    11   6 C        2.929     0.078    26.265     8.405
    12   6 C        2.919    -0.036    28.887     8.814
    13   6 C        2.924    -0.017    28.445     8.746
    14   6 C        2.972    -0.012    28.318     8.729
    15   6 C        2.828     0.226    23.248     7.901
    16   8 O        0.858    -0.366    21.004     6.145
    17   6 C        2.973    -0.011    28.295     8.725
    18   6 C        2.925    -0.017    28.440     8.746
    19   6 C        2.918    -0.026    28.655     8.778
    20   6 C        2.920    -0.023    28.572     8.766
    21   6 C        2.918    -0.027    28.678     8.782
    22   6 C        2.921    -0.026    28.657     8.779
    23   6 C        2.920    -0.026    28.656     8.778
    24   6 C        2.920    -0.037    28.910     8.817
    25   6 C        2.929     0.058    26.695     8.473
    26   6 C        2.924    -0.059    29.477     8.904
    27   6 C        2.920    -0.033    28.824     8.804
    28   6 C        2.917    -0.045    29.118     8.849
    29   6 C        2.928    -0.036    28.895     8.815
    30   6 C        2.979    -0.014    28.359     8.735
    31   1 H        0.925     0.039     2.460     2.453
    32   1 H        0.925     0.031     2.575     2.510
    33   1 H        0.925     0.039     2.462     2.454
    34   1 H        0.925     0.031     2.569     2.506
    35   1 H        0.925     0.039     2.459     2.452
    36   1 H        0.925     0.039     2.462     2.454
    37   1 H        0.926     0.030     2.590     2.517
    38   1 H        0.926     0.026     2.641     2.541
    39   1 H        0.926     0.028     2.618     2.530
    40   1 H        0.926     0.022     2.696     2.568
    41   1 H        0.926     0.050     2.324     2.384
    42   1 H        0.926     0.061     2.183     2.310
    43   1 H        0.926     0.055     2.259     2.350
    44   1 H        0.926     0.041     2.442     2.444
    45   1 H        0.926     0.039     2.461     2.453
    46   1 H        0.926     0.038     2.476     2.461
    47   1 H        0.926     0.036     2.504     2.475
    48   1 H        0.926     0.043     2.404     2.424
    49   1 H        0.926     0.047     2.357     2.401
    50   1 H        0.926     0.019     2.741     2.589
    51   1 H        0.926     0.026     2.641     2.541
    52   1 H        0.926     0.026     2.646     2.544
    53   1 H        0.926     0.030     2.588     2.516

molecular dipole:
                 x           y           z       tot (Debye)
 q only:       -0.045      -0.669       0.834
   full:       -0.029      -0.766       0.942       3.087

 projected vibrational frequencies (cm⁻¹)
eigval :       -0.00    -0.00    -0.00    -0.00     0.00     0.00
eigval :      -13.21    19.72    20.92    35.24    44.11    56.91
eigval :       75.00    97.62   101.80   118.40   129.05   155.63
eigval :      171.99   187.54   191.20   219.65   220.65   233.69
eigval :      278.12   301.97   311.75   330.57   343.81   357.58
eigval :      365.18   373.95   377.75   381.43   398.23   410.07
eigval :      449.16   453.56   480.51   487.73   515.46   541.33
eigval :      547.47   559.51   581.26   586.78   593.06   607.43
eigval :      622.93   648.28   665.13   679.54   681.75   692.92
eigval :      707.31   721.93   757.31   775.48   776.11   777.57
eigval :      818.09   829.06   863.58   865.54   873.27   880.38
eigval :      897.48   910.58   912.64   913.60   916.76   920.52
eigval :      921.18   922.03   928.74   933.30   936.05   937.52
eigval :      942.19   957.11   994.79  1014.31  1024.79  1077.40
eigval :     1080.69  1086.28  1112.91  1119.07  1119.65  1128.01
eigval :     1140.85  1160.69  1168.61  1175.79  1180.97  1182.11
eigval :     1187.20  1187.50  1194.67  1210.21  1244.01  1249.55
eigval :     1259.11  1261.08  1268.95  1277.27  1294.63  1310.33
eigval :     1321.64  1322.94  1326.02  1336.08  1346.32  1399.16
eigval :     1402.79  1420.74  1429.67  1437.09  1444.77  1462.41
eigval :     1473.53  1482.21  1490.11  1490.93  1498.43  1500.57
eigval :     1505.52  1560.79  1576.00  1580.33  1586.01  1591.57
eigval :     1592.05  1593.39  1603.38  1697.49  3026.45  3028.63
eigval :     3039.32  3042.04  3048.06  3051.87  3075.70  3077.12
eigval :     3078.52  3080.10  3082.01  3082.60  3082.88  3086.43
eigval :     3089.30  3091.10  3092.75  3092.95  3094.55  3097.78
eigval :     3097.90  3099.28  3099.65

   temp. (K)  partition function   enthalpy   heat capacity  entropy
                                   cal/mol     cal/K/mol   cal/K/mol   J/K/mol
 298.15  VIB  0.668E+11            14267.831     91.022     87.758
         ROT  0.206E+08              888.752      2.981     36.444
         INT  0.137E+19            15156.583     94.003    124.202
         TR   0.744E+28             1481.254      4.968     43.751
         TOT                       16637.8374    98.9707   167.9528   702.7146

       T/K    H(0)-H(T)+PV         H(T)/Eh          T*S/Eh         G(T)/Eh
   ------------------------------------------------------------------------
    298.15    0.265141E-01    0.446226E+00    0.797998E-01    0.366426E+00
   ------------------------------------------------------------------------

         :::::::::::::::::::::::::::::::::::::::::::::::::::::
         ::                  THERMODYNAMIC                  ::
         :::::::::::::::::::::::::::::::::::::::::::::::::::::
         :: total free energy         -78.313174406200 Eh   ::
         ::.................................................::
         :: total energy              -78.679600474979 Eh   ::
         :: zero point energy           0.419711788159 Eh   ::
         :: G(RRHO) w/o ZPVE           -0.053285719380 Eh   ::
         :: G(RRHO) contrib.            0.366426068779 Eh   ::
         :::::::::::::::::::::::::::::::::::::::::::::::::::::

           -------------------------------------------------
          | TOTAL ENERGY              -78.679600474979 Eh   |
          | TOTAL ENTHALPY            -78.233374605244 Eh   |
          | TOTAL FREE ENERGY         -78.313174406200 Eh   |
          | GRADIENT NORM               0.000068049523 Eh/α |
          | HOMO-LUMO GAP               1.473952943732 eV   |
           -------------------------------------------------

 * finished run on 2025/08/29 at 12:21:04.063
