   * xtb version 6.7.1 (edcfbbe) compiled by 'albert@albert-system' on 2024-07-22

   ID    Z sym.   atoms
    1    6 C      1-9, 11-15, 17-30
    2    7 N      10
    3    8 O      16
    4    1 H      31-53

          program call               : xtb data2507/gas/PhCO-DMAC/PhCO-DMAC_gas_T1_crest.xyz --gfn 2 --spinpol --tblite --uhf 2 --ohess vtight --parallel 40 --molden --ceasefiles --namespace data2507/gas/PhCO-DMAC/PhCO-DMAC_gas_T1_finalOpt
 * total energy  :   -78.5992553 Eh     change       -0.9406023E-09 Eh
 * total energy  :   -78.5993035 Eh     change       -0.4822493E-04 Eh
 * total energy  :   -78.5993204 Eh     change       -0.1694693E-04 Eh
 * total energy  :   -78.5993225 Eh     change       -0.2038417E-05 Eh
 * total energy  :   -78.5993241 Eh     change       -0.1613485E-05 Eh
 * total energy  :   -78.5993260 Eh     change       -0.1869487E-05 Eh
 * total energy  :   -78.5993280 Eh     change       -0.2068796E-05 Eh
 * total energy  :   -78.5993298 Eh     change       -0.1815612E-05 Eh
 * total energy  :   -78.5993311 Eh     change       -0.1292791E-05 Eh
 * total energy  :   -78.5993325 Eh     change       -0.1339630E-05 Eh
 * total energy  :   -78.5993547 Eh     change       -0.3037285E-06 Eh
 * total energy  :   -78.5993549 Eh     change       -0.2208644E-06 Eh
 * total energy  :   -78.5993551 Eh     change       -0.1660236E-06 Eh
 * total energy  :   -78.5993552 Eh     change       -0.1304676E-06 Eh
 * total energy  :   -78.5993553 Eh     change       -0.1087427E-06 Eh
 * total energy  :   -78.5993554 Eh     change       -0.1131863E-06 Eh
 * total energy  :   -78.5993555 Eh     change       -0.1307053E-06 Eh
 * total energy  :   -78.5993555 Eh     change        0.1439459E-07 Eh
 * total energy  :   -78.5993556 Eh     change       -0.3908406E-07 Eh
   *** GEOMETRY OPTIMIZATION CONVERGED AFTER 45 ITERATIONS ***

 final structure:
================
53
 xtb: 6.7.1 (edcfbbe)
C           -5.09880229530300       -0.58422380556239        1.66842296471618
C           -4.44536146136404       -0.29533923347558        0.30340284307390
C           -5.52196460762122       -0.21834700077224       -0.79597181007457
C           -3.73322048941922        1.03831614796053        0.38182502814311
C           -4.45400998120808        2.18729185343314        0.67574519239960
C           -3.84793326199502        3.42650899030205        0.77242105390789
C           -2.47903372080483        3.53472322736865        0.58044316200879
C           -1.73777131591179        2.41315925626767        0.28736411381245
C           -2.35000460247418        1.15629016769267        0.17442357979770
N           -1.58077627676242        0.05448899814571       -0.13024274193673
C           -0.18051151195137        0.22136156045836       -0.33059864010862
C            0.31388423579933        0.68459614955648       -1.55454488798855
C            1.66110166553377        0.83383268616561       -1.73962752122700
C            2.58215690906748        0.50213583169978       -0.71305759482563
C            3.97652961608982        0.70335970246858       -0.97658658060691
O            4.36243159816516        1.38630055436126       -1.97277138035167
C            4.99489813627972        0.12730336016948       -0.08572644536255
C            6.19963813829371        0.81612936326333        0.09443880609938
C            7.18271005797210        0.29556057460833        0.90948936051415
C            6.99881862272074       -0.92680271578630        1.53847246471624
C            5.82538977880542       -1.63542348045107        1.32743091457910
C            4.83188436263198       -1.12364431627685        0.51681996727342
C            2.06031349931158        0.08669557796838        0.53092041709959
C            0.70755745916632       -0.05843864972736        0.71135282903840
C           -2.12475245548828       -1.20662772000517       -0.24052026735777
C           -1.29568503252525       -2.28593344011733       -0.57950870410744
C           -1.80494346284590       -3.55941107250760       -0.68919344074379
C           -3.15486517949553       -3.78417451901973       -0.46628404991522
C           -3.97912755850660       -2.72098634545373       -0.14632497933137
C           -3.49502643339096       -1.42543337734792       -0.03032478075491
H           -5.80206734036947        0.19973294156806        1.93409498685414
H           -4.33472792135910       -0.63718762736178        2.44160067722618
H           -5.63363451589679       -1.52939921962062        1.64874232187988
H           -6.23418989510248        0.57410241631662       -0.58513630635827
H           -6.06691190500430       -1.15496912017155       -0.87014501351657
H           -5.05551309561484       -0.01478961883604       -1.75791564554643
H           -5.51911450380492        2.12028249759095        0.83649547591848
H           -4.43873617634197        4.30001872108609        1.00108058774457
H           -1.99026148381599        4.49338882269452        0.66126041221173
H           -0.67209392805945        2.49452945981454        0.14441702248295
H           -0.38118757420462        0.91747428546220       -2.34841249820946
H            2.06136732869468        1.19115282179791       -2.67601806809156
H            6.33675876074183        1.76461449858633       -0.40187360821354
H            8.10163151416228        0.84531163975641        1.05436743254402
H            7.77098717848119       -1.33403875873358        2.17414565710427
H            5.68859647132316       -2.60357832384926        1.78826584095128
H            3.94496958966136       -1.70791595502105        0.32139416007627
H            2.72456725424292       -0.08334769783715        1.36389422441325
H            0.31308837866064       -0.37588736828652        1.66650415359722
H           -0.24744111341353       -2.10735587863815       -0.75884896093754
H           -1.15107945261550       -4.37729262479595       -0.95022648077373
H           -3.56400847724160       -4.77939313559717       -0.54684476534579
H           -5.02887288008963       -2.91277910211271        0.01494587310468

 projected vibrational frequencies (cm⁻¹)
eigval :       -0.00    -0.00    -0.00     0.00     0.00     0.00
eigval :       10.19    20.42    24.46    41.60    51.26    66.91
eigval :       85.57    96.34   102.32   123.51   129.52   154.17
eigval :      175.95   192.55   204.11   216.59   231.78   234.50
eigval :      291.61   298.53   305.25   326.44   337.77   340.99
eigval :      368.35   372.16   381.94   388.79   399.47   409.19
eigval :      443.29   449.63   460.03   505.31   510.72   523.11
eigval :      540.37   543.23   553.86   578.19   582.49   591.32
eigval :      598.77   606.46   649.39   660.10   662.35   687.50
eigval :      701.32   707.37   747.13   752.52   774.72   776.44
eigval :      795.26   825.63   835.53   861.34   870.35   871.17
eigval :      880.78   884.12   893.29   906.97   912.18   915.67
eigval :      916.33   918.91   923.00   923.47   923.62   935.64
eigval :      937.67   958.11   979.09   998.70  1013.35  1075.27
eigval :     1077.76  1084.76  1105.97  1112.56  1116.06  1125.06
eigval :     1137.93  1151.20  1162.12  1164.00  1168.40  1177.40
eigval :     1183.13  1184.41  1194.70  1207.30  1233.68  1241.39
eigval :     1243.16  1253.84  1257.60  1275.38  1294.31  1305.84
eigval :     1313.36  1323.21  1326.39  1330.18  1335.70  1401.78
eigval :     1408.61  1416.86  1419.30  1419.54  1424.95  1429.55
eigval :     1439.90  1453.69  1456.84  1468.67  1478.93  1487.12
eigval :     1487.82  1497.87  1501.41  1546.41  1554.26  1556.07
eigval :     1568.72  1578.41  1579.37  1590.94  3030.18  3031.93
eigval :     3044.74  3047.12  3052.95  3056.43  3066.51  3069.90
eigval :     3071.86  3074.31  3082.49  3085.87  3086.05  3088.58
eigval :     3091.56  3092.14  3093.96  3097.12  3099.79  3101.15
eigval :     3101.50  3111.37  3112.61

   temp. (K)  partition function   enthalpy   heat capacity  entropy
                                   cal/mol     cal/K/mol   cal/K/mol   J/K/mol
 298.15  VIB  0.422E+11            14339.450     92.676     87.913
         ROT  0.208E+08              888.752      2.981     36.464
         INT  0.876E+18            15228.202     95.657    124.377
         TR   0.744E+28             1481.254      4.968     43.751
         TOT                       16709.4563   100.6251   168.1285   703.4496

       T/K    H(0)-H(T)+PV         H(T)/Eh          T*S/Eh         G(T)/Eh
   ------------------------------------------------------------------------
    298.15    0.266282E-01    0.443504E+00    0.798833E-01    0.363620E+00
   ------------------------------------------------------------------------

         :::::::::::::::::::::::::::::::::::::::::::::::::::::
         ::                  THERMODYNAMIC                  ::
         :::::::::::::::::::::::::::::::::::::::::::::::::::::
         :: total free energy         -78.235735049614 Eh   ::
         ::.................................................::
         :: total energy              -78.599355542731 Eh   ::
         :: zero point energy           0.416875555052 Eh   ::
         :: G(RRHO) w/o ZPVE           -0.053255061935 Eh   ::
         :: G(RRHO) contrib.            0.363620493117 Eh   ::
         :::::::::::::::::::::::::::::::::::::::::::::::::::::

           -------------------------------------------------
          | TOTAL ENERGY              -78.599355542731 Eh   |
          | TOTAL ENTHALPY            -78.155851774075 Eh   |
          | TOTAL FREE ENERGY         -78.235735049614 Eh   |
          | GRADIENT NORM               0.000022264896 Eh/α |
           -------------------------------------------------

 * finished run on 2025/08/29 at 12:24:10.750
