   * xtb version 6.7.1 (edcfbbe) compiled by 'albert@albert-system' on 2024-07-22

   ID    Z sym.   atoms
    1    6 C      1-9, 11-15, 17-30
    2    7 N      10
    3    8 O      16
    4    1 H      31-53

          program call               : xtb data2507/gas/PhCO-DMAC/PhCO-DMAC_gas_S0_crest.xyz --gfn 2 --ohess vtight --parallel 40 --molden --ceasefiles --namespace data2507/gas/PhCO-DMAC/PhCO-DMAC_gas_S0_finalOpt
          :  Hamiltonian                  GFN2-xTB          :
 * total energy  :   -78.6797697 Eh     change       -0.1045919E-08 Eh
 * total energy  :   -78.6797706 Eh     change       -0.8388404E-06 Eh
 * total energy  :   -78.6797715 Eh     change       -0.9488703E-06 Eh
 * total energy  :   -78.6797733 Eh     change       -0.1732179E-05 Eh
 * total energy  :   -78.6797737 Eh     change       -0.3975114E-06 Eh
 * total energy  :   -78.6797739 Eh     change       -0.2793447E-06 Eh
 * total energy  :   -78.6797743 Eh     change       -0.3284032E-06 Eh
 * total energy  :   -78.6797745 Eh     change       -0.2174354E-06 Eh
 * total energy  :   -78.6797746 Eh     change       -0.1222015E-06 Eh
 * total energy  :   -78.6797747 Eh     change       -0.9315755E-07 Eh
   *** GEOMETRY OPTIMIZATION CONVERGED AFTER 10 ITERATIONS ***

 final structure:
================
53
 xtb: 6.7.1 (edcfbbe)
C           -5.11385407653179       -0.73795451932380        1.53632075657524
C           -4.40474883963384       -0.44565506991228        0.20128606103159
C           -5.41526613269455       -0.48450989582852       -0.95966211428252
C           -3.79553578017137        0.94131701120060        0.27338420842806
C           -4.62043225758045        2.03652313680310        0.49216310947111
C           -4.12255983684328        3.32126758174033        0.60110790058513
C           -2.75793825094271        3.52613980538890        0.50907510081633
C           -1.91592477274624        2.45633914718573        0.29056996906984
C           -2.41995391005318        1.16011578827021        0.14889743891340
N           -1.54878559105172        0.10333408019168       -0.08107535256806
C           -0.16365013932446        0.36799641540097       -0.21743332726323
C            0.32018401356695        0.99725343192493       -1.36111129269437
C            1.67006646428347        1.25271624828086       -1.48669846943002
C            2.56137916092915        0.86236675785239       -0.48831051655666
C            4.00405156161841        1.17131316479663       -0.66188108960755
O            4.37266363537792        2.15649741144599       -1.26956431459438
C            4.97143734844403        0.21889549301983       -0.05958281945695
C            6.19221157807149        0.70865802538019        0.40018941898169
C            7.12598047966486       -0.14884805518404        0.94933730116208
C            6.85873422546821       -1.50666641967995        1.02376405799404
C            5.65789032520688       -2.00481020732857        0.54385900591384
C            4.71372460371202       -1.14878433290726        0.00736909238119
C            2.07127648149042        0.24342352026077        0.66049144616113
C            0.71826811198597        0.00374563504838        0.79632628095628
C           -1.99781618860928       -1.20584482481915       -0.18340120842174
C           -1.09016667130876       -2.23084483318498       -0.46711724526773
C           -1.50514213595078       -3.54215223033911       -0.56392291108763
C           -2.84036692613386       -3.85666149541344       -0.38883433180645
C           -3.74471622822752       -2.84166627338571       -0.13880605089302
C           -3.35456821260226       -1.51311434596222       -0.03808367085464
H           -5.57216097385451       -1.72298362231192        1.52509237007330
H           -5.89023853336228       -0.00383775857737        1.73276662200417
H           -4.39447608721636       -0.70308626583540        2.35249383899345
H           -6.19274763132172        0.26189013559897       -0.82277354402931
H           -5.88906614585975       -1.45962621987379       -1.03037249228240
H           -4.90604140578147       -0.28145858587479       -1.89998510533017
H           -5.68571578560427        1.88775913777671        0.58384920718967
H           -4.79295447779210        4.15060022938568        0.76719027405325
H           -2.34392342986484        4.51812827728059        0.61061180561420
H           -0.85176521815623        2.62600245606628        0.23527169061375
H           -0.37086370427048        1.28604830020525       -2.13906940090848
H            2.05983563559781        1.74606869580261       -2.36444031966566
H            6.38602325721588        1.76831452545459        0.32460301060957
H            8.06541283443857        0.23853515868940        1.31472910944597
H            7.58959063498449       -2.17882064594066        1.44865257028443
H            5.45752051493906       -3.06527262678254        0.58754638293648
H            3.78663026236777       -1.54274816951540       -0.38313611443833
H            2.74710456752637       -0.02487377794515        1.45909000056115
H            0.33146174426024       -0.46953345475177        1.68679381527999
H           -0.04853962540715       -1.99444114111162       -0.62107265583043
H           -0.78339059093655       -4.31566051458288       -0.78049385933987
H           -3.17778962959008       -4.87951812459157       -0.45743446647811
H           -4.78674078552622       -3.09826688108770       -0.02193943051239

          :  Hamiltonian                  GFN2-xTB          :
         :: gradient norm              0.000046588361 Eh/a0 ::
         :: HOMO-LUMO gap              1.565247868514 eV    ::
         :: SCC energy               -80.085703954632 Eh    ::
         :: -> dispersion             -0.068238076996 Eh    ::
         :: repulsion energy           1.405929261197 Eh    ::

    * Orbital Energies and Occupations

         #    Occupation            Energy/Eh            Energy/eV
      -------------------------------------------------------------
         1        2.0000           -0.7055967             -19.2003
       ...           ...                  ...                  ...
        61        2.0000           -0.4343031             -11.8180
        62        2.0000           -0.4278347             -11.6420
        63        2.0000           -0.4250944             -11.5674
        64        2.0000           -0.4193934             -11.4123
        65        2.0000           -0.4182243             -11.3805
        66        2.0000           -0.4177443             -11.3674
        67        2.0000           -0.4083917             -11.1129
        68        2.0000           -0.4074426             -11.0871
        69        2.0000           -0.4034136             -10.9774
        70        2.0000           -0.3978919             -10.8272
        71        2.0000           -0.3925052             -10.6806
        72        2.0000           -0.3914698             -10.6524
        73        2.0000           -0.3473067              -9.4507 (HOMO)
        74                         -0.2897848              -7.8854 (LUMO)
        75                         -0.2438292              -6.6349
        76                         -0.2422981              -6.5933
        77                         -0.2359745              -6.4212
        78                         -0.2242046              -6.1009
        79                         -0.2193566              -5.9690
        80                         -0.2177382              -5.9250
        81                         -0.1961670              -5.3380
        82                         -0.1878294              -5.1111
        83                         -0.1134198              -3.0863
        84                         -0.0923351              -2.5126
       ...                                ...                  ...
       143                          0.6800376              18.5048
      -------------------------------------------------------------
                  HL-Gap            0.0575219 Eh            1.5653 eV

     #   Z          covCN         q      C6AA      α(0)
     1   6 C        3.761    -0.103    22.513     6.764
     2   6 C        3.909     0.021    20.156     6.381
     3   6 C        3.761    -0.103    22.515     6.764
     4   6 C        2.980    -0.014    28.348     8.734
     5   6 C        2.928    -0.036    28.898     8.816
     6   6 C        2.917    -0.044    29.092     8.845
     7   6 C        2.920    -0.033    28.811     8.802
     8   6 C        2.924    -0.059    29.458     8.901
     9   6 C        2.927     0.058    26.708     8.475
    10   7 N        2.754    -0.070    22.593     7.060
    11   6 C        2.928     0.076    26.308     8.411
    12   6 C        2.919    -0.037    28.922     8.819
    13   6 C        2.924    -0.018    28.460     8.749
    14   6 C        2.972    -0.014    28.348     8.733
    15   6 C        2.828     0.226    23.257     7.902
    16   8 O        0.858    -0.368    21.043     6.150
    17   6 C        2.973    -0.011    28.295     8.725
    18   6 C        2.925    -0.017    28.443     8.746
    19   6 C        2.918    -0.026    28.658     8.779
    20   6 C        2.920    -0.023    28.577     8.766
    21   6 C        2.918    -0.027    28.681     8.782
    22   6 C        2.921    -0.026    28.658     8.779
    23   6 C        2.920    -0.027    28.668     8.780
    24   6 C        2.920    -0.038    28.937     8.821
    25   6 C        2.927     0.058    26.703     8.474
    26   6 C        2.924    -0.059    29.467     8.902
    27   6 C        2.920    -0.033    28.824     8.804
    28   6 C        2.917    -0.044    29.103     8.846
    29   6 C        2.928    -0.036    28.895     8.815
    30   6 C        2.980    -0.013    28.342     8.733
    31   1 H        0.925     0.039     2.459     2.452
    32   1 H        0.925     0.039     2.456     2.451
    33   1 H        0.925     0.031     2.572     2.508
    34   1 H        0.925     0.040     2.455     2.450
    35   1 H        0.925     0.039     2.459     2.452
    36   1 H        0.925     0.031     2.565     2.505
    37   1 H        0.926     0.030     2.583     2.513
    38   1 H        0.926     0.027     2.632     2.537
    39   1 H        0.926     0.029     2.604     2.524
    40   1 H        0.926     0.025     2.655     2.548
    41   1 H        0.926     0.049     2.336     2.390
    42   1 H        0.926     0.060     2.196     2.317
    43   1 H        0.926     0.055     2.262     2.352
    44   1 H        0.926     0.040     2.447     2.446
    45   1 H        0.926     0.039     2.467     2.456
    46   1 H        0.926     0.037     2.483     2.464
    47   1 H        0.926     0.035     2.510     2.477
    48   1 H        0.926     0.042     2.417     2.431
    49   1 H        0.926     0.046     2.369     2.407
    50   1 H        0.926     0.022     2.709     2.574
    51   1 H        0.926     0.027     2.634     2.538
    52   1 H        0.926     0.026     2.638     2.540
    53   1 H        0.926     0.030     2.580     2.512

molecular dipole:
                 x           y           z       tot (Debye)
 q only:       -0.211      -0.900       0.594
   full:       -0.203      -1.031       0.671       3.168

 projected vibrational frequencies (cm⁻¹)
eigval :       -0.00    -0.00     0.00     0.00     0.00     0.00
eigval :       14.04    18.88    25.54    36.58    48.95    60.46
eigval :       77.44   100.31   103.26   119.37   128.15   157.96
eigval :      171.51   188.67   191.41   218.98   223.98   235.90
eigval :      279.28   303.61   312.79   331.78   344.08   359.06
eigval :      366.34   373.96   378.19   383.22   397.71   410.59
eigval :      452.00   454.03   480.17   492.57   515.07   541.89
eigval :      547.41   560.17   581.20   586.78   593.66   607.48
eigval :      622.60   648.39   665.12   679.85   682.79   693.83
eigval :      707.27   720.76   756.97   775.09   777.13   778.31
eigval :      819.93   829.41   865.76   868.14   874.57   880.53
eigval :      897.42   910.45   913.15   914.19   915.84   920.82
eigval :      921.53   923.83   929.58   933.42   935.93   937.42
eigval :      941.98   957.25   994.65  1014.47  1024.70  1077.19
eigval :     1080.74  1086.02  1114.73  1119.62  1120.23  1129.66
eigval :     1141.29  1160.43  1170.02  1176.25  1181.07  1183.10
eigval :     1187.76  1188.54  1195.05  1210.08  1244.61  1250.32
eigval :     1260.69  1261.13  1269.48  1277.35  1295.21  1312.35
eigval :     1319.77  1322.46  1326.11  1335.24  1341.36  1401.05
eigval :     1403.04  1421.04  1429.77  1436.46  1443.09  1462.53
eigval :     1473.55  1480.12  1489.98  1490.93  1497.01  1500.56
eigval :     1505.31  1558.32  1575.95  1580.48  1583.19  1591.40
eigval :     1591.78  1593.35  1603.04  1695.09  3026.45  3028.67
eigval :     3039.81  3042.48  3048.65  3052.36  3075.41  3077.99
eigval :     3079.45  3079.78  3082.03  3083.24  3084.10  3086.17
eigval :     3088.37  3092.57  3093.47  3094.24  3095.05  3097.65
eigval :     3098.97  3100.12  3102.41

   temp. (K)  partition function   enthalpy   heat capacity  entropy
                                   cal/mol     cal/K/mol   cal/K/mol   J/K/mol
 298.15  VIB  0.410E+11            14218.533     91.175     87.269
         ROT  0.205E+08              888.752      2.981     36.437
         INT  0.840E+18            15107.286     94.156    123.705
         TR   0.744E+28             1481.254      4.968     43.751
         TOT                       16588.5395    99.1244   167.4563   700.6373

       T/K    H(0)-H(T)+PV         H(T)/Eh          T*S/Eh         G(T)/Eh
   ------------------------------------------------------------------------
    298.15    0.264355E-01    0.446306E+00    0.795639E-01    0.366742E+00
   ------------------------------------------------------------------------

         :::::::::::::::::::::::::::::::::::::::::::::::::::::
         ::                  THERMODYNAMIC                  ::
         :::::::::::::::::::::::::::::::::::::::::::::::::::::
         :: total free energy         -78.313032511542 Eh   ::
         ::.................................................::
         :: total energy              -78.679774693434 Eh   ::
         :: zero point energy           0.419870570236 Eh   ::
         :: G(RRHO) w/o ZPVE           -0.053128388344 Eh   ::
         :: G(RRHO) contrib.            0.366742181892 Eh   ::
         :::::::::::::::::::::::::::::::::::::::::::::::::::::

           -------------------------------------------------
          | TOTAL ENERGY              -78.679774693434 Eh   |
          | TOTAL ENTHALPY            -78.233468602867 Eh   |
          | TOTAL FREE ENERGY         -78.313032511542 Eh   |
          | GRADIENT NORM               0.000046672531 Eh/α |
          | HOMO-LUMO GAP               1.565250962433 eV   |
           -------------------------------------------------

 * finished run on 2025/08/29 at 12:22:26.288
