   * xtb version 6.7.1 (edcfbbe) compiled by 'albert@albert-system' on 2024-07-22

   ID    Z sym.   atoms
    1    6 C      1-9, 11-15, 17-30
    2    7 N      10
    3    8 O      16
    4    1 H      31-53

          program call               : xtb data2507/gas/PhCO-DMAC/PhCO-DMAC_gas_S0_finalOpt.xtbopt.xyz --gfn 2 --spinpol --tblite --uhf 2 --ohess vtight --parallel 40 --molden --ceasefiles --namespace data2507/gas/PhCO-DMAC/PhCO-DMAC_gas_T1_preOpt
 * total energy  :   -78.5927121 Eh     change       -0.3984391E-07 Eh
 * total energy  :   -78.5965774 Eh     change       -0.3865318E-02 Eh
 * total energy  :   -78.5975963 Eh     change       -0.1018929E-02 Eh
 * total energy  :   -78.5978279 Eh     change       -0.2316358E-03 Eh
 * total energy  :   -78.5980569 Eh     change       -0.2289557E-03 Eh
 * total energy  :   -78.5982639 Eh     change       -0.2069544E-03 Eh
 * total energy  :   -78.5984843 Eh     change       -0.2204412E-03 Eh
 * total energy  :   -78.5986325 Eh     change       -0.1482251E-03 Eh
 * total energy  :   -78.5987048 Eh     change       -0.7223997E-04 Eh
 * total energy  :   -78.5987549 Eh     change       -0.5012972E-04 Eh
 * total energy  :   -78.5993286 Eh     change       -0.1858001E-05 Eh
 * total energy  :   -78.5993302 Eh     change       -0.1660286E-05 Eh
 * total energy  :   -78.5993316 Eh     change       -0.1404916E-05 Eh
 * total energy  :   -78.5993328 Eh     change       -0.1137334E-05 Eh
 * total energy  :   -78.5993337 Eh     change       -0.8798576E-06 Eh
 * total energy  :   -78.5993344 Eh     change       -0.7606783E-06 Eh
 * total energy  :   -78.5993344 Eh     change        0.2696444E-07 Eh
 * total energy  :   -78.5993344 Eh     change        0.7835453E-08 Eh
 * total energy  :   -78.5993344 Eh     change       -0.1757515E-07 Eh
   *** GEOMETRY OPTIMIZATION CONVERGED AFTER 70 ITERATIONS ***

 final structure:
================
53
 xtb: 6.7.1 (edcfbbe)
C           -5.10672142018538       -0.73497790170600        1.60303034570141
C           -4.44184547549922       -0.40851082444671        0.25210665531066
C           -5.50406315499418       -0.34515700629440       -0.86208265574020
C           -3.76788190280534        0.94270658103805        0.36046493276805
C           -4.52420513695296        2.06631573126949        0.66303828586341
C           -3.95381863329100        3.31953549660778        0.79105711744129
C           -2.58523982750041        3.46748347532693        0.62534943457707
C           -1.80937025836360        2.37186731666888        0.32365740170066
C           -2.38571816801052        1.10183493626771        0.17458259067610
N           -1.58287614581701        0.02737219449374       -0.14185330644930
C           -0.18695089336697        0.23540993298654       -0.32943501462918
C            0.29820034433651        0.77925236210176       -1.52379827568704
C            1.64274095222983        0.95833634529042       -1.70183107719829
C            2.57065893436787        0.57384306198644       -0.70048756986365
C            3.96358990841766        0.79712988821444       -0.95764549945932
O            4.33925174320176        1.55013540309888       -1.90588974577368
C            4.98792458904227        0.15835207389015       -0.11921005521802
C            6.20196093489275        0.82374325277899        0.08668679808036
C            7.19285860506460        0.24223196295696        0.84923799410663
C            7.00749456772299       -1.01732749488416        1.39954022322316
C            5.82390942641608       -1.70034967227456        1.16214917499023
C            4.82268364558912       -1.12794848083894        0.40343465720352
C            2.05767553890464        0.08303001205875        0.51951825587896
C            0.70754841469197       -0.09048566256374        0.69378916175854
C           -2.09088489931531       -1.24656474957539       -0.27939497644276
C           -1.23064879067230       -2.29652592767673       -0.63281865790345
C           -1.70314806279577       -3.58191813824442       -0.76567974835917
C           -3.04713849008970       -3.84840262884750       -0.55359606448162
C           -3.90297243633647       -2.81351318250401       -0.22413140938029
C           -3.45616936931333       -1.50685119952075       -0.08484053898570
H           -5.61418729062834       -1.69444629123221        1.56248178687539
H           -5.83588389989681        0.02489252734461        1.86880574972037
H           -4.35286789080870       -0.77718756072950        2.38682246945897
H           -6.24101924491667        0.42421127477980       -0.65073881904034
H           -6.02150871335419       -1.29534639001015       -0.95769846174330
H           -5.02944902460015       -0.11486384648806       -1.81396572401423
H           -5.58938406806163        1.96755020722776        0.80588585727643
H           -4.57175758562347        4.17259632158061        1.02509907887206
H           -2.12360921348471        4.43683753026429        0.73360831670641
H           -0.74381541001858        2.48431308160995        0.20272388021921
H           -0.40182742531286        1.04823711053854       -2.30176887192309
H            2.03558606646799        1.37598097796127       -2.61609425239156
H            6.34021332306812        1.80155120825512       -0.34867386539244
H            8.11936022327287        0.77323987824981        1.01443053296759
H            7.78590552893522       -1.47226419005265        1.99390947015008
H            5.68515493096722       -2.69550924200374        1.56070476575508
H            3.92731475743199       -1.69077851413441        0.18492652138450
H            2.72670991943950       -0.12493787753122        1.34000176764374
H            0.31980786654268       -0.46740468707664        1.62990959360809
H           -0.18728207584430       -2.08639167750455       -0.80571351711389
H           -1.02505137175037       -4.37645165091368       -1.03680749302969
H           -3.42746094254793       -4.85342566519019       -0.65156087674779
H           -4.94820968041381       -3.03673448744020       -0.07452793992240

 projected vibrational frequencies (cm⁻¹)
eigval :       -0.00    -0.00    -0.00    -0.00     0.00     0.00
eigval :       11.84    20.07    24.84    41.40    52.00    67.23
eigval :       86.16    97.27   102.57   123.71   129.22   155.12
eigval :      176.31   192.29   204.50   216.46   232.30   235.00
eigval :      291.28   299.27   305.46   326.60   338.17   341.00
eigval :      368.46   372.38   381.97   388.90   399.61   409.34
eigval :      443.31   449.79   459.42   505.29   510.98   523.40
eigval :      539.94   543.25   553.96   578.30   582.48   591.20
eigval :      598.62   606.48   649.29   660.11   662.34   687.48
eigval :      701.31   707.84   747.11   752.38   774.68   776.43
eigval :      795.67   825.64   835.84   861.23   870.26   871.25
eigval :      880.69   883.96   893.84   907.30   912.20   915.64
eigval :      916.31   918.82   922.89   923.34   923.60   935.73
eigval :      937.58   958.04   978.81   998.67  1013.18  1075.16
eigval :     1077.71  1084.66  1106.30  1112.76  1116.37  1125.38
eigval :     1138.02  1151.25  1161.76  1163.95  1169.62  1177.23
eigval :     1183.34  1184.39  1193.77  1206.39  1233.48  1241.45
eigval :     1243.40  1253.80  1257.26  1275.37  1294.35  1305.23
eigval :     1312.24  1323.70  1326.93  1330.09  1335.70  1401.80
eigval :     1408.91  1416.41  1419.00  1419.37  1425.64  1430.82
eigval :     1440.13  1452.33  1456.76  1468.23  1478.78  1486.80
eigval :     1487.61  1497.67  1501.14  1546.13  1554.27  1555.45
eigval :     1568.78  1578.22  1579.30  1590.53  3030.32  3032.00
eigval :     3044.88  3047.29  3053.39  3056.84  3066.42  3069.88
eigval :     3071.87  3074.42  3082.61  3086.12  3086.30  3088.62
eigval :     3091.88  3092.48  3094.01  3097.83  3100.00  3101.57
eigval :     3101.84  3112.37  3112.78

   temp. (K)  partition function   enthalpy   heat capacity  entropy
                                   cal/mol     cal/K/mol   cal/K/mol   J/K/mol
 298.15  VIB  0.352E+11            14330.285     92.690     87.701
         ROT  0.207E+08              888.752      2.981     36.461
         INT  0.730E+18            15219.037     95.671    124.162
         TR   0.744E+28             1481.254      4.968     43.751
         TOT                       16700.2909   100.6394   167.9127   702.5466

       T/K    H(0)-H(T)+PV         H(T)/Eh          T*S/Eh         G(T)/Eh
   ------------------------------------------------------------------------
    298.15    0.266136E-01    0.443513E+00    0.797807E-01    0.363732E+00
   ------------------------------------------------------------------------

         :::::::::::::::::::::::::::::::::::::::::::::::::::::
         ::                  THERMODYNAMIC                  ::
         :::::::::::::::::::::::::::::::::::::::::::::::::::::
         :: total free energy         -78.235602544554 Eh   ::
         ::.................................................::
         :: total energy              -78.599334413171 Eh   ::
         :: zero point energy           0.416898992470 Eh   ::
         :: G(RRHO) w/o ZPVE           -0.053167123854 Eh   ::
         :: G(RRHO) contrib.            0.363731868616 Eh   ::
         :::::::::::::::::::::::::::::::::::::::::::::::::::::

           -------------------------------------------------
          | TOTAL ENERGY              -78.599334413171 Eh   |
          | TOTAL ENTHALPY            -78.155821813172 Eh   |
          | TOTAL FREE ENERGY         -78.235602544554 Eh   |
          | GRADIENT NORM               0.000161219706 Eh/α |
           -------------------------------------------------

 * finished run on 2025/08/29 at 12:22:32.328
