   * xtb version 6.7.1 (edcfbbe) compiled by 'albert@albert-system' on 2024-07-22

   ID    Z sym.   atoms
    1    6 C      1-9, 11-13, 15-17, 19-21, 23-40
    2    7 N      10, 14, 18, 22
    3   78 Pt     41
    4    1 H      42-87

          program call               : xtb data2507/gas/PtOEP/PtOEP_gas_T1_crest.xyz --gfn 2 --spinpol --tblite --uhf 2 --ohess vtight --parallel 40 --molden --ceasefiles --namespace data2507/gas/PtOEP/PtOEP_gas_T1_finalOpt
 * total energy  :  -116.9022150 Eh     change        0.9519881E-07 Eh
 * total energy  :  -116.9022164 Eh     change       -0.1436716E-05 Eh
 * total energy  :  -116.9022170 Eh     change       -0.6145674E-06 Eh
 * total energy  :  -116.9022179 Eh     change       -0.8778791E-06 Eh
 * total energy  :  -116.9022193 Eh     change       -0.1430749E-05 Eh
 * total energy  :  -116.9022208 Eh     change       -0.1435993E-05 Eh
 * total energy  :  -116.9022211 Eh     change       -0.3321831E-06 Eh
 * total energy  :  -116.9022211 Eh     change        0.1344138E-07 Eh
 * total energy  :  -116.9022214 Eh     change       -0.2510230E-06 Eh
 * total energy  :  -116.9022215 Eh     change       -0.1677087E-06 Eh
 * total energy  :  -116.9022215 Eh     change        0.5293768E-07 Eh
 * total energy  :  -116.9022216 Eh     change       -0.1704674E-06 Eh
 * total energy  :  -116.9022216 Eh     change       -0.3239052E-08 Eh
   *** GEOMETRY OPTIMIZATION CONVERGED AFTER 13 ITERATIONS ***

 final structure:
================
87
 xtb: 6.7.1 (edcfbbe)
C           -5.23889895877977       -2.95511567723495       -1.58977886849870
C           -5.04878376356806       -2.50605725527378       -0.13900456186815
C           -4.04636643867617       -1.40387274349185       -0.04077142111666
C           -4.28251867287072       -0.05730458367406        0.04192823579502
C           -5.60006230744877        0.63804600656086        0.14111257609014
C           -5.92987504100567        0.99694645985976        1.59196406208190
C           -3.00290507405128        0.58788354409403        0.08644243701895
C           -2.82856420829630        1.96739772102700        0.14171652667989
C           -1.62846572624928        2.65237037429873        0.19810918589633
N           -0.36566679078390        2.00926742435912        0.44910026927708
C            0.62136567476886        3.04187950633840        0.27831000578927
C            1.98358109103675        2.79929996553593        0.27678684773128
C            2.61368496904208        1.56464513467640        0.16256149552603
N            1.99927868890627        0.35056162896097        0.00031177463541
C            2.99021089528370       -0.58201382324195       -0.16140689214003
C            2.81786875445076       -1.95736376967472       -0.27617601988398
C            1.61952293999334       -2.64904751006784       -0.27834359687121
N            0.33998305795358       -2.01395343612688       -0.44916057491402
C           -0.62859494407334       -3.04856202484622       -0.19859988710896
C           -1.99016617951936       -2.81289098511538       -0.14193847145694
C           -2.62357771676812       -1.57506304724900       -0.08611327404222
N           -2.01077277704707       -0.35284000363170       -0.00000193962881
C            0.04710801118436       -4.26347351223011        0.00405973052023
C           -0.61795149075152       -5.57819900899344        0.24808320619068
C           -1.03454713628926       -6.23711146412113       -1.06976732071182
C            1.41972873444959       -4.02220391149670       -0.06102902171859
C            2.51258529325300       -5.01273400135528        0.17240755102136
C            2.97091395393445       -4.99339558113933        1.63287146388954
C            4.27026537954156        0.06195846269381       -0.10280488211749
C            5.59137743312961       -0.62542727763195       -0.21717064731901
C            6.03943302123014       -1.19138473954874        1.13287121308365
C            4.03651861227292        1.39459398241195        0.10497955084321
C            5.04491282699510        2.49037170230397        0.22042281035779
C            5.27530355742887        3.17489668993629       -1.12939598212640
C           -0.03379454769142        4.26497210214589        0.06038165054381
C            0.65664793938278        5.56830138994719       -0.17324928939335
C            1.09339670360099        5.70628476187630       -1.63393329697474
C           -1.40655931531006        4.02463489282975       -0.00502427145309
C           -2.47934095950045        5.03433028870705       -0.25000241840940
C           -3.09674847889394        5.51204027947252        1.06720477902759
Pt          -0.00438385191969       -0.00087365302101        0.00000909844245
H           -5.58610603608339       -2.12266640164211       -2.19796006441829
H           -5.97064142429921       -3.75826651336817       -1.64933736925018
H           -4.29783489884167       -3.30917741855001       -2.00463102632129
H           -6.00524336983309       -2.16436582680731        0.26052070031828
H           -4.72607839517390       -3.35764334679193        0.46515204338841
H           -5.58713218645771        1.54805847485526       -0.46391685254546
H           -6.38365510404976       -0.00909379970410       -0.25684289330746
H           -5.97240615212116        0.09659008089355        2.20102727605350
H           -5.16489573044061        1.65041568445893        2.00528667609996
H           -6.89112903052022        1.50330595773280        1.65225250921960
H           -3.72030163348094        2.56862542634054        0.06929350318147
H           -0.34656637463539        1.69860081269793        1.43603642661213
H            2.62209164763261        3.66794876989319        0.27760470820832
H            3.71386326419544       -2.55689438993756       -0.27693324556104
H            0.25236357051513       -1.71528062861419       -1.43609923970300
H           -2.62405762633893       -3.68172909468881       -0.06971432207984
H           -1.50026713398113       -5.43146473808740        0.87433012384386
H            0.06280768884621       -6.24177378330138        0.78308758739102
H           -1.72814050953723       -5.59791529336939       -1.61111341029011
H           -1.51750928935503       -7.19339499649511       -0.88184496087534
H           -0.16402451375044       -6.40611060776011       -1.69992810344927
H            3.36157245889848       -4.78094673144652       -0.47477486306390
H            2.16235305251321       -6.01379994921194       -0.08453912226787
H            2.14419625814513       -5.24881661131349        2.29174604595192
H            3.77591354877380       -5.70787326280171        1.79027775222873
H            3.32497295476983       -4.00138307170262        1.90251729582804
H            5.52803464880212       -1.43433954739399       -0.94868841209750
H            6.34027533848599        0.08382310411087       -0.57466323517513
H            5.30985519881407       -1.90480032312266        1.50903439539440
H            7.00038174449966       -1.69295276544516        1.03755852078208
H            6.13607780458296       -0.39076146654022        1.86286980999344
H            5.98999756609308        2.07815077410677        0.57899790492668
H            4.70937686568722        3.22952924357921        0.95153552404649
H            6.00831462239644        3.97335505401989       -1.03329776484973
H            5.63924172500915        2.45483102578218       -1.85898059008913
H            4.34701596577989        3.59769100611316       -1.50657178537928
H            1.53420338227795        5.63916280945198        0.47344255394769
H           -0.01320294162167        6.39040128577970        0.08420277244562
H            0.22873299447252        5.66523156433623       -2.29233339394490
H            1.60713318445384        6.65208159081494       -1.79149622807951
H            1.76375377438040        4.89399312961739       -1.90405481960955
H           -2.06472839546255        5.89006303680571       -0.78461515048324
H           -3.25835237057275        4.59588707759862       -0.87699576778213
H           -3.53171550410187        4.67489928111642        1.60821800727781
H           -3.87634781056281        6.24664351088728        0.87843247575298
H           -2.33646072214840        5.96749425293358        1.69807153894270

 projected vibrational frequencies (cm⁻¹)
eigval :       -0.00    -0.00     0.00     0.00     0.00     0.00
eigval :       15.79    23.04    34.61    39.55    41.03    49.74
eigval :       50.53    55.09    57.62    61.08    62.98    64.05
eigval :       69.94    71.02    80.74    81.87   108.52   112.28
eigval :      114.64   138.16   146.22   151.11   160.41   161.67
eigval :      171.11   179.35   187.29   189.87   191.52   194.25
eigval :      194.97   195.23   195.57   212.20   214.45   217.99
eigval :      232.35   239.37   240.57   249.96   250.51   259.24
eigval :      277.90   280.36   292.04   299.32   306.46   309.64
eigval :      314.41   314.45   338.88   339.57   361.25   419.76
eigval :      425.81   427.30   431.41   444.36   460.95   485.10
eigval :      504.43   504.67   511.66   515.53   531.51   558.41
eigval :      576.84   596.25   600.66   603.22   630.94   635.90
eigval :      648.73   652.13   654.45   657.72   667.01   668.96
eigval :      678.23   707.82   716.79   733.83   746.92   764.30
eigval :      769.99   778.00   783.52   784.32   788.69   812.30
eigval :      812.31   813.52   815.48   818.81   834.52   836.03
eigval :      842.32   876.32   883.70   922.72   928.24   940.60
eigval :      960.31   987.46   988.35   999.07  1001.03  1009.76
eigval :     1011.65  1023.22  1024.72  1031.94  1035.62  1041.27
eigval :     1043.57  1075.41  1075.57  1075.91  1077.06  1077.14
eigval :     1077.44  1078.14  1078.82  1100.16  1101.10  1105.33
eigval :     1110.04  1115.61  1121.03  1127.63  1129.53  1135.96
eigval :     1145.86  1148.63  1164.50  1168.54  1171.37  1228.01
eigval :     1231.10  1231.56  1239.83  1242.80  1243.26  1243.76
eigval :     1243.93  1268.26  1281.77  1286.23  1290.44  1302.67
eigval :     1309.25  1312.06  1314.22  1315.54  1316.34  1317.83
eigval :     1317.94  1318.86  1325.42  1347.87  1358.19  1380.55
eigval :     1383.05  1397.34  1397.53  1402.57  1404.47  1405.85
eigval :     1406.85  1408.75  1409.21  1409.36  1409.60  1410.25
eigval :     1477.56  1477.68  1478.54  1481.09  1481.26  1484.42
eigval :     1488.16  1493.98  1495.09  1495.23  1497.47  1497.75
eigval :     1497.99  1498.36  1498.55  1499.31  1499.39  1499.60
eigval :     1501.86  1503.85  1505.00  1506.29  1506.61  1507.20
eigval :     1507.75  1508.85  1509.83  1510.53  1512.44  1512.86
eigval :     1556.44  1560.92  1561.28  1611.33  1614.97  2957.66
eigval :     2958.28  2963.39  2963.49  2965.86  2965.92  2972.51
eigval :     2972.57  2982.14  2983.63  2985.66  2986.83  2986.88
eigval :     2988.40  2992.87  2993.11  3023.69  3023.77  3023.83
eigval :     3024.14  3028.71  3028.94  3029.94  3030.18  3031.10
eigval :     3031.72  3031.75  3032.31  3032.44  3032.60  3033.54
eigval :     3035.72  3035.77  3037.55  3037.68  3039.21  3039.25
eigval :     3039.39  3039.41  3042.89  3042.95  3052.11  3107.17
eigval :     3107.63  3108.47  3109.04

   temp. (K)  partition function   enthalpy   heat capacity  entropy
                                   cal/mol     cal/K/mol   cal/K/mol   J/K/mol
 298.15  VIB  0.224E+20            25806.026    152.543    163.625
         ROT  0.253E+08              888.752      2.981     36.855
         INT  0.566E+27            26694.778    155.524    200.480
         TR   0.191E+29             1481.254      4.968     45.622
         TOT                       28176.0319   160.4922   246.1022  1029.6915

       T/K    H(0)-H(T)+PV         H(T)/Eh          T*S/Eh         G(T)/Eh
   ------------------------------------------------------------------------
    298.15    0.449014E-01    0.775983E+00    0.116931E+00    0.659052E+00
   ------------------------------------------------------------------------

         :::::::::::::::::::::::::::::::::::::::::::::::::::::
         ::                  THERMODYNAMIC                  ::
         :::::::::::::::::::::::::::::::::::::::::::::::::::::
         :: total free energy        -116.243170071734 Eh   ::
         ::.................................................::
         :: total energy             -116.902221704963 Eh   ::
         :: zero point energy           0.731081353294 Eh   ::
         :: G(RRHO) w/o ZPVE           -0.072029720065 Eh   ::
         :: G(RRHO) contrib.            0.659051633228 Eh   ::
         :::::::::::::::::::::::::::::::::::::::::::::::::::::

           -------------------------------------------------
          | TOTAL ENERGY             -116.902221704963 Eh   |
          | TOTAL ENTHALPY           -116.126238986796 Eh   |
          | TOTAL FREE ENERGY        -116.243170071734 Eh   |
          | GRADIENT NORM               0.000062683163 Eh/α |
           -------------------------------------------------

 * finished run on 2025/07/18 at 05:24:30.872
