   * xtb version 6.7.1 (edcfbbe) compiled by 'albert@albert-system' on 2024-07-22

   ID    Z sym.   atoms
    1    6 C      1-9, 11-13, 15-17, 19-21, 23-40
    2    7 N      10, 14, 18, 22
    3   78 Pt     41
    4    1 H      42-87

          program call               : xtb data2507/gas/PtOEP/PtOEP_gas_S0_crest.xyz --gfn 2 --ohess vtight --parallel 40 --molden --ceasefiles --namespace data2507/gas/PtOEP/PtOEP_gas_S0_finalOpt
          :  Hamiltonian                  GFN2-xTB          :
 * total energy  :  -116.9224072 Eh     change       -0.1807351E-08 Eh
 * total energy  :  -116.9224081 Eh     change       -0.8797190E-06 Eh
 * total energy  :  -116.9224087 Eh     change       -0.6378316E-06 Eh
 * total energy  :  -116.9224098 Eh     change       -0.1063274E-05 Eh
 * total energy  :  -116.9224104 Eh     change       -0.6224393E-06 Eh
 * total energy  :  -116.9224107 Eh     change       -0.3212636E-06 Eh
 * total energy  :  -116.9224113 Eh     change       -0.6207237E-06 Eh
 * total energy  :  -116.9224118 Eh     change       -0.4095593E-06 Eh
 * total energy  :  -116.9224121 Eh     change       -0.3549091E-06 Eh
 * total energy  :  -116.9224127 Eh     change       -0.5419383E-06 Eh
 * total energy  :  -116.9224141 Eh     change       -0.2360922E-06 Eh
 * total energy  :  -116.9224144 Eh     change       -0.2304481E-06 Eh
 * total energy  :  -116.9224146 Eh     change       -0.2596113E-06 Eh
 * total energy  :  -116.9224149 Eh     change       -0.2727559E-06 Eh
 * total energy  :  -116.9224152 Eh     change       -0.3236502E-06 Eh
 * total energy  :  -116.9224155 Eh     change       -0.3167116E-06 Eh
 * total energy  :  -116.9224158 Eh     change       -0.2972851E-06 Eh
 * total energy  :  -116.9224161 Eh     change       -0.2968184E-06 Eh
 * total energy  :  -116.9224161 Eh     change       -0.1575472E-08 Eh
   *** GEOMETRY OPTIMIZATION CONVERGED AFTER 22 ITERATIONS ***

 final structure:
================
87
 xtb: 6.7.1 (edcfbbe)
C           -4.93315486157263       -3.52271188915897        1.32656348690435
C           -4.37577325510175       -3.52274313237310       -0.09878560692199
C           -2.95450946838001       -3.06325045491714       -0.12734060555134
C           -1.81295947814858       -3.84992625206430       -0.14665471865673
C           -1.73612410596467       -5.33821375199851       -0.25132183808109
C           -1.49622255153814       -5.78334759643333       -1.69583841330268
C           -0.71391387482068       -2.96290785416751       -0.13660852580812
C            0.64244837500485       -3.37042180842218       -0.12372759761357
C            1.73765710261054       -2.58081079759756       -0.17901539748219
N            1.70312384782737       -1.15576346756463       -0.41333380145089
C            3.03532917363650       -0.69928371001514       -0.09054340341200
C            3.37893296506904        0.59946755526907        0.05448777960194
C            2.51545410962950        1.72268722102190        0.05720100247502
N            1.15056084961492        1.67117059720050        0.06851461171741
C            0.71212814684233        2.96359907870042        0.13126886898291
C           -0.64435242153958        3.37080943487515        0.11673922482254
C           -1.73925662758784        2.58126270956702        0.17811981858904
N           -1.70377083126348        1.15709498976969        0.41801192950964
C           -3.03721029132428        0.69936841618710        0.10217491697800
C           -3.38081385027236       -0.59962357899341       -0.04080119469767
C           -2.51710939810460       -1.72258045946016       -0.05026772469811
N           -1.15224273948665       -1.67084856426220       -0.06561897007038
C           -3.87752135199928        1.85166214033500       -0.11073460091660
C           -5.34720298469064        1.76227711273932       -0.35820370793699
C           -6.10849397070474        1.50218910926818        0.94411040572144
C           -3.10753362381401        2.97109692930088       -0.05525201645639
C           -3.53219561772252        4.38265647137396       -0.29465063757159
C           -3.34487986189853        4.77262875794699       -1.76293163180499
C            1.81121006532838        3.85058727111253        0.13898008693265
C            1.73461666603150        5.33964503805951        0.23241316838542
C            1.49629085935182        5.79645172691397        1.67351664595950
C            2.95274283779345        3.06366051809896        0.12825786811969
C            4.37428330939749        3.52248532757815        0.10252877593450
C            4.93902428082960        3.50985363921442       -1.31984822017508
C            3.87442677869284       -1.85232977396648        0.12284571262940
C            5.34278530757825       -1.76388188512594        0.37844095700384
C            6.11123402680913       -1.49843699817390       -0.91857696285272
C            3.10486561059086       -2.97160973350152        0.05873285613004
C            3.52840864297404       -4.38414642536725        0.29430706798543
C            3.33516818904134       -4.77978320934406        1.76030281862610
Pt          -0.00084452720473        0.00002728044882        0.00204247799228
H           -5.96779340390778       -3.86027640176597        1.33517575993681
H           -4.88937422375513       -2.52208294882003        1.75135433251195
H           -4.34618383908927       -4.18507951347593        1.95912684910115
H           -4.43939047436688       -4.53189272027305       -0.50969802672649
H           -4.99159808054267       -2.87449966464447       -0.72800290864994
H           -0.93028455698250       -5.71748074029605        0.38282230178349
H           -2.66854797046254       -5.77593231286057        0.10975005211438
H           -2.30328545449961       -5.43258017206661       -2.33536962526642
H           -0.56252511404415       -5.36930672797391       -2.07052439224059
H           -1.44777227346259       -6.86868587481090       -1.76091843288388
H            0.80614088095359       -4.42995065215000       -0.00190329387225
H            1.53413624986253       -0.99214554752015       -1.41952288673138
H            4.41878078664438        0.81560678339950        0.24391784264516
H           -0.80841213325141        4.42973564590710       -0.00965610673601
H           -1.53111469635592        0.99771103894685        1.42427993588724
H           -4.42158779439325       -0.81600424606773       -0.22483620421895
H           -5.54969843792552        0.95455154305385       -1.06480230279617
H           -5.70300710677400        2.69138741214164       -0.80486890020848
H           -7.17649404937764        1.43038259799866        0.75192422358948
H           -5.93732688400372        2.31279761854317        1.64919913575806
H           -5.77496713431077        0.57458110605446        1.40295283545511
H           -2.94578534156386        5.05322488541742        0.33710740000056
H           -4.58182086104126        4.50059232233632       -0.01994235266894
H           -3.94735105969798        4.13196349013898       -2.40273701182804
H           -3.64448006348659        5.80588218875501       -1.92324695829504
H           -2.30366573742760        4.66064795625149       -2.05486836411018
H            2.66674217936845        5.77434005181379       -0.13312138853256
H            0.92820815285539        5.71395330553945       -0.40393012555166
H            0.56317666327238        5.38516272514283        2.05265127837669
H            2.30423837790855        5.45128592006132        2.31497346964826
H            1.44748828287317        6.88227718999815        1.72968500321655
H            4.98664938327810        2.87951170768721        0.74051134506002
H            4.43617662484315        4.53515864125391        0.50492488956701
H            4.89764486850022        2.50548164439166       -1.73594815906617
H            4.35522740352719        4.16642221705213       -1.96132241580459
H            5.97363830795809        3.84756471705654       -1.32608826473352
H            5.69618834492674       -2.69484511481401        0.82315635129936
H            5.54138157087074       -0.95907004791671        1.08946391317130
H            7.17812563352348       -1.42706403156335       -0.72013802423768
H            5.94425745502664       -2.30631282910606       -1.62778369264390
H            5.77999204665664       -0.56914765010053       -1.37565114047456
H            2.94440977535899       -5.05214337518842       -0.34238645537213
H            4.57909653449520       -4.50118602406721        0.02330436984756
H            3.93473950016769       -4.14133860083508        2.40503092683114
H            3.63446749730975       -5.81353667663499        1.91793863233449
H            2.29271255272766       -4.66925242946418        2.04832893147356

          :  Hamiltonian                  GFN2-xTB          :
         :: gradient norm              0.000026997269 Eh/a0 ::
         :: HOMO-LUMO gap              0.823059644972 eV    ::
         :: SCC energy              -118.734751332513 Eh    ::
         :: -> dispersion             -0.115275211684 Eh    ::
         :: repulsion energy           1.812335190481 Eh    ::

    * Orbital Energies and Occupations

         #    Occupation            Energy/Eh            Energy/eV
      -------------------------------------------------------------
         1        2.0000           -0.6733557             -18.3229
       ...           ...                  ...                  ...
        98        2.0000           -0.4040439             -10.9946
        99        2.0000           -0.4015122             -10.9257
       100        2.0000           -0.3923364             -10.6760
       101        2.0000           -0.3861824             -10.5086
       102        2.0000           -0.3722546             -10.1296
       103        2.0000           -0.3625259              -9.8648
       104        2.0000           -0.3613395              -9.8325
       105        2.0000           -0.3604156              -9.8074
       106        2.0000           -0.3563265              -9.6961
       107        2.0000           -0.3562496              -9.6940
       108        2.0000           -0.3470248              -9.4430
       109        2.0000           -0.3409633              -9.2781
       110        2.0000           -0.3046093              -8.2888 (HOMO)
       111        0.0000           -0.2743624              -7.4658 (LUMO)
       112                         -0.2376183              -6.4659
       113                         -0.2332400              -6.3468
       114                         -0.2083801              -5.6703
       115                         -0.1725489              -4.6953
       116                         -0.1556229              -4.2347
       117                         -0.1426641              -3.8821
       118                         -0.1130282              -3.0757
       119                         -0.0969046              -2.6369
       120                         -0.0916809              -2.4948
       121                         -0.0880195              -2.3951
       ...                                ...                  ...
       215                          1.2447816              33.8722
      -------------------------------------------------------------
                  HL-Gap            0.0302469 Eh            0.8231 eV

     #   Z          covCN         q      C6AA      α(0)
     1   6 C        3.753    -0.096    22.393     6.748
     2   6 C        3.802    -0.050    21.472     6.597
     3   6 C        3.076    -0.042    28.954     8.822
     4   6 C        3.075    -0.042    28.952     8.822
     5   6 C        3.802    -0.050    21.472     6.597
     6   6 C        3.753    -0.097    22.403     6.749
     7   6 C        3.135     0.035    27.012     8.507
     8   6 C        2.898    -0.061    29.509     8.907
     9   6 C        3.009     0.029    27.347     8.578
    10   7 N        3.518    -0.048    22.164     6.992
    11   6 C        3.009     0.029    27.338     8.577
    12   6 C        2.898    -0.061    29.519     8.908
    13   6 C        3.135     0.035    27.010     8.507
    14   7 N        2.728    -0.128    23.773     7.242
    15   6 C        3.135     0.035    27.012     8.507
    16   6 C        2.898    -0.061    29.509     8.907
    17   6 C        3.009     0.029    27.346     8.578
    18   7 N        3.518    -0.048    22.165     6.992
    19   6 C        3.009     0.029    27.339     8.577
    20   6 C        2.898    -0.061    29.518     8.908
    21   6 C        3.135     0.035    27.010     8.507
    22   7 N        2.728    -0.128    23.769     7.241
    23   6 C        3.030    -0.022    28.514     8.759
    24   6 C        3.803    -0.054    21.546     6.608
    25   6 C        3.753    -0.100    22.463     6.758
    26   6 C        3.030    -0.022    28.528     8.761
    27   6 C        3.803    -0.053    21.530     6.606
    28   6 C        3.753    -0.100    22.467     6.759
    29   6 C        3.075    -0.042    28.952     8.822
    30   6 C        3.802    -0.050    21.472     6.597
    31   6 C        3.753    -0.097    22.402     6.749
    32   6 C        3.076    -0.042    28.954     8.822
    33   6 C        3.802    -0.050    21.472     6.597
    34   6 C        3.753    -0.096    22.392     6.748
    35   6 C        3.030    -0.022    28.514     8.759
    36   6 C        3.803    -0.054    21.546     6.608
    37   6 C        3.753    -0.100    22.463     6.758
    38   6 C        3.030    -0.022    28.528     8.761
    39   6 C        3.803    -0.053    21.530     6.606
    40   6 C        3.753    -0.100    22.467     6.759
    41  78 Pt       3.382    -0.141   358.737    35.688
    42   1 H        0.925     0.027     2.635     2.538
    43   1 H        0.925     0.030     2.586     2.515
    44   1 H        0.925     0.032     2.558     2.501
    45   1 H        0.924     0.031     2.577     2.510
    46   1 H        0.924     0.024     2.671     2.556
    47   1 H        0.924     0.024     2.672     2.556
    48   1 H        0.924     0.031     2.578     2.511
    49   1 H        0.925     0.032     2.556     2.500
    50   1 H        0.925     0.031     2.575     2.510
    51   1 H        0.925     0.027     2.636     2.539
    52   1 H        0.926     0.048     2.341     2.393
    53   1 H        0.873     0.217     1.022     1.583
    54   1 H        0.926     0.048     2.342     2.393
    55   1 H        0.926     0.048     2.341     2.393
    56   1 H        0.873     0.217     1.022     1.583
    57   1 H        0.926     0.048     2.342     2.393
    58   1 H        0.924     0.039     2.467     2.456
    59   1 H        0.924     0.039     2.460     2.453
    60   1 H        0.925     0.035     2.517     2.481
    61   1 H        0.925     0.034     2.532     2.489
    62   1 H        0.925     0.037     2.485     2.465
    63   1 H        0.924     0.036     2.505     2.475
    64   1 H        0.924     0.038     2.477     2.461
    65   1 H        0.925     0.036     2.503     2.474
    66   1 H        0.925     0.034     2.526     2.485
    67   1 H        0.925     0.040     2.451     2.448
    68   1 H        0.924     0.031     2.578     2.511
    69   1 H        0.924     0.024     2.672     2.556
    70   1 H        0.925     0.031     2.576     2.510
    71   1 H        0.925     0.032     2.556     2.500
    72   1 H        0.925     0.027     2.636     2.539
    73   1 H        0.924     0.024     2.671     2.556
    74   1 H        0.924     0.031     2.576     2.510
    75   1 H        0.925     0.030     2.587     2.515
    76   1 H        0.925     0.032     2.559     2.501
    77   1 H        0.925     0.027     2.635     2.538
    78   1 H        0.924     0.039     2.460     2.453
    79   1 H        0.924     0.039     2.467     2.456
    80   1 H        0.925     0.035     2.517     2.481
    81   1 H        0.925     0.034     2.533     2.489
    82   1 H        0.925     0.037     2.485     2.465
    83   1 H        0.924     0.036     2.505     2.475
    84   1 H        0.924     0.038     2.477     2.461
    85   1 H        0.925     0.036     2.503     2.474
    86   1 H        0.925     0.034     2.526     2.485
    87   1 H        0.925     0.040     2.451     2.448

molecular dipole:
                 x           y           z       tot (Debye)
 q only:        0.000      -0.001       0.002
   full:        0.001       0.001       0.001       0.005

 projected vibrational frequencies (cm⁻¹)
eigval :       -0.00    -0.00    -0.00    -0.00     0.00     0.00
eigval :       14.57    22.54    35.03    39.28    40.63    49.32
eigval :       51.83    53.18    56.72    56.84    60.85    63.56
eigval :       68.00    69.00    81.35    82.49   107.93   112.31
eigval :      122.88   130.59   148.88   150.24   156.94   168.42
eigval :      181.47   184.64   190.53   190.73   193.30   194.75
eigval :      194.85   196.40   199.03   204.66   216.66   217.14
eigval :      224.24   233.82   235.38   244.24   264.64   277.50
eigval :      279.69   281.40   295.11   304.13   306.71   315.92
eigval :      322.40   323.13   340.10   344.22   355.07   413.97
eigval :      426.05   433.85   443.29   446.70   465.83   489.51
eigval :      505.53   506.13   516.56   519.77   536.38   579.14
eigval :      581.11   602.25   609.78   610.37   626.67   637.91
eigval :      646.17   652.29   661.57   662.41   663.95   670.13
eigval :      671.69   710.49   725.51   733.54   751.17   763.01
eigval :      766.72   811.54   812.24   812.72   813.78   817.12
eigval :      819.56   821.40   829.52   831.59   835.34   840.33
eigval :      843.87   923.29   928.91   930.24   932.06   949.07
eigval :      957.23   984.76   984.95   999.80   999.87  1013.32
eigval :     1016.21  1021.93  1023.56  1042.04  1042.11  1042.55
eigval :     1042.90  1076.99  1077.08  1078.06  1078.16  1078.76
eigval :     1078.81  1078.98  1079.32  1086.96  1087.27  1100.81
eigval :     1106.45  1114.54  1116.99  1133.68  1139.18  1148.27
eigval :     1156.88  1168.62  1177.81  1182.64  1183.15  1228.89
eigval :     1229.24  1235.89  1240.84  1241.32  1241.90  1245.28
eigval :     1245.39  1278.03  1278.70  1283.21  1292.30  1296.88
eigval :     1304.94  1307.97  1313.00  1315.89  1316.88  1317.26
eigval :     1318.04  1318.78  1325.03  1345.79  1352.03  1362.29
eigval :     1370.49  1383.64  1403.51  1406.47  1406.49  1407.47
eigval :     1407.61  1409.05  1409.09  1410.15  1410.19  1468.35
eigval :     1474.31  1479.36  1479.61  1480.22  1481.81  1494.76
eigval :     1496.46  1496.49  1497.04  1498.48  1498.51  1500.02
eigval :     1500.03  1500.16  1500.64  1500.69  1500.71  1505.71
eigval :     1505.76  1506.94  1507.50  1507.56  1508.11  1509.70
eigval :     1509.71  1511.43  1511.67  1554.07  1554.91  1566.39
eigval :     1590.49  1614.90  1623.83  1653.65  1656.26  2951.51
eigval :     2951.65  2952.11  2952.21  2970.19  2970.21  2970.53
eigval :     2970.58  2982.93  2983.03  2987.36  2987.62  2987.69
eigval :     2987.72  2998.08  2998.22  3020.93  3021.01  3021.11
eigval :     3021.52  3029.01  3029.09  3030.01  3030.06  3031.25
eigval :     3031.45  3032.31  3032.34  3034.64  3034.84  3036.47
eigval :     3036.52  3036.64  3036.68  3037.47  3037.49  3042.72
eigval :     3042.80  3045.59  3045.64  3047.89  3067.58  3098.04
eigval :     3098.29  3099.93  3100.18

   temp. (K)  partition function   enthalpy   heat capacity  entropy
                                   cal/mol     cal/K/mol   cal/K/mol   J/K/mol
 298.15  VIB  0.235E+20            25673.715    151.479    162.922
         ROT  0.505E+08              888.752      2.981     38.230
         INT  0.119E+28            26562.467    154.459    201.151
         TR   0.191E+29             1481.254      4.968     45.622
         TOT                       28043.7212   159.4276   246.7735  1032.5004

       T/K    H(0)-H(T)+PV         H(T)/Eh          T*S/Eh         G(T)/Eh
   ------------------------------------------------------------------------
    298.15    0.446905E-01    0.777931E+00    0.117250E+00    0.660681E+00
   ------------------------------------------------------------------------

         :::::::::::::::::::::::::::::::::::::::::::::::::::::
         ::                  THERMODYNAMIC                  ::
         :::::::::::::::::::::::::::::::::::::::::::::::::::::
         :: total free energy        -116.261735449663 Eh   ::
         ::.................................................::
         :: total energy             -116.922416142030 Eh   ::
         :: zero point energy           0.733240235778 Eh   ::
         :: G(RRHO) w/o ZPVE           -0.072559543411 Eh   ::
         :: G(RRHO) contrib.            0.660680692367 Eh   ::
         :::::::::::::::::::::::::::::::::::::::::::::::::::::

           -------------------------------------------------
          | TOTAL ENERGY             -116.922416142030 Eh   |
          | TOTAL ENTHALPY           -116.144485391798 Eh   |
          | TOTAL FREE ENERGY        -116.261735449663 Eh   |
          | GRADIENT NORM               0.000026981631 Eh/α |
          | HOMO-LUMO GAP               0.823059656888 eV   |
           -------------------------------------------------

 * finished run on 2025/07/18 at 04:43:53.445
