   * xtb version 6.7.1 (edcfbbe) compiled by 'albert@albert-system' on 2024-07-22

   ID    Z sym.   atoms
    1    6 C      1-9, 11-13, 15-17, 19-21, 23-40
    2    7 N      10, 14, 18, 22
    3   78 Pt     41
    4    1 H      42-87

          program call               : xtb data2507/gas/PtOEP/PtOEP_gas_S0_finalOpt.xtbopt.xyz --gfn 2 --spinpol --tblite --uhf 2 --ohess vtight --parallel 40 --molden --ceasefiles --namespace data2507/gas/PtOEP/PtOEP_gas_T1_preOpt
 * total energy  :  -116.8917699 Eh     change       -0.9027175E-08 Eh
 * total energy  :  -116.8986742 Eh     change       -0.6904339E-02 Eh
 * total energy  :  -116.9015207 Eh     change       -0.2846453E-02 Eh
 * total energy  :  -116.9017066 Eh     change       -0.1859982E-03 Eh
 * total energy  :  -116.9018550 Eh     change       -0.1483196E-03 Eh
 * total energy  :  -116.9018990 Eh     change       -0.4406069E-04 Eh
 * total energy  :  -116.9019384 Eh     change       -0.3938681E-04 Eh
 * total energy  :  -116.9019687 Eh     change       -0.3031113E-04 Eh
 * total energy  :  -116.9019998 Eh     change       -0.3104965E-04 Eh
 * total energy  :  -116.9020398 Eh     change       -0.4004380E-04 Eh
 * total energy  :  -116.9021635 Eh     change       -0.4809210E-06 Eh
 * total energy  :  -116.9021639 Eh     change       -0.4343178E-06 Eh
 * total energy  :  -116.9021639 Eh     change       -0.1546789E-07 Eh
 * total energy  :  -116.9021642 Eh     change       -0.2698597E-06 Eh
 * total energy  :  -116.9021644 Eh     change       -0.2381860E-06 Eh
 * total energy  :  -116.9021644 Eh     change        0.9133416E-08 Eh
 * total energy  :  -116.9021645 Eh     change       -0.1163215E-06 Eh
 * total energy  :  -116.9021645 Eh     change        0.6818553E-08 Eh
 * total energy  :  -116.9021646 Eh     change       -0.7617440E-07 Eh
   *** GEOMETRY OPTIMIZATION CONVERGED AFTER 33 ITERATIONS ***

 final structure:
================
87
 xtb: 6.7.1 (edcfbbe)
C           -4.88391700784883       -3.57609970391169        1.40457199173094
C           -4.36663840330164       -3.55982188757316       -0.03579304800548
C           -2.94724894603546       -3.10041322831856       -0.09593987063048
C           -1.81740841909016       -3.86937489003958       -0.18083367976237
C           -1.72713183901789       -5.35349613852690       -0.31713580135344
C           -1.51654009430179       -5.76434244430498       -1.77637068212349
C           -0.70039809536705       -2.96987215433871       -0.17925855385732
C            0.62814306105751       -3.38065363601147       -0.21171625783946
C            1.75082758900017       -2.57345989263705       -0.18930902261810
N            1.70505373849164       -1.14839030409942       -0.38379957238733
C            3.03980692893198       -0.68928803739149       -0.10247435141019
C            3.38358165925158        0.64901153667428       -0.03868383880977
C            2.51563517536771        1.73517851137941        0.01104062575975
N            1.14796867420003        1.68029302981691        0.06662581883140
C            0.69933545831623        2.96998844481044        0.17825870252044
C           -0.62924427885444        3.38070492823798        0.21069759334663
C           -1.75190178704892        2.57346525154526        0.19086963053978
N           -1.70572968921384        1.14850256231997        0.38629972363520
C           -3.04093270071043        0.68913989710459        0.10746384029583
C           -3.38452552640808       -0.64920438927567        0.04346948424837
C           -2.51655596784565       -1.73526150943609       -0.00873600369304
N           -1.14891447323169       -1.68032355677547       -0.06513750035307
C           -3.86465260602912        1.80254146434278       -0.12768210409878
C           -5.33100569991637        1.73460749579064       -0.40265159650098
C           -6.13060348480672        1.63169888706726        0.89906684524416
C           -3.08016120854960        2.95428252503754       -0.06322917062315
C           -3.52813117263977        4.35454865719253       -0.32479924779341
C           -3.29857472230915        4.74281614674420       -1.78767439897187
C            1.81627359388467        3.86958106683201        0.17845666184708
C            1.72584271156100        5.35402085980442        0.31125299585346
C            1.51527018988270        5.76842704943772        1.76948168845870
C            2.94620477718463        3.10050324973132        0.09590336540786
C            4.36562100430285        3.55978566037325        0.03580981996958
C            4.88425037155862        3.57235095572759       -1.40410355344837
C            3.86292288711635       -1.80281817055493        0.13404210595576
C            5.32861224045570       -1.73513766819638        0.41260223527218
C            6.13153925334318       -1.63284142580508       -0.88710874247172
C            3.07852076497160       -2.95449857758248        0.06725438147607
C            3.52578497842438       -4.35497064392770        0.32894927680892
C            3.29191605920843       -4.74454763448537        1.79079193360393
Pt          -0.00050173946429        0.00000164147378        0.00069318534025
H           -5.91881950115635       -3.91080470038932        1.43607316769549
H           -4.82557750260310       -2.58147059361165        1.84083825160385
H           -4.28234164996382       -4.24893029477136        2.01186760517250
H           -4.44202783723847       -4.56385657759155       -0.45692454689066
H           -4.99660840173305       -2.90243273839198       -0.64025832415702
H           -0.90182760984134       -5.73395654304250        0.28989776610989
H           -2.64576492806933       -5.80932766089342        0.05644398158946
H           -2.34525471170548       -5.41438031314437       -2.38804578638284
H           -0.59933508907886       -5.32812601831055       -2.16560547507907
H           -1.45279500193008       -6.84709075332354       -1.86391898815371
H            0.80467214722789       -4.44376833495683       -0.17600466196916
H            1.49735922941131       -0.96032496635590       -1.38001661859595
H            4.43451231282260        0.86847353831362        0.05790384942327
H           -0.80586498402802        4.44375078368233        0.17348281550696
H           -1.49663167068519        0.96121461533629        1.38239411534235
H           -4.43555517842560       -0.86873745682655       -0.05173435586469
H           -5.54619591964701        0.86670284831553       -1.02927463144751
H           -5.64510809287163        2.62499960754700       -0.94890007554946
H           -7.19664544226864        1.58286216279480        0.68878618323120
H           -5.94074719774592        2.49807506594021        1.52900286271433
H           -5.84405319683152        0.73961269144245        1.45112384959780
H           -2.97785389979195        5.04231696213234        0.32136325113667
H           -4.58858208538444        4.45119140189793       -0.08594883874491
H           -3.85731874999881        4.08150790056764       -2.44594665597164
H           -3.62123356125275        5.76622382489453       -1.96617579811240
H           -2.24380472545510        4.65886441998887       -2.03781931536000
H            2.64442260108829        5.80902542307543       -0.06347421752530
H            0.90048843484695        5.73293201015514       -0.29668460494643
H            0.59812966673895        5.33307706633059        2.15984382299041
H            2.34405215798128        5.42007026620603        2.38197969008693
H            1.45140707514525        6.85138280501051        1.85435556004401
H            4.99502394393185        2.90394440154824        0.64255197620448
H            4.44061797201852        4.56490859288681        0.45441143438638
H            4.82633506833843        2.57660225888083       -1.83786046962598
H            4.28326069574466        4.24361233896100       -2.01371220598858
H            5.91918312643381        3.90698138424122       -1.43547082345394
H            5.64112368649939       -2.62543304067795        0.95993962878670
H            5.54241696223968       -0.86707864269071        1.03948551735570
H            7.19705354435860       -1.58421903149042       -0.67411038033815
H            5.94307260389404       -2.49935898857168       -1.51726705123918
H            5.84664892027319       -0.74084744691261       -1.44017423449610
H            2.97742181334387       -5.04218540943178       -0.31943651790933
H            4.58693511059354       -4.45139137145589        0.09315220865577
H            3.84874297822384       -4.08385868328065        2.45130527115483
H            3.61401700579873       -5.76812917278178        1.96931579208886
H            2.23641471307879       -4.66078867776859        2.03789856340176

 projected vibrational frequencies (cm⁻¹)
eigval :       -0.00    -0.00    -0.00     0.00     0.00     0.00
eigval :       14.63    21.68    34.42    39.41    40.86    48.82
eigval :       50.78    53.91    54.72    59.57    60.13    61.90
eigval :       64.30    65.13    78.82    80.92   108.52   111.84
eigval :      117.66   129.45   148.49   149.12   159.39   171.07
eigval :      179.74   187.50   190.52   191.53   193.35   195.19
eigval :      195.91   197.12   199.87   206.09   213.44   214.67
eigval :      219.16   234.55   236.21   248.11   261.73   273.03
eigval :      275.59   281.38   300.33   303.67   304.90   308.68
eigval :      311.39   318.44   336.55   340.65   353.33   412.00
eigval :      427.52   434.03   435.49   442.33   464.85   488.93
eigval :      500.42   504.58   513.03   516.29   529.69   561.46
eigval :      573.92   598.11   598.80   601.48   630.33   637.36
eigval :      646.23   652.76   655.40   656.15   665.67   672.97
eigval :      677.69   708.74   717.39   734.55   747.05   763.29
eigval :      770.56   778.47   782.83   783.95   786.90   812.10
eigval :      812.45   814.21   816.77   817.31   833.49   835.70
eigval :      841.79   877.79   883.73   922.80   928.45   940.67
eigval :      961.04   987.98   988.13   999.05  1000.99  1009.61
eigval :     1011.48  1022.85  1024.03  1031.87  1035.66  1042.57
eigval :     1044.07  1075.62  1075.69  1077.19  1077.28  1077.46
eigval :     1077.50  1078.59  1079.00  1099.99  1100.80  1105.42
eigval :     1109.75  1114.94  1120.72  1126.39  1128.19  1136.19
eigval :     1146.43  1148.05  1164.49  1168.82  1171.73  1228.00
eigval :     1231.21  1231.63  1239.31  1242.69  1242.76  1243.51
eigval :     1243.55  1267.66  1281.41  1285.81  1290.74  1302.91
eigval :     1309.37  1312.01  1314.06  1315.14  1316.58  1317.45
eigval :     1317.90  1318.73  1325.02  1349.03  1357.95  1380.96
eigval :     1383.29  1397.28  1397.58  1402.98  1405.20  1405.97
eigval :     1406.20  1408.24  1408.78  1408.90  1409.73  1409.94
eigval :     1477.59  1477.77  1478.82  1481.03  1481.65  1484.37
eigval :     1488.12  1493.82  1496.31  1496.47  1497.77  1498.07
eigval :     1498.22  1498.82  1498.92  1499.58  1499.76  1499.85
eigval :     1502.29  1503.84  1504.83  1506.30  1507.09  1507.69
eigval :     1508.64  1509.02  1509.58  1509.59  1512.25  1513.06
eigval :     1556.79  1561.13  1562.02  1611.40  1615.19  2957.48
eigval :     2957.56  2958.15  2958.19  2965.40  2965.61  2972.54
eigval :     2972.60  2984.30  2984.36  2987.13  2987.26  2988.80
eigval :     2989.16  2993.88  2994.20  3024.34  3024.37  3024.45
eigval :     3024.70  3028.86  3029.12  3030.35  3030.48  3031.36
eigval :     3031.41  3032.06  3032.12  3032.52  3032.70  3033.08
eigval :     3035.94  3035.95  3038.28  3038.30  3038.46  3038.52
eigval :     3040.05  3040.06  3043.84  3043.86  3051.49  3104.40
eigval :     3104.71  3108.81  3109.18

   temp. (K)  partition function   enthalpy   heat capacity  entropy
                                   cal/mol     cal/K/mol   cal/K/mol   J/K/mol
 298.15  VIB  0.335E+20            25814.900    152.181    163.839
         ROT  0.506E+08              888.752      2.981     38.233
         INT  0.170E+28            26703.652    155.162    202.072
         TR   0.191E+29             1481.254      4.968     45.622
         TOT                       28184.9059   160.1304   247.6937  1036.3503

       T/K    H(0)-H(T)+PV         H(T)/Eh          T*S/Eh         G(T)/Eh
   ------------------------------------------------------------------------
    298.15    0.449155E-01    0.776011E+00    0.117687E+00    0.658323E+00
   ------------------------------------------------------------------------

         :::::::::::::::::::::::::::::::::::::::::::::::::::::
         ::                  THERMODYNAMIC                  ::
         :::::::::::::::::::::::::::::::::::::::::::::::::::::
         :: total free energy        -116.243841125452 Eh   ::
         ::.................................................::
         :: total energy             -116.902164611610 Eh   ::
         :: zero point energy           0.731095237277 Eh   ::
         :: G(RRHO) w/o ZPVE           -0.072771751119 Eh   ::
         :: G(RRHO) contrib.            0.658323486158 Eh   ::
         :::::::::::::::::::::::::::::::::::::::::::::::::::::

           -------------------------------------------------
          | TOTAL ENERGY             -116.902164611610 Eh   |
          | TOTAL ENTHALPY           -116.126153867803 Eh   |
          | TOTAL FREE ENERGY        -116.243841125452 Eh   |
          | GRADIENT NORM               0.000133614475 Eh/α |
           -------------------------------------------------

 * finished run on 2025/07/18 at 04:44:01.766
