   * xtb version 6.7.1 (edcfbbe) compiled by 'albert@albert-system' on 2024-07-22

   ID    Z sym.   atoms
    1    6 C      1-9, 11-13, 15-17, 19-21, 23-40
    2    7 N      10, 14, 18, 22
    3   78 Pt     41
    4    1 H      42-87

          program call               : xtb data2507/gas/PtOEP/PtOEP.xyz --gfn 2 --ohess vtight --parallel 40 --molden --ceasefiles --namespace data2507/gas/PtOEP/PtOEP_gas_S0_preOpt
          :  Hamiltonian                  GFN2-xTB          :
 * total energy  :  -116.4398326 Eh     change       -0.1444334E-08 Eh
 * total energy  :  -116.7281767 Eh     change       -0.2883441E+00 Eh
 * total energy  :  -116.7802454 Eh     change       -0.5206876E-01 Eh
 * total energy  :  -116.8069347 Eh     change       -0.2668923E-01 Eh
 * total energy  :  -116.8212056 Eh     change       -0.1427089E-01 Eh
 * total energy  :  -116.8319263 Eh     change       -0.1072076E-01 Eh
 * total energy  :  -116.8419512 Eh     change       -0.1002488E-01 Eh
 * total energy  :  -116.8500761 Eh     change       -0.8124943E-02 Eh
 * total energy  :  -116.8556136 Eh     change       -0.5537447E-02 Eh
 * total energy  :  -116.8588515 Eh     change       -0.3237943E-02 Eh
 * total energy  :  -116.9219817 Eh     change       -0.5228003E-06 Eh
 * total energy  :  -116.9219822 Eh     change       -0.5100573E-06 Eh
 * total energy  :  -116.9219827 Eh     change       -0.4886566E-06 Eh
 * total energy  :  -116.9219832 Eh     change       -0.4841129E-06 Eh
 * total energy  :  -116.9219836 Eh     change       -0.4734573E-06 Eh
 * total energy  :  -116.9219841 Eh     change       -0.4718090E-06 Eh
 * total energy  :  -116.9219846 Eh     change       -0.4681643E-06 Eh
 * total energy  :  -116.9219850 Eh     change       -0.4769552E-06 Eh
 * total energy  :  -116.9219850 Eh     change       -0.5362011E-08 Eh
   *** GEOMETRY OPTIMIZATION CONVERGED AFTER 260 ITERATIONS ***

 final structure:
================
87
 xtb: 6.7.1 (edcfbbe)
C           -2.72782059640365        5.51999517369097        1.53418258733219
C           -2.72749725612267        4.93909653693572        0.11829198181794
C           -2.51045828415313        3.46106405706746        0.13601902234187
C           -3.47586612569708        2.46671886122782        0.09363440540098
C           -4.94942596730626        2.63491733600800       -0.08565006516500
C           -5.36221056428773        2.41354091105910       -1.54268386917552
C           -2.78776352353057        1.23551586657788        0.16269455232207
C           -3.41835779694938       -0.03292946736461        0.18936266231999
C           -2.82136667849490       -1.24504185785822        0.17065878399324
N           -1.40662339343193       -1.44855076996308       -0.03594588783538
C           -1.18419679452429       -2.83736431276800        0.29119767469146
C            0.03760116502307       -3.39357721804600        0.44601571393983
C            1.28758926054457       -2.72725607743459        0.47581962091671
N            1.46028375996313       -1.37340067408563        0.53032343333608
C            2.80464760021073       -1.15624260427817        0.64050071758418
C            3.43055744291929        0.11422377567211        0.67734384714236
C            2.83178052340940        1.32532245108996        0.71422461602203
N            1.41144916110013        1.52611264400950        0.88276781064639
C            1.19717195065125        2.91698471826243        0.55782274131896
C           -0.01836292925236        3.47221843312992        0.35695129230946
C           -1.26726894676881        2.80751660813890        0.28576676522515
N           -1.44469668122816        1.45289776443113        0.28580123065047
C            2.48172216850954        3.55685350206004        0.41594534009537
C            2.64105512942583        5.01383212060080        0.13228456343144
C            2.45697630748523        5.32233313793758       -1.35550166407401
C            3.45440564115820        2.60999312848782        0.51056923472097
C            4.92836313607437        2.78678213505191        0.35274379121816
C            5.38462508070050        2.47194675391374       -1.07388036245571
C            3.49883119088048       -2.38674872847080        0.63922661320292
C            4.98119408300080       -2.55562092585453        0.72013905838284
C            5.62910033660285       -2.47391417739195       -0.66418179769763
C            2.53684706302221       -3.38174266451023        0.55438780092881
C            2.74940455333866       -4.85767205936928        0.47130494112289
C            2.59023814349738       -5.36828506040781       -0.96264659077792
C           -2.46413568667282       -3.47281941759659        0.48763916032350
C           -2.61754767559484       -4.93629894014000        0.73723186087206
C           -2.49197691222441       -5.73253012701769       -0.56391382040470
C           -3.43758673706968       -2.52590500526984        0.41643837951672
C           -4.91144909701526       -2.70521014198439        0.56859904614264
C           -5.60957461773356       -2.70026762103376       -0.79352432949668
Pt           0.00584923390499        0.03843486212979        0.41748665082445
H           -3.51683790779765        5.06261565071982        2.12715190852040
H           -2.89136800578303        6.59570213180193        1.50843181834154
H           -1.77729121313205        5.32325240464625        2.02549172652668
H           -3.68321589475866        5.15934914165122       -0.36087732836924
H           -1.94659464526380        5.42546555791292       -0.47237415051831
H           -5.48726246635269        1.92953170493155        0.55362610481683
H           -5.24033146820385        3.64093178049090        0.22169186817272
H           -5.09216218339548        1.41030217549393       -1.86549862776823
H           -6.43645912375588        2.54095229104234       -1.66201365049177
H           -4.85385164933857        3.12565197133865       -2.18913261741139
H           -4.49205724528959       -0.01297204686758        0.29259037753402
H           -1.19620517706027       -1.30792812463758       -1.03766915984862
H            0.07651453323650       -4.45583719760374        0.63048185174341
H            4.50693716613744        0.10182826962395        0.61029046110536
H            1.17820788877489        1.38342941699316        1.87949327176148
H           -0.05010693371145        4.53622684902485        0.18144240073192
H            3.63483888792122        5.34014408187061        0.44465115449379
H            1.90617537692881        5.57848830008545        0.71108901627833
H            2.54696264865283        6.39145452486837       -1.53437249914029
H            1.47881777604202        4.99124588739614       -1.69506107967268
H            3.21212435982963        4.80839029448047       -1.94482013070964
H            5.44946901087471        2.12799593398127        1.05150588889393
H            5.20111172383639        3.81535842906471        0.59620514757502
H            6.46412313515187        2.57530447519442       -1.15784472163968
H            5.10783322429721        1.45686485894735       -1.34696477423556
H            4.91583168278923        3.15238699982734       -1.78021747363818
H            5.40983904586704       -1.78696585758081        1.36790217157460
H            5.21489695183989       -3.52508767208842        1.16562076257281
H            5.40425307250739       -1.51935475582851       -1.13512224052441
H            6.70968482002145       -2.57990901775466       -0.58943553304043
H            5.24757053514799       -3.26513637936229       -1.30512460555868
H            2.03637933259917       -5.37594993360397        1.11905210788855
H            3.75259265816207       -5.10073545183688        0.82623580911076
H            2.75146266772118       -6.44368833213542       -1.00735445315692
H            1.59231381021747       -5.14937193196676       -1.33644753497681
H            3.31010678755421       -4.88282504808369       -1.61768038238626
H           -3.59187818728553       -5.13528390651412        1.18589866402402
H           -1.85192765403442       -5.26888714479809        1.44142809321231
H           -3.26736318398914       -5.43385056776277       -1.26576874767965
H           -1.52448438549161       -5.55576962914594       -1.02773616664380
H           -2.59442708530160       -6.79743715855307       -0.36866923378310
H           -5.11942373555051       -3.64946046481994        1.07393172435754
H           -5.31550667481097       -1.90033267605336        1.18631646478610
H           -6.68333608937223       -2.82060342970916       -0.67021853404916
H           -5.23920640791035       -3.51579125827740       -1.41059733153793
H           -5.42225444550612       -1.76462207310019       -1.31497433027499

          :  Hamiltonian                  GFN2-xTB          :
         :: gradient norm              0.000054221558 Eh/a0 ::
         :: HOMO-LUMO gap              0.821569504490 eV    ::
         :: SCC energy              -118.733894470619 Eh    ::
         :: -> dispersion             -0.116022085850 Eh    ::
         :: repulsion energy           1.811909422962 Eh    ::

    * Orbital Energies and Occupations

         #    Occupation            Energy/Eh            Energy/eV
      -------------------------------------------------------------
         1        2.0000           -0.6735309             -18.3277
       ...           ...                  ...                  ...
        98        2.0000           -0.4044212             -11.0049
        99        2.0000           -0.4018979             -10.9362
       100        2.0000           -0.3927862             -10.6883
       101        2.0000           -0.3864083             -10.5147
       102        2.0000           -0.3724296             -10.1343
       103        2.0000           -0.3627612              -9.8712
       104        2.0000           -0.3615621              -9.8386
       105        2.0000           -0.3606606              -9.8141
       106        2.0000           -0.3566947              -9.7062
       107        2.0000           -0.3564876              -9.7005
       108        2.0000           -0.3469959              -9.4422
       109        2.0000           -0.3412025              -9.2846
       110        2.0000           -0.3046928              -8.2911 (HOMO)
       111        0.0000           -0.2745007              -7.4695 (LUMO)
       112                         -0.2377123              -6.4685
       113                         -0.2333792              -6.3506
       114                         -0.2085091              -5.6738
       115                         -0.1725669              -4.6958
       116                         -0.1556312              -4.2349
       117                         -0.1426368              -3.8813
       118                         -0.1133322              -3.0839
       119                         -0.0970167              -2.6400
       120                         -0.0917688              -2.4972
       121                         -0.0882311              -2.4009
       ...                                ...                  ...
       215                          1.2478325              33.9553
      -------------------------------------------------------------
                  HL-Gap            0.0301921 Eh            0.8216 eV

     #   Z          covCN         q      C6AA      α(0)
     1   6 C        3.753    -0.097    22.402     6.749
     2   6 C        3.802    -0.050    21.472     6.597
     3   6 C        3.075    -0.042    28.954     8.822
     4   6 C        3.076    -0.042    28.953     8.822
     5   6 C        3.802    -0.050    21.472     6.597
     6   6 C        3.753    -0.096    22.393     6.748
     7   6 C        3.134     0.034    27.016     8.508
     8   6 C        2.898    -0.061    29.518     8.908
     9   6 C        3.009     0.029    27.341     8.577
    10   7 N        3.518    -0.048    22.155     6.991
    11   6 C        3.009     0.029    27.343     8.578
    12   6 C        2.898    -0.061    29.518     8.908
    13   6 C        3.135     0.035    27.011     8.507
    14   7 N        2.728    -0.127    23.761     7.240
    15   6 C        3.134     0.034    27.020     8.509
    16   6 C        2.898    -0.061    29.528     8.910
    17   6 C        3.009     0.028    27.351     8.579
    18   7 N        3.519    -0.048    22.163     6.992
    19   6 C        3.009     0.029    27.345     8.578
    20   6 C        2.898    -0.061    29.518     8.908
    21   6 C        3.134     0.035    27.012     8.507
    22   7 N        2.728    -0.128    23.776     7.242
    23   6 C        3.029    -0.022    28.531     8.762
    24   6 C        3.803    -0.052    21.511     6.603
    25   6 C        3.753    -0.098    22.437     6.755
    26   6 C        3.029    -0.022    28.529     8.761
    27   6 C        3.803    -0.052    21.511     6.603
    28   6 C        3.753    -0.098    22.425     6.753
    29   6 C        3.075    -0.042    28.953     8.822
    30   6 C        3.802    -0.049    21.459     6.595
    31   6 C        3.753    -0.094    22.362     6.743
    32   6 C        3.075    -0.042    28.951     8.822
    33   6 C        3.802    -0.049    21.456     6.595
    34   6 C        3.753    -0.094    22.363     6.743
    35   6 C        3.029    -0.021    28.512     8.758
    36   6 C        3.803    -0.053    21.531     6.606
    37   6 C        3.753    -0.098    22.434     6.754
    38   6 C        3.029    -0.021    28.512     8.759
    39   6 C        3.803    -0.053    21.530     6.606
    40   6 C        3.753    -0.098    22.436     6.754
    41  78 Pt       3.384    -0.141   358.746    35.689
    42   1 H        0.925     0.032     2.556     2.500
    43   1 H        0.925     0.027     2.635     2.539
    44   1 H        0.925     0.031     2.576     2.510
    45   1 H        0.924     0.031     2.578     2.511
    46   1 H        0.924     0.024     2.671     2.556
    47   1 H        0.924     0.024     2.671     2.556
    48   1 H        0.924     0.031     2.576     2.510
    49   1 H        0.925     0.030     2.587     2.515
    50   1 H        0.925     0.027     2.634     2.538
    51   1 H        0.925     0.032     2.558     2.501
    52   1 H        0.926     0.048     2.343     2.393
    53   1 H        0.872     0.217     1.021     1.582
    54   1 H        0.926     0.048     2.339     2.392
    55   1 H        0.926     0.049     2.328     2.386
    56   1 H        0.874     0.217     1.020     1.581
    57   1 H        0.926     0.049     2.337     2.390
    58   1 H        0.924     0.037     2.493     2.469
    59   1 H        0.924     0.035     2.515     2.480
    60   1 H        0.925     0.034     2.534     2.489
    61   1 H        0.925     0.040     2.453     2.449
    62   1 H        0.925     0.036     2.508     2.476
    63   1 H        0.924     0.035     2.515     2.480
    64   1 H        0.924     0.037     2.493     2.469
    65   1 H        0.925     0.034     2.532     2.489
    66   1 H        0.925     0.039     2.462     2.454
    67   1 H        0.925     0.036     2.509     2.477
    68   1 H        0.924     0.024     2.674     2.557
    69   1 H        0.924     0.028     2.615     2.529
    70   1 H        0.925     0.030     2.580     2.512
    71   1 H        0.925     0.026     2.644     2.543
    72   1 H        0.925     0.033     2.550     2.497
    73   1 H        0.924     0.023     2.682     2.561
    74   1 H        0.924     0.030     2.587     2.515
    75   1 H        0.925     0.026     2.640     2.541
    76   1 H        0.925     0.030     2.589     2.516
    77   1 H        0.925     0.031     2.567     2.506
    78   1 H        0.924     0.037     2.485     2.465
    79   1 H        0.924     0.038     2.471     2.458
    80   1 H        0.925     0.034     2.528     2.486
    81   1 H        0.925     0.037     2.492     2.468
    82   1 H        0.925     0.035     2.518     2.481
    83   1 H        0.924     0.037     2.485     2.465
    84   1 H        0.924     0.038     2.472     2.459
    85   1 H        0.925     0.035     2.518     2.481
    86   1 H        0.925     0.034     2.528     2.486
    87   1 H        0.925     0.037     2.490     2.467

molecular dipole:
                 x           y           z       tot (Debye)
 q only:       -0.025      -0.016      -0.061
   full:       -0.030      -0.021      -0.098       0.266

 projected vibrational frequencies (cm⁻¹)
eigval :       -0.00    -0.00    -0.00     0.00     0.00     0.00
eigval :       14.93    22.06    35.41    37.85    40.89    50.04
eigval :       51.20    52.40    56.20    58.10    63.47    66.99
eigval :       74.16    79.96    84.66    98.71   113.19   114.49
eigval :      120.98   133.05   148.05   151.24   155.33   162.41
eigval :      175.55   181.54   182.77   185.14   189.24   191.02
eigval :      192.60   195.65   196.03   205.10   208.41   217.31
eigval :      224.34   232.77   238.95   242.89   267.12   274.45
eigval :      284.54   284.83   287.29   302.78   305.37   316.58
eigval :      321.82   326.14   337.23   342.74   350.68   413.27
eigval :      432.12   437.72   450.08   466.46   481.61   485.52
eigval :      497.54   505.45   509.23   514.58   524.64   575.04
eigval :      584.64   586.01   598.32   605.04   637.65   647.54
eigval :      653.22   657.06   659.11   662.29   664.48   668.60
eigval :      676.20   709.50   725.36   731.54   749.75   763.40
eigval :      766.13   811.38   812.39   812.76   814.02   816.80
eigval :      821.42   824.55   826.35   831.36   836.08   837.95
eigval :      842.13   923.55   928.97   930.17   931.43   948.91
eigval :      956.62   985.99   987.13   998.34   998.93  1014.21
eigval :     1017.83  1020.74  1023.47  1042.49  1043.19  1043.73
eigval :     1046.22  1076.81  1077.36  1077.50  1077.88  1078.24
eigval :     1078.63  1078.83  1079.47  1086.21  1087.44  1100.82
eigval :     1106.51  1114.31  1116.69  1132.83  1139.05  1147.36
eigval :     1156.81  1168.83  1177.49  1182.27  1182.74  1230.09
eigval :     1231.71  1236.06  1238.96  1242.27  1243.42  1244.27
eigval :     1245.49  1278.44  1279.11  1283.75  1291.92  1297.47
eigval :     1304.23  1305.54  1310.24  1317.14  1317.47  1319.78
eigval :     1321.21  1321.87  1324.51  1344.72  1351.21  1362.24
eigval :     1370.08  1382.76  1402.27  1403.98  1405.01  1405.72
eigval :     1406.99  1408.92  1409.77  1410.47  1411.45  1467.59
eigval :     1473.53  1476.22  1477.59  1480.00  1481.42  1492.42
eigval :     1493.14  1493.73  1494.56  1496.68  1497.14  1497.59
eigval :     1498.84  1499.73  1500.22  1500.83  1501.25  1502.04
eigval :     1502.81  1503.72  1506.25  1506.84  1507.89  1509.21
eigval :     1509.76  1510.92  1511.55  1554.01  1554.86  1566.09
eigval :     1590.24  1614.26  1623.23  1652.40  1655.64  2945.26
eigval :     2951.03  2952.60  2957.55  2964.27  2964.99  2970.15
eigval :     2970.62  2976.13  2982.09  2982.89  2983.36  2983.84
eigval :     2987.73  2989.27  2991.83  3020.99  3021.05  3021.31
eigval :     3021.91  3029.01  3029.26  3030.06  3031.06  3031.21
eigval :     3031.92  3032.61  3033.80  3034.65  3036.19  3036.43
eigval :     3036.77  3037.43  3039.77  3040.19  3041.74  3041.87
eigval :     3042.21  3046.50  3046.93  3047.64  3067.07  3099.34
eigval :     3099.78  3100.29  3105.26

   temp. (K)  partition function   enthalpy   heat capacity  entropy
                                   cal/mol     cal/K/mol   cal/K/mol   J/K/mol
 298.15  VIB  0.170E+20            25661.164    151.786    162.538
         ROT  0.502E+08              888.752      2.981     38.220
         INT  0.853E+27            26549.916    154.767    200.757
         TR   0.191E+29             1481.254      4.968     45.622
         TOT                       28031.1704   159.7353   246.3796  1030.8522

       T/K    H(0)-H(T)+PV         H(T)/Eh          T*S/Eh         G(T)/Eh
   ------------------------------------------------------------------------
    298.15    0.446705E-01    0.777766E+00    0.117063E+00    0.660703E+00
   ------------------------------------------------------------------------

         :::::::::::::::::::::::::::::::::::::::::::::::::::::
         ::                  THERMODYNAMIC                  ::
         :::::::::::::::::::::::::::::::::::::::::::::::::::::
         :: total free energy        -116.261282351675 Eh   ::
         ::.................................................::
         :: total energy             -116.921985047656 Eh   ::
         :: zero point energy           0.733095081238 Eh   ::
         :: G(RRHO) w/o ZPVE           -0.072392385257 Eh   ::
         :: G(RRHO) contrib.            0.660702695982 Eh   ::
         :::::::::::::::::::::::::::::::::::::::::::::::::::::

           -------------------------------------------------
          | TOTAL ENERGY             -116.921985047656 Eh   |
          | TOTAL ENTHALPY           -116.144219453056 Eh   |
          | TOTAL FREE ENERGY        -116.261282351675 Eh   |
          | GRADIENT NORM               0.000054227067 Eh/α |
          | HOMO-LUMO GAP               0.821569437275 eV   |
           -------------------------------------------------

 * finished run on 2025/07/18 at 04:02:51.901
