   * xtb version 6.7.1 (edcfbbe) compiled by 'albert@albert-system' on 2024-07-22

   ID    Z sym.   atoms
    1    6 C      1-9, 11-15, 17-21, 23-39, 41-45, 47-63, 65-72
    2    7 N      10, 16, 22, 40, 46, 64
    3    1 H      73-126

          program call               : xtb data2507/toluene/BmPyPhB/BmPyPhB_toluene_T1_crest.xyz --gfn 2 --uhf 2 --gbsa toluene --ohess vtight --parallel 40 --molden --ceasefiles --namespace data2507/toluene/BmPyPhB/BmPyPhB_toluene_T1_finalOpt
      * Solvation model:               GBSA
        Solvent                        toluene
        Solvent mass                       9.2140E+01 g/mol
          :  Hamiltonian                  GFN2-xTB          :
 * total energy  :  -186.5481342 Eh     change        0.3881865E-08 Eh
 * total energy  :  -186.5483164 Eh     change       -0.1822107E-03 Eh
 * total energy  :  -186.5483727 Eh     change       -0.5636774E-04 Eh
 * total energy  :  -186.5483788 Eh     change       -0.6031488E-05 Eh
 * total energy  :  -186.5483864 Eh     change       -0.7673313E-05 Eh
 * total energy  :  -186.5483924 Eh     change       -0.5995579E-05 Eh
 * total energy  :  -186.5483966 Eh     change       -0.4126335E-05 Eh
 * total energy  :  -186.5484004 Eh     change       -0.3871776E-05 Eh
 * total energy  :  -186.5484060 Eh     change       -0.5568324E-05 Eh
 * total energy  :  -186.5484131 Eh     change       -0.7060884E-05 Eh
 * total energy  :  -186.5485179 Eh     change       -0.4409247E-06 Eh
 * total energy  :  -186.5485183 Eh     change       -0.4908346E-06 Eh
 * total energy  :  -186.5485189 Eh     change       -0.5473439E-06 Eh
 * total energy  :  -186.5485195 Eh     change       -0.6092842E-06 Eh
 * total energy  :  -186.5485202 Eh     change       -0.6843578E-06 Eh
 * total energy  :  -186.5485209 Eh     change       -0.7634879E-06 Eh
 * total energy  :  -186.5485217 Eh     change       -0.7623412E-06 Eh
 * total energy  :  -186.5485224 Eh     change       -0.7055442E-06 Eh
 * total energy  :  -186.5485224 Eh     change       -0.9139541E-08 Eh
   *** GEOMETRY OPTIMIZATION CONVERGED AFTER 68 ITERATIONS ***

 final structure:
================
126
 xtb: 6.7.1 (edcfbbe)
C           -6.92955420510768       -8.33671776990373       -0.02677196998714
C           -5.38885513223774       -8.31376278106399       -0.02988736915831
C           -4.83627062686532       -9.75242948660307       -0.02637317983118
C           -4.91505617490344       -7.61539568443805       -1.28858997831947
C           -5.26792581061222       -8.12409341505761       -2.53128688364689
C           -4.86191616629200       -7.52689834157613       -3.71085804806841
C           -4.07624831755731       -6.38649148456874       -3.66164870332907
C           -3.71137292888355       -5.85822261765131       -2.44289421354071
C           -4.12276441687561       -6.45915324699177       -1.24597314594249
N           -3.74148216793293       -5.90284779270964       -0.04067420732795
C           -2.97011834337762       -4.70350887618647       -0.04533031110469
C           -3.61275857915031       -3.46567600719226       -0.04602458890399
C           -2.87337395465074       -2.30560093711905       -0.04734138382698
C           -1.47170997417263       -2.35070425109638       -0.04772487242221
C           -0.69619696851202       -1.12924599965389       -0.04448583099240
N           -1.35426666397099        0.03712992269446       -0.04314417933850
C           -0.60315586861462        1.14548073078557       -0.03501733869326
C           -1.27431488638505        2.42733330639382       -0.02626944965626
C           -0.53703193440506        3.62002130978469       -0.00549732616082
C           -1.17444407690850        4.83924485339576        0.00902760979330
C           -2.56776620265606        4.89854680416669        0.00273660029055
N           -3.22694519771474        6.16277547151652        0.02031442407603
C           -3.53612610319177        6.74027532643468        1.23621891012970
C           -3.21017357129477        6.06758055604023        2.42124565803291
C           -3.50724591976350        6.61499164240452        3.64993979960718
C           -4.13522204277030        7.84817341484589        3.72125980465721
C           -4.45737860963357        8.51554495380807        2.55350427581598
C           -4.17199272175532        7.98845980650592        1.30114121532072
C           -4.54957518712224        8.76560646179115        0.05604315622818
C           -3.81901856526767       10.12227894637196        0.08001601653323
C           -6.07521848902113        8.98370793260452        0.05366539647432
C           -4.16257052402037        8.02772684141319       -1.20986201913904
C           -4.43681347076397        8.59445344305970       -2.44729353034330
C           -4.10728906035637        7.96287856545290       -3.63279450777629
C           -3.48394777607860        6.72584292599416       -3.59525046080678
C           -3.19701726347437        6.13997114093640       -2.38198992737204
C           -3.52911367732900        6.77707014100925       -1.17915615746374
C           -3.31353207855784        3.72030906412579       -0.02078425251320
C           -2.67471206075233        2.50169025721068       -0.03494053695960
N            0.73571188771608        1.13205065722043       -0.03139542615733
C            1.32005431664738       -0.07280254072519       -0.03366128376578
C            2.76566625418132       -0.13058749811663       -0.02560542326059
C            3.43284302886002       -1.36400042847890       -0.01697594611934
C            4.80767437669086       -1.41817998278801       -0.00371397220310
C            5.55252975616553       -0.23907887177924        0.00008481794861
N            6.97721389807423       -0.29429553968703        0.01736450693044
C            7.63266316336904       -0.28205915036985        1.23301639948649
C            6.88677929429202       -0.21870284956554        2.41736764598578
C            7.50996994085806       -0.20342360202431        3.64574525150305
C            8.89297120013878       -0.25204873173053        3.71751579606828
C            9.63234633236683       -0.31589195383260        2.55043051830620
C            9.03246695137356       -0.33325281899216        1.29849276895005
C            9.89481115361768       -0.40407622454035        0.05426415582794
C           10.81634200983569        0.83094716466667        0.02176366472179
C           10.73688436644914       -1.69347837146858        0.10848230177945
C            9.06097666219152       -0.41906523062562       -1.21110668319844
C            9.68904697795158       -0.48713267873327       -2.44739254000777
C            8.97661366273231       -0.49655306992549       -3.63277102640682
C            7.59280729597989       -0.43315861293916       -3.59623960705671
C            6.94191516261112       -0.36583903079815       -2.38406216622257
C            7.66023588807876       -0.36019376893823       -1.18119183203342
C            4.90181871032506        0.99439190196588       -0.01075005478560
C            3.52701697780021        1.04713119851427       -0.02334590291677
N            0.63928857797219       -1.22586412035732       -0.03978093112386
C           -0.83836703794850       -3.60196692189806       -0.04849098940990
C           -1.57676053096469       -4.76323216581497       -0.04732297857074
C           -4.11734258292957       -6.45209262839836        1.16961694242304
C           -3.70011439246467       -5.84463444111016        2.36123626274142
C           -4.06026186975125       -6.36528753550647        3.58465321531802
C           -4.84694603078555       -7.50449077531744        3.64402750037406
C           -5.25825000847615       -8.10846898203568        2.46976275798081
C           -4.91003624594700       -7.60762959450787        1.22256293290005
H           -7.30993865487363       -8.85036623254499       -0.90477977998843
H           -7.30642232596457       -8.84529799626649        0.85569567809405
H           -7.31585326891755       -7.31900691598392       -0.02892780854998
H           -5.16828765000253      -10.29083061161823        0.85648686432744
H           -5.17136096473471      -10.29642441456139       -0.90463244889737
H           -3.74785033959773       -9.73178757676707       -0.02831676048382
H           -5.87783331754498       -9.01247212860312       -2.58739615717950
H           -5.15559334052210       -7.94831914833863       -4.66020685801469
H           -3.74822991684342       -5.90678151046621       -4.57180801985372
H           -3.10159206584955       -4.96890987282991       -2.40477908668853
H           -4.69276093778035       -3.43039428815647       -0.04481606674779
H           -3.35552342816700       -1.34039042666537       -0.04702831494706
H            0.54002798074621        3.55720550431524        0.00002639503741
H           -0.60560019855843        5.75783330739452        0.02608862219555
H           -2.72007140488545        5.10788463055375        2.36631509106550
H           -3.24774134140115        6.07863992435826        4.55054310409894
H           -4.37242010259203        8.28660114117525        4.67865349920788
H           -4.94550844818587        9.47504147976457        2.62695148003767
H           -4.08211383919297       10.68653382196437        0.96996562895418
H           -2.74200348704542        9.96409357446713        0.07846423402085
H           -4.08025894617205       10.71662320354995       -0.79067783666917
H           -6.38264780685522        9.54983321369177       -0.82067641253228
H           -6.58723565646050        8.02311756287350        0.03979928464862
H           -6.38865752150807        9.52768232482702        0.93985358690118
H           -4.92185590585120        9.55718102530859       -2.49434948922709
H           -4.33552484125277        8.43183565888764       -4.57783582587898
H           -3.21986180811339        6.21669188652272       -4.51017471463824
H           -2.71016709147173        5.17747483168542       -2.35273093797929
H           -4.39264438457603        3.77662563541928       -0.02689836382538
H           -3.23674749389880        1.58087417117664       -0.05215695783912
H            2.84202159605316       -2.26676210222521       -0.01929429208249
H            5.32152415138403       -2.36873725567667        0.00418718620043
H            5.80985390679943       -0.18183954379334        2.36184091866802
H            6.91546841277761       -0.15414861969880        4.54587222802060
H            9.39183200958451       -0.24020242300617        4.67466457227484
H           10.70824727632353       -0.35267059335098        2.62380321091242
H           11.46287629698645        0.80692414947898       -0.85061173404361
H           10.21834872837494        1.73980441786344       -0.01792278714100
H           11.44114042678321        0.86929826125636        0.90932340175094
H           10.08296260108028       -2.56349031638791        0.12874028857547
H           11.38298923898103       -1.76947818382647       -0.76114194644523
H           11.35939047451414       -1.71103758441437        0.99823041663984
H           10.76608975827384       -0.53361851547865       -2.49347470721246
H            9.49695433208477       -0.55059359177232       -4.57695399594869
H            7.01929820506260       -0.43646452070054       -4.51120306104564
H            5.86444911223835       -0.31571184540175       -2.35561452011426
H            5.48784466330876        1.90228767406690       -0.00842269674210
H            3.00780912571400        1.99288662534132       -0.03121137408235
H            0.24018962900094       -3.63039339660607       -0.04930233442458
H           -1.08804180149474       -5.72702815218648       -0.04731966556566
H           -3.08954305105093       -4.95625437085936        2.31547624468740
H           -3.72772449617762       -5.88052615034665        4.49048052524865
H           -5.13719577527053       -7.91978808196491        4.59711264468338
H           -5.86862129723331       -8.99599162960244        2.53378316452173

          :  Hamiltonian                  GFN2-xTB          :
         :: gradient norm              0.000070522321 Eh/a0 ::
         :: HOMO-LUMO gap              0.000248031649 eV    ::
         :: SCC energy              -189.874230660342 Eh    ::
         :: -> dispersion             -0.177669841513 Eh    ::
         :: -> Gsolv                  -0.084941424027 Eh    ::
         :: repulsion energy           3.325708231046 Eh    ::

    * Orbital Energies and Occupations

         #    Occupation            Energy/Eh            Energy/eV
      -------------------------------------------------------------
         1        2.0000           -0.6750152             -18.3681
       ...           ...                  ...                  ...
       163        2.0000           -0.4052275             -11.0268
       164        2.0000           -0.3996622             -10.8754
       165        2.0000           -0.3996545             -10.8752
       166        2.0000           -0.3996431             -10.8748
       167        2.0000           -0.3990413             -10.8585
       168        2.0000           -0.3940715             -10.7232
       169        2.0000           -0.3940122             -10.7216
       170        1.9699           -0.3563826              -9.6977
       171        1.9698           -0.3563808              -9.6976
       172        1.7835           -0.3543065              -9.6412
       173        1.6393           -0.3536286              -9.6227
       174        1.6375           -0.3536211              -9.6225
       175        0.5013           -0.2741919              -7.4611 (HOMO)
       176        0.4987           -0.2741823              -7.4609 (LUMO)
       177                         -0.2426979              -6.6041
       178                         -0.2328480              -6.3361
       179                         -0.2328455              -6.3360
       180                         -0.2328382              -6.3359
       181                         -0.2275203              -6.1911
       182                         -0.2274856              -6.1902
       183                         -0.2274657              -6.1897
       184                         -0.2260171              -6.1502
       185                         -0.2260083              -6.1500
       186                         -0.2260032              -6.1499
       ...                                ...                  ...
       342                          0.6920479              18.8316
      -------------------------------------------------------------
                  HL-Gap            0.0000096 Eh            0.0003 eV

     #   Z          covCN         q      C6AA      α(0)
     1   6 C        3.761    -0.106    22.574     6.773
     2   6 C        3.909     0.023    20.138     6.378
     3   6 C        3.761    -0.106    22.572     6.773
     4   6 C        2.978    -0.007    28.201     8.711
     5   6 C        2.926    -0.035    28.878     8.813
     6   6 C        2.917    -0.039    28.959     8.825
     7   6 C        2.918    -0.031    28.776     8.797
     8   6 C        2.923    -0.053    29.306     8.878
     9   6 C        2.929     0.061    26.642     8.465
    10   7 N        2.754    -0.044    22.088     6.980
    11   6 C        2.928     0.052    26.833     8.495
    12   6 C        2.917    -0.041    29.023     8.834
    13   6 C        2.923    -0.036    28.887     8.814
    14   6 C        2.981    -0.017    28.428     8.746
    15   6 C        2.951     0.202    23.711     7.987
    16   7 N        1.843    -0.350    29.960     8.112
    17   6 C        2.950     0.202    23.710     7.986
    18   6 C        2.981    -0.017    28.428     8.746
    19   6 C        2.923    -0.036    28.887     8.814
    20   6 C        2.917    -0.041    29.024     8.834
    21   6 C        2.928     0.052    26.831     8.495
    22   7 N        2.754    -0.044    22.087     6.980
    23   6 C        2.929     0.061    26.642     8.465
    24   6 C        2.923    -0.053    29.306     8.878
    25   6 C        2.918    -0.031    28.776     8.797
    26   6 C        2.917    -0.039    28.959     8.825
    27   6 C        2.926    -0.035    28.877     8.813
    28   6 C        2.978    -0.007    28.201     8.711
    29   6 C        3.909     0.023    20.138     6.378
    30   6 C        3.761    -0.106    22.572     6.773
    31   6 C        3.761    -0.106    22.574     6.773
    32   6 C        2.978    -0.007    28.201     8.711
    33   6 C        2.926    -0.035    28.877     8.813
    34   6 C        2.917    -0.039    28.959     8.825
    35   6 C        2.918    -0.031    28.776     8.797
    36   6 C        2.923    -0.053    29.307     8.878
    37   6 C        2.929     0.061    26.642     8.465
    38   6 C        2.917    -0.041    29.025     8.835
    39   6 C        2.923    -0.036    28.888     8.814
    40   7 N        1.843    -0.350    29.960     8.112
    41   6 C        2.951     0.202    23.711     7.987
    42   6 C        2.981    -0.017    28.428     8.746
    43   6 C        2.923    -0.036    28.888     8.814
    44   6 C        2.917    -0.041    29.024     8.834
    45   6 C        2.928     0.052    26.833     8.495
    46   7 N        2.754    -0.044    22.086     6.980
    47   6 C        2.929     0.061    26.642     8.465
    48   6 C        2.923    -0.053    29.307     8.878
    49   6 C        2.918    -0.031    28.776     8.797
    50   6 C        2.917    -0.039    28.959     8.825
    51   6 C        2.926    -0.035    28.878     8.813
    52   6 C        2.978    -0.007    28.200     8.711
    53   6 C        3.909     0.023    20.138     6.378
    54   6 C        3.761    -0.106    22.571     6.773
    55   6 C        3.761    -0.106    22.575     6.773
    56   6 C        2.978    -0.007    28.201     8.711
    57   6 C        2.926    -0.035    28.877     8.813
    58   6 C        2.917    -0.039    28.959     8.825
    59   6 C        2.918    -0.031    28.776     8.797
    60   6 C        2.923    -0.053    29.306     8.878
    61   6 C        2.929     0.061    26.642     8.465
    62   6 C        2.917    -0.041    29.025     8.835
    63   6 C        2.923    -0.036    28.889     8.814
    64   7 N        1.843    -0.350    29.962     8.112
    65   6 C        2.923    -0.036    28.890     8.814
    66   6 C        2.917    -0.041    29.026     8.835
    67   6 C        2.929     0.061    26.642     8.465
    68   6 C        2.923    -0.053    29.306     8.878
    69   6 C        2.918    -0.031    28.776     8.797
    70   6 C        2.917    -0.039    28.959     8.825
    71   6 C        2.926    -0.035    28.878     8.813
    72   6 C        2.978    -0.007    28.201     8.711
    73   1 H        0.925     0.048     2.348     2.396
    74   1 H        0.925     0.048     2.348     2.396
    75   1 H        0.925     0.033     2.538     2.491
    76   1 H        0.925     0.048     2.348     2.396
    77   1 H        0.925     0.048     2.348     2.396
    78   1 H        0.925     0.034     2.536     2.491
    79   1 H        0.926     0.043     2.406     2.426
    80   1 H        0.926     0.036     2.498     2.471
    81   1 H        0.926     0.034     2.532     2.488
    82   1 H        0.926     0.030     2.580     2.512
    83   1 H        0.926     0.039     2.464     2.455
    84   1 H        0.926     0.042     2.417     2.431
    85   1 H        0.926     0.042     2.418     2.431
    86   1 H        0.926     0.039     2.460     2.453
    87   1 H        0.926     0.030     2.581     2.512
    88   1 H        0.926     0.034     2.532     2.488
    89   1 H        0.926     0.036     2.498     2.471
    90   1 H        0.926     0.043     2.406     2.426
    91   1 H        0.925     0.048     2.349     2.397
    92   1 H        0.925     0.033     2.537     2.491
    93   1 H        0.925     0.048     2.348     2.396
    94   1 H        0.925     0.048     2.348     2.396
    95   1 H        0.925     0.034     2.536     2.490
    96   1 H        0.925     0.048     2.348     2.396
    97   1 H        0.926     0.043     2.406     2.426
    98   1 H        0.926     0.036     2.498     2.471
    99   1 H        0.926     0.034     2.532     2.488
   100   1 H        0.926     0.030     2.580     2.512
   101   1 H        0.926     0.039     2.457     2.451
   102   1 H        0.926     0.042     2.418     2.432
   103   1 H        0.926     0.042     2.418     2.432
   104   1 H        0.926     0.039     2.459     2.452
   105   1 H        0.926     0.030     2.581     2.512
   106   1 H        0.926     0.034     2.532     2.488
   107   1 H        0.926     0.036     2.498     2.471
   108   1 H        0.926     0.043     2.406     2.425
   109   1 H        0.925     0.048     2.348     2.396
   110   1 H        0.925     0.033     2.538     2.491
   111   1 H        0.925     0.048     2.348     2.396
   112   1 H        0.925     0.034     2.536     2.490
   113   1 H        0.925     0.048     2.348     2.396
   114   1 H        0.925     0.048     2.348     2.396
   115   1 H        0.926     0.043     2.406     2.426
   116   1 H        0.926     0.036     2.498     2.471
   117   1 H        0.926     0.034     2.532     2.488
   118   1 H        0.926     0.030     2.580     2.512
   119   1 H        0.926     0.039     2.459     2.452
   120   1 H        0.926     0.042     2.417     2.431
   121   1 H        0.926     0.042     2.419     2.432
   122   1 H        0.926     0.040     2.454     2.450
   123   1 H        0.926     0.030     2.581     2.512
   124   1 H        0.926     0.034     2.532     2.488
   125   1 H        0.926     0.036     2.498     2.471
   126   1 H        0.926     0.043     2.406     2.426

molecular dipole:
                 x           y           z       tot (Debye)
 q only:       -0.014       0.031       0.051
   full:       -0.014       0.031       0.047       0.147

 projected vibrational frequencies (cm⁻¹)
eigval :       -0.00     0.00     0.00     0.00     0.00     0.00
eigval :       -3.17     5.00     9.75    11.64    12.86    14.20
eigval :       18.26    20.98    25.61    30.22    32.56    32.97
eigval :       38.73    40.91    53.78    56.64    64.59    67.68
eigval :       84.81    93.35    96.54    97.88   100.34   101.42
eigval :      102.22   105.66   106.73   119.54   130.67   131.20
eigval :      135.42   144.09   145.07   170.95   173.27   175.14
eigval :      188.12   194.77   195.38   199.48   200.78   217.84
eigval :      218.17   219.22   220.18   230.67   232.54   233.09
eigval :      281.29   282.10   294.27   297.20   297.91   302.02
eigval :      318.05   319.09   327.05   327.38   327.92   337.14
eigval :      338.14   341.90   347.19   348.64   355.94   370.90
eigval :      372.56   373.58   376.37   377.71   379.77   392.72
eigval :      402.60   403.24   408.46   408.56   410.53   418.46
eigval :      423.42   424.07   449.77   451.57   452.54   466.42
eigval :      467.00   487.44   503.23   504.62   505.91   508.40
eigval :      508.90   509.96   541.83   542.57   544.33   544.60
eigval :      545.27   551.92   555.94   569.68   570.37   577.22
eigval :      586.78   587.04   590.03   599.31   599.56   605.52
eigval :      606.13   608.76   610.10   611.01   636.37   659.27
eigval :      659.94   673.22   678.21   685.69   686.11   686.91
eigval :      691.47   692.17   697.70   698.50   699.05   702.20
eigval :      706.10   719.58   726.76   727.86   742.93   773.78
eigval :      774.28   775.38   776.79   777.08   777.38   806.05
eigval :      806.50   806.99   819.85   820.18   824.73   824.79
eigval :      825.56   855.36   857.86   858.29   867.24   869.07
eigval :      870.61   871.05   874.12   874.88   903.87   904.22
eigval :      906.30   907.77   913.16   914.01   914.07   914.28
eigval :      914.46   914.51   914.69   915.26   915.90   916.23
eigval :      917.29   917.47   920.38   921.63   922.27   922.52
eigval :      922.69   923.26   923.48   923.86   936.19   937.51
eigval :      937.76   956.04   957.42   957.51   976.24  1003.37
eigval :     1006.63  1007.28  1010.32  1010.80  1012.80  1064.31
eigval :     1074.25  1074.30  1075.07  1083.31  1083.60  1084.35
eigval :     1106.28  1106.56  1107.55  1113.03  1113.26  1113.43
eigval :     1113.59  1117.55  1119.82  1137.26  1137.48  1137.58
eigval :     1151.87  1152.10  1152.22  1154.38  1155.78  1166.24
eigval :     1166.73  1167.75  1175.77  1181.79  1182.04  1182.61
eigval :     1182.81  1183.10  1183.22  1183.27  1183.74  1200.82
eigval :     1205.98  1207.04  1238.55  1239.09  1239.33  1242.58
eigval :     1242.91  1243.56  1247.79  1251.00  1252.33  1259.22
eigval :     1259.72  1260.86  1264.84  1292.07  1292.18  1292.29
eigval :     1304.43  1304.82  1305.89  1319.05  1319.10  1319.16
eigval :     1320.18  1320.45  1323.19  1328.57  1328.59  1328.73
eigval :     1332.57  1333.00  1333.16  1350.65  1351.34  1383.09
eigval :     1395.84  1397.70  1398.11  1408.10  1413.13  1413.24
eigval :     1414.89  1416.27  1416.60  1426.31  1426.50  1426.53
eigval :     1430.10  1431.09  1431.71  1459.50  1459.62  1459.66
eigval :     1462.78  1463.35  1477.37  1479.77  1480.57  1482.82
eigval :     1482.85  1483.37  1483.40  1484.56  1484.99  1488.18
eigval :     1493.28  1493.43  1493.60  1497.79  1498.67  1499.37
eigval :     1511.65  1513.94  1514.20  1559.08  1559.10  1559.26
eigval :     1565.23  1565.38  1570.80  1572.87  1574.08  1580.78
eigval :     1580.97  1581.00  1588.48  1590.69  1591.74  1592.95
eigval :     3023.82  3024.31  3024.69  3025.98  3026.82  3026.92
eigval :     3044.33  3044.42  3044.64  3046.21  3046.27  3046.71
eigval :     3051.74  3051.82  3051.90  3055.41  3055.51  3055.92
eigval :     3075.31  3075.67  3076.41  3077.09  3077.54  3078.22
eigval :     3078.45  3078.73  3078.85  3078.94  3079.08  3079.19
eigval :     3085.31  3085.81  3085.94  3085.96  3085.98  3086.07
eigval :     3095.56  3095.88  3095.95  3096.02  3096.16  3096.49
eigval :     3098.71  3099.13  3099.43  3100.43  3101.12  3101.27
eigval :     3101.64  3102.26  3102.68  3103.30  3103.74  3104.55

   temp. (K)  partition function   enthalpy   heat capacity  entropy
                                   cal/mol     cal/K/mol   cal/K/mol   J/K/mol
 298.15  VIB  0.262E+32            37428.880    230.391    236.523
         ROT  0.522E+09              888.752      2.981     42.870
         INT  0.137E+41            38317.632    233.372    279.393
         TR   0.275E+29             1481.254      4.968     46.348
         TOT                       39798.8863   238.3400   325.7413  1362.9017

       T/K    H(0)-H(T)+PV         H(T)/Eh          T*S/Eh         G(T)/Eh
   ------------------------------------------------------------------------
    298.15    0.634236E-01    0.105654E+01    0.154770E+00    0.901772E+00
   ------------------------------------------------------------------------

         :::::::::::::::::::::::::::::::::::::::::::::::::::::
         ::                  THERMODYNAMIC                  ::
         :::::::::::::::::::::::::::::::::::::::::::::::::::::
         :: total free energy        -185.646749938512 Eh   ::
         ::.................................................::
         :: total energy             -186.548522434938 Eh   ::
         :: zero point energy           0.993119148766 Eh   ::
         :: G(RRHO) w/o ZPVE           -0.091346652340 Eh   ::
         :: G(RRHO) contrib.            0.901772496426 Eh   ::
         :::::::::::::::::::::::::::::::::::::::::::::::::::::

           -------------------------------------------------
          | TOTAL ENERGY             -186.548522434938 Eh   |
          | TOTAL ENTHALPY           -185.491979723794 Eh   |
          | TOTAL FREE ENERGY        -185.646749938512 Eh   |
          | GRADIENT NORM               0.000070561406 Eh/α |
          | HOMO-LUMO GAP               0.000261351370 eV   |
           -------------------------------------------------

 * finished run on 2025/07/17 at 03:19:47.614
