   * xtb version 6.7.1 (edcfbbe) compiled by 'albert@albert-system' on 2024-07-22

   ID    Z sym.   atoms
    1    6 C      1-9, 11-15, 17-21, 23-39, 41-45, 47-63, 65-72
    2    7 N      10, 16, 22, 40, 46, 64
    3    1 H      73-126

          program call               : xtb data2507/toluene/BmPyPhB/BmPyPhB.xyz --gfn 2 --gbsa toluene --ohess vtight --parallel 40 --molden --ceasefiles --namespace data2507/toluene/BmPyPhB/BmPyPhB_toluene_S0_preOpt
      * Solvation model:               GBSA
        Solvent                        toluene
        Solvent mass                       9.2140E+01 g/mol
          :  Hamiltonian                  GFN2-xTB          :
 * total energy  :  -186.5715230 Eh     change       -0.6009401E-08 Eh
 * total energy  :  -186.5961215 Eh     change       -0.2459855E-01 Eh
 * total energy  :  -186.6054013 Eh     change       -0.9279763E-02 Eh
 * total energy  :  -186.6077617 Eh     change       -0.2360386E-02 Eh
 * total energy  :  -186.6094156 Eh     change       -0.1653910E-02 Eh
 * total energy  :  -186.6104929 Eh     change       -0.1077331E-02 Eh
 * total energy  :  -186.6112358 Eh     change       -0.7429324E-03 Eh
 * total energy  :  -186.6117398 Eh     change       -0.5039880E-03 Eh
 * total energy  :  -186.6120559 Eh     change       -0.3160923E-03 Eh
 * total energy  :  -186.6122977 Eh     change       -0.2417372E-03 Eh
 * total energy  :  -186.6130754 Eh     change       -0.3397092E-06 Eh
 * total energy  :  -186.6130757 Eh     change       -0.3406849E-06 Eh
 * total energy  :  -186.6130760 Eh     change       -0.2655689E-06 Eh
 * total energy  :  -186.6130762 Eh     change       -0.1926101E-06 Eh
 * total energy  :  -186.6130763 Eh     change       -0.1576228E-06 Eh
 * total energy  :  -186.6130765 Eh     change       -0.1782251E-06 Eh
 * total energy  :  -186.6130767 Eh     change       -0.1659327E-06 Eh
 * total energy  :  -186.6130768 Eh     change       -0.1089982E-06 Eh
 * total energy  :  -186.6130769 Eh     change       -0.7585402E-07 Eh
   *** GEOMETRY OPTIMIZATION CONVERGED AFTER 64 ITERATIONS ***

 final structure:
================
126
 xtb: 6.7.1 (edcfbbe)
C          -10.74474986733578        1.60682485112983        0.38221338229997
C           -9.88396031467538        0.38194033908202        0.01950528583307
C          -10.78427987156911       -0.81546226559365       -0.33908280985265
C           -9.03088007699405        0.72299653631256       -1.18790076990990
C           -9.64943725134482        1.08331416791640       -2.37796628115879
C           -8.93068431940615        1.37393103735641       -3.52276665377538
C           -7.55041774866020        1.28732582601442       -3.49252096535458
C           -6.91019682775702        0.93253729538472       -2.32339521806868
C           -7.63338915249482        0.66608610983222       -1.15661933980639
N           -6.96026997295103        0.31772045819478        0.00764679962593
C           -5.54411705944907        0.25960166259806       -0.00274030300865
C           -4.79409846476069        1.43315768776505       -0.03698838823848
C           -3.41594077883413        1.37333438299374       -0.04631630023421
C           -2.76473633259900        0.13994553015506       -0.02296875084744
C           -1.30425468784427        0.07617109960891       -0.03106293098094
N           -0.62836097250507        1.22259561128258       -0.02880879978128
C            0.69826967131281        1.11692146131060       -0.03680876246067
C            1.48501803677547        2.34912494292626       -0.03805780376058
C            2.87715232277763        2.29439726426867       -0.10897315279948
C            3.62032258923715        3.45635532420238       -0.10568605677245
C            2.98361594202104        4.69318228685627       -0.02823916568417
N            3.74861774580056        5.88635069338572       -0.01695741156854
C            3.87126694883779        6.60016023187871        1.16847774372649
C            3.26808503124659        6.11804746282546        2.33426686545436
C            3.36300342690507        6.81015818484954        3.52360205730415
C            4.07323334930713        7.99607219596900        3.57525363554294
C            4.69741918884130        8.45827749490409        2.43134758742285
C            4.61911188906678        7.78131786352916        1.22124182289033
C            5.36073443118537        8.32609772623456        0.01501617399811
C            6.86471868611522        8.37172519943132        0.34484262952224
C            4.83894031579820        9.74250121500772       -0.29175442803542
C            5.15635284767726        7.45836439032649       -1.21258023127644
C            5.75686309706212        7.82107617295508       -2.41114928948164
C            5.58361467135759        7.09021445661157       -3.57198705980956
C            4.77175157932838        5.97038778062246       -3.54938689398811
C            4.16575776615075        5.58556185137386       -2.37154732543245
C            4.36442904895125        6.30550229709941       -1.18934899854496
C            1.59332578181223        4.75186400414546        0.04045058333239
C            0.85063974915982        3.58945690666658        0.03371022776319
N            1.35322993353329       -0.04162562055856       -0.04067008387706
C            0.59842447199424       -1.13769869057366       -0.03864695675680
C            1.27227236321503       -2.43510927087577       -0.03429516725543
C            0.52902946109430       -3.61401579620317       -0.09517872667428
C            1.16420619308339       -4.83841455389140       -0.08832109470157
C            2.55399820468691       -4.90448423203579       -0.01743030750245
N            3.20622848473758       -6.16292007639809       -0.00737868302171
C            3.76990320633197       -6.62326359768743        1.17585877497665
C            3.65386645580337       -5.86012970654467        2.34186568148926
C            4.21058850068288       -6.28629693144727        3.52974533346106
C            4.88615955731955       -7.49237135702301        3.57976781336889
C            4.97634759150369       -8.26268897550774        2.43512269697728
C            4.42558403860649       -7.85804450173156        1.22612823703615
C            4.53131617269100       -8.76980774993681        0.01805765440541
C            6.02033076668305       -9.01396449677634       -0.29166713123287
C            3.82959910621640      -10.10123095939145        0.34662716720808
C            3.87467893693238       -8.16190290897175       -1.20715081985473
C            3.89186148270661       -8.86107417682969       -2.40703153190224
C            3.33514495255307       -8.35001794859392       -3.56482071298846
C            2.75679278648230       -7.09371763491337       -3.53790131013870
C            2.72463740776963       -6.37812658464345       -2.35917921625297
C            3.26059413418855       -6.90531978642655       -1.18013504516287
C            3.29963794428118       -3.72917562750625        0.04411215166390
C            2.66380470345661       -2.50510092123127        0.03470387403334
N           -0.73231088200685       -1.12548304473463       -0.03774237871119
C           -3.51906366495804       -1.03305138086371        0.01094974707800
C           -4.89701976569624       -0.97406369442247        0.02204644226267
C           -7.63893257898073        0.00941680639470        1.17981403261110
C           -6.91756213641109       -0.27659518937176        2.34314260869188
C           -7.56230159028359       -0.59516091153141        3.52016608422252
C           -8.94467672536158       -0.62535926907708        3.56150012866904
C           -9.66031408393352       -0.31299972260875        2.42043539843823
C           -9.03709584285862        0.01395170591622        1.22320396475489
H          -11.37361905589891        1.89995145373610       -0.45368853006041
H          -11.38688363128208        1.39209322446393        1.23169269863956
H          -10.10263581346278        2.44711481283305        0.64097833333088
H          -11.42192237474744       -1.08445479442797        0.49840315189747
H          -11.41899083850180       -0.58256382588887       -1.18944101989299
H          -10.17060223092860       -1.67777357856722       -0.59476074568818
H          -10.72662564259491        1.13775295406598       -2.41946200312111
H           -9.44424582138751        1.65370233367364       -4.43030232554713
H           -6.96746215574595        1.49147498213145       -4.37871609494625
H           -5.83396319367794        0.85351504704252       -2.31519353853950
H           -5.30235918818828        2.38588915245614       -0.05544696507895
H           -2.82380452253539        2.27438963786405       -0.06807265107160
H            3.35824923812614        1.33066213268880       -0.16257616492945
H            4.69817649593096        3.41874102444764       -0.16144829654019
H            2.72375621912389        5.18661664777800        2.30854414953562
H            2.88376216342397        6.41775464340407        4.40859775290325
H            4.15158894883618        8.55017043349553        4.49851998426727
H            5.26516920873218        9.37439250460453        2.48990941658202
H            7.05266525729503        8.99669579018611        1.21339310007979
H            7.22772192142920        7.36785432138089        0.55917109541475
H            7.43232756461255        8.77044209423268       -0.49128008749365
H            5.35680941802711       10.17052521298375       -1.14540795677988
H            3.77488462702578        9.70459310872518       -0.51932798453525
H            4.98441802912236       10.40173970226215        0.55933057045321
H            6.37922179222426        8.70225069318814       -2.44631614375384
H            6.06811432670772        7.39963033689727       -4.48587092240993
H            4.60450549998406        5.39485516795388       -4.44810686922065
H            3.52394258483746        4.71787035130624       -2.36696677825017
H            1.10664171015458        5.71417332484960        0.10003343310755
H           -0.22621692337199        3.62125393376459        0.08246224723993
H           -0.54635298396515       -3.54980006988239       -0.14445836610181
H            0.59257108420751       -5.75337963229086       -0.13773088441107
H            3.11572288793187       -4.92501447723880        2.31695377315891
H            4.11045706006106       -5.67561089361508        4.41516358590277
H            5.32947349970935       -7.83650425494064        4.50206961953929
H            5.49064185169257       -9.20992798859161        2.49231860064568
H            6.13594371921535       -9.67564212430469       -1.14542922009257
H            6.51115393620020       -8.06938673980098       -0.52037039707124
H            6.52392405402697       -9.46525632663045        0.55854791686281
H            2.77905143651568       -9.92139625595211        0.56905952828310
H            3.88976359036191      -10.78806650604900       -0.49299604006846
H            4.28587339000044      -10.57755859433560        1.20985061686318
H            4.35420211700274       -9.83566091256368       -2.44554853270240
H            3.36316600369393       -8.92269868435068       -4.47959461924960
H            2.33215582459336       -6.66515287721152       -4.43395358170848
H            2.28378340535294       -5.39312931924004       -2.35162326268953
H            4.37661024023127       -3.78792853618015        0.09934443980333
H            3.22959646735124       -1.58800398349916        0.07831082234695
H           -3.00593240743797       -1.98147048742355        0.02535009646742
H           -5.48523298241334       -1.87936005091325        0.05027763990664
H           -5.83902239819090       -0.24207026204030        2.32518361111193
H           -6.98120111740313       -0.81573566148231        4.40363479843563
H           -9.46194877803864       -0.87803148379116        4.47486914010324
H          -10.73844951759440       -0.32381463262384        2.47046152966407

          :  Hamiltonian                  GFN2-xTB          :
         :: gradient norm              0.000032386350 Eh/a0 ::
         :: HOMO-LUMO gap              1.319325130903 eV    ::
         :: SCC energy              -189.950829957097 Eh    ::
         :: -> dispersion             -0.177894733502 Eh    ::
         :: -> Gsolv                  -0.076197498628 Eh    ::
         :: repulsion energy           3.337753096779 Eh    ::

    * Orbital Energies and Occupations

         #    Occupation            Energy/Eh            Energy/eV
      -------------------------------------------------------------
         1        2.0000           -0.6957276             -18.9317
       ...           ...                  ...                  ...
       162        2.0000           -0.4043588             -11.0032
       163        2.0000           -0.4043502             -11.0029
       164        2.0000           -0.3985668             -10.8456
       165        2.0000           -0.3985645             -10.8455
       166        2.0000           -0.3985625             -10.8454
       167        2.0000           -0.3931957             -10.6994
       168        2.0000           -0.3931934             -10.6993
       169        2.0000           -0.3931846             -10.6991
       170        2.0000           -0.3856391             -10.4938
       171        2.0000           -0.3856201             -10.4933
       172        2.0000           -0.3484067              -9.4806
       173        2.0000           -0.3483921              -9.4802
       174        2.0000           -0.3481859              -9.4746 (HOMO)
       175                         -0.2997016              -8.1553 (LUMO)
       176                         -0.2996771              -8.1546
       177                         -0.2597605              -7.0684
       178                         -0.2434991              -6.6259
       179                         -0.2434697              -6.6251
       180                         -0.2434612              -6.6249
       181                         -0.2252655              -6.1298
       182                         -0.2252579              -6.1296
       183                         -0.2252342              -6.1289
       184                         -0.2202956              -5.9945
       185                         -0.2202930              -5.9945
       ...                                ...                  ...
       342                          0.6797303              18.4964
      -------------------------------------------------------------
                  HL-Gap            0.0484843 Eh            1.3193 eV

     #   Z          covCN         q      C6AA      α(0)
     1   6 C        3.761    -0.104    22.539     6.768
     2   6 C        3.909     0.021    20.165     6.383
     3   6 C        3.761    -0.104    22.535     6.767
     4   6 C        2.979    -0.013    28.332     8.731
     5   6 C        2.928    -0.037    28.925     8.820
     6   6 C        2.917    -0.046    29.131     8.851
     7   6 C        2.919    -0.035    28.861     8.810
     8   6 C        2.924    -0.060    29.491     8.906
     9   6 C        2.926     0.057    26.712     8.476
    10   7 N        2.753    -0.070    22.599     7.060
    11   6 C        2.927     0.077    26.274     8.406
    12   6 C        2.919    -0.037    28.918     8.818
    13   6 C        2.923    -0.025    28.633     8.775
    14   6 C        2.983    -0.010    28.269     8.722
    15   6 C        2.980     0.215    23.458     7.945
    16   7 N        1.844    -0.319    29.125     7.998
    17   6 C        2.980     0.215    23.458     7.945
    18   6 C        2.983    -0.010    28.269     8.721
    19   6 C        2.923    -0.025    28.632     8.775
    20   6 C        2.920    -0.037    28.916     8.818
    21   6 C        2.927     0.077    26.275     8.406
    22   7 N        2.753    -0.070    22.597     7.060
    23   6 C        2.927     0.057    26.712     8.476
    24   6 C        2.924    -0.060    29.491     8.906
    25   6 C        2.919    -0.035    28.861     8.810
    26   6 C        2.917    -0.046    29.131     8.851
    27   6 C        2.928    -0.037    28.925     8.820
    28   6 C        2.979    -0.013    28.332     8.731
    29   6 C        3.909     0.021    20.164     6.383
    30   6 C        3.761    -0.104    22.535     6.767
    31   6 C        3.761    -0.104    22.539     6.768
    32   6 C        2.979    -0.013    28.331     8.731
    33   6 C        2.928    -0.037    28.924     8.820
    34   6 C        2.917    -0.046    29.130     8.851
    35   6 C        2.919    -0.035    28.861     8.810
    36   6 C        2.924    -0.060    29.487     8.905
    37   6 C        2.927     0.057    26.712     8.476
    38   6 C        2.920    -0.037    28.917     8.818
    39   6 C        2.923    -0.025    28.633     8.775
    40   7 N        1.844    -0.319    29.125     7.998
    41   6 C        2.980     0.215    23.458     7.945
    42   6 C        2.983    -0.010    28.268     8.721
    43   6 C        2.923    -0.025    28.632     8.775
    44   6 C        2.920    -0.037    28.916     8.818
    45   6 C        2.927     0.077    26.274     8.406
    46   7 N        2.753    -0.070    22.599     7.060
    47   6 C        2.927     0.057    26.712     8.476
    48   6 C        2.924    -0.060    29.491     8.906
    49   6 C        2.919    -0.035    28.861     8.810
    50   6 C        2.917    -0.046    29.131     8.851
    51   6 C        2.928    -0.037    28.925     8.820
    52   6 C        2.979    -0.013    28.332     8.731
    53   6 C        3.909     0.021    20.164     6.383
    54   6 C        3.761    -0.104    22.539     6.768
    55   6 C        3.761    -0.104    22.535     6.767
    56   6 C        2.979    -0.013    28.332     8.731
    57   6 C        2.928    -0.037    28.925     8.820
    58   6 C        2.917    -0.046    29.131     8.851
    59   6 C        2.919    -0.035    28.861     8.810
    60   6 C        2.924    -0.060    29.489     8.905
    61   6 C        2.927     0.057    26.712     8.476
    62   6 C        2.920    -0.037    28.917     8.818
    63   6 C        2.923    -0.025    28.633     8.775
    64   7 N        1.844    -0.319    29.125     7.998
    65   6 C        2.923    -0.025    28.632     8.775
    66   6 C        2.920    -0.037    28.916     8.818
    67   6 C        2.927     0.057    26.713     8.476
    68   6 C        2.924    -0.060    29.487     8.905
    69   6 C        2.919    -0.035    28.861     8.810
    70   6 C        2.917    -0.046    29.130     8.851
    71   6 C        2.928    -0.037    28.925     8.820
    72   6 C        2.979    -0.013    28.331     8.731
    73   1 H        0.925     0.043     2.413     2.429
    74   1 H        0.925     0.043     2.415     2.430
    75   1 H        0.925     0.031     2.578     2.511
    76   1 H        0.925     0.043     2.413     2.429
    77   1 H        0.925     0.043     2.415     2.430
    78   1 H        0.925     0.031     2.579     2.511
    79   1 H        0.926     0.035     2.519     2.482
    80   1 H        0.926     0.027     2.622     2.532
    81   1 H        0.926     0.027     2.626     2.534
    82   1 H        0.926     0.023     2.691     2.565
    83   1 H        0.926     0.055     2.258     2.350
    84   1 H        0.926     0.059     2.209     2.324
    85   1 H        0.926     0.059     2.209     2.324
    86   1 H        0.926     0.055     2.262     2.352
    87   1 H        0.926     0.023     2.693     2.566
    88   1 H        0.926     0.027     2.626     2.534
    89   1 H        0.926     0.028     2.622     2.532
    90   1 H        0.926     0.035     2.519     2.482
    91   1 H        0.925     0.043     2.416     2.430
    92   1 H        0.925     0.031     2.579     2.511
    93   1 H        0.925     0.043     2.413     2.429
    94   1 H        0.925     0.043     2.415     2.430
    95   1 H        0.925     0.031     2.577     2.511
    96   1 H        0.925     0.043     2.412     2.429
    97   1 H        0.926     0.035     2.519     2.482
    98   1 H        0.926     0.028     2.622     2.532
    99   1 H        0.926     0.027     2.626     2.534
   100   1 H        0.926     0.023     2.694     2.567
   101   1 H        0.926     0.055     2.259     2.350
   102   1 H        0.926     0.059     2.210     2.325
   103   1 H        0.926     0.059     2.210     2.325
   104   1 H        0.926     0.055     2.262     2.352
   105   1 H        0.926     0.023     2.693     2.566
   106   1 H        0.926     0.027     2.627     2.534
   107   1 H        0.926     0.027     2.622     2.532
   108   1 H        0.926     0.035     2.519     2.482
   109   1 H        0.925     0.043     2.415     2.430
   110   1 H        0.925     0.031     2.578     2.511
   111   1 H        0.925     0.043     2.413     2.429
   112   1 H        0.925     0.031     2.579     2.511
   113   1 H        0.925     0.043     2.413     2.429
   114   1 H        0.925     0.043     2.416     2.430
   115   1 H        0.926     0.035     2.519     2.482
   116   1 H        0.926     0.028     2.622     2.532
   117   1 H        0.926     0.027     2.626     2.534
   118   1 H        0.926     0.023     2.694     2.567
   119   1 H        0.926     0.055     2.260     2.351
   120   1 H        0.926     0.059     2.209     2.324
   121   1 H        0.926     0.059     2.208     2.324
   122   1 H        0.926     0.055     2.263     2.353
   123   1 H        0.926     0.022     2.696     2.568
   124   1 H        0.926     0.027     2.626     2.534
   125   1 H        0.926     0.028     2.621     2.532
   126   1 H        0.926     0.035     2.519     2.482

molecular dipole:
                 x           y           z       tot (Debye)
 q only:       -0.000      -0.012       0.009
   full:       -0.000      -0.012       0.007       0.036

 projected vibrational frequencies (cm⁻¹)
eigval :       -0.00    -0.00    -0.00    -0.00     0.00     0.00
eigval :        6.83     8.47    10.17    12.26    13.28    13.95
eigval :       20.92    22.28    23.54    29.47    31.37    39.20
eigval :       47.67    48.73    53.10    59.46    64.30    64.71
eigval :       85.26    91.98    93.91   101.10   101.75   102.41
eigval :      103.58   105.78   107.59   136.04   137.08   141.56
eigval :      144.83   147.43   147.70   164.21   166.03   185.09
eigval :      195.02   200.98   202.28   202.78   204.24   217.97
eigval :      218.90   221.43   221.81   233.46   235.11   235.87
eigval :      290.34   290.67   294.92   297.40   297.74   303.80
eigval :      317.45   318.31   330.55   331.61   332.39   342.37
eigval :      342.68   343.92   355.11   355.78   363.10   366.22
eigval :      368.41   369.90   377.26   378.57   378.97   388.11
eigval :      405.53   406.52   409.70   409.83   411.56   419.66
eigval :      450.21   450.47   452.01   452.38   452.84   479.87
eigval :      481.56   489.30   493.21   493.70   504.91   515.47
eigval :      515.50   516.09   547.62   547.96   548.34   551.21
eigval :      551.62   554.03   554.53   575.71   576.19   580.46
eigval :      589.62   589.81   592.14   609.36   609.46   612.56
eigval :      623.09   623.22   637.55   638.86   640.38   667.02
eigval :      667.28   681.41   682.73   683.03   683.27   693.70
eigval :      694.02   694.06   695.15   716.93   718.81   731.91
eigval :      731.96   747.06   775.08   776.48   777.07   778.31
eigval :      778.45   779.25   779.51   819.78   820.06   820.75
eigval :      829.59   829.78   830.51   844.67   844.70   865.72
eigval :      866.08   866.81   867.07   867.75   868.76   870.72
eigval :      871.66   872.61   910.60   912.66   913.12   913.55
eigval :      913.93   914.25   914.50   914.71   914.97   915.37
eigval :      919.07   920.09   921.51   921.62   921.98   922.43
eigval :      922.71   923.60   924.64   927.70   928.63   928.65
eigval :      930.09   931.11   937.88   938.30   938.64   955.50
eigval :      955.54   956.81  1002.51  1012.36  1013.36  1013.86
eigval :     1015.13  1015.95  1046.84  1075.82  1075.93  1075.99
eigval :     1083.52  1084.00  1084.03  1086.00  1112.66  1112.83
eigval :     1112.98  1115.70  1118.28  1118.48  1119.00  1120.47
eigval :     1122.71  1139.04  1140.24  1140.35  1158.18  1158.23
eigval :     1158.39  1159.35  1161.04  1169.48  1170.35  1171.53
eigval :     1178.34  1184.28  1184.94  1185.64  1186.83  1187.14
eigval :     1187.49  1188.47  1189.25  1203.26  1206.79  1211.27
eigval :     1211.46  1243.20  1244.01  1244.40  1247.77  1248.08
eigval :     1248.23  1250.88  1253.20  1254.15  1266.64  1267.45
eigval :     1267.84  1292.98  1293.15  1293.35  1308.55  1310.34
eigval :     1310.60  1315.81  1316.05  1316.13  1324.78  1324.83
eigval :     1325.31  1332.14  1332.34  1332.48  1333.97  1334.30
eigval :     1334.34  1365.37  1365.56  1381.34  1398.14  1398.73
eigval :     1400.10  1402.81  1402.88  1403.89  1417.02  1417.48
eigval :     1418.65  1434.90  1435.09  1435.18  1438.69  1438.81
eigval :     1438.85  1473.97  1474.25  1475.68  1475.73  1475.86
eigval :     1484.12  1486.09  1486.52  1486.69  1487.21  1487.91
eigval :     1488.14  1494.27  1494.39  1495.64  1495.79  1496.93
eigval :     1497.09  1501.95  1502.13  1502.64  1502.67  1502.81
eigval :     1558.96  1563.34  1563.55  1573.77  1573.81  1573.89
eigval :     1584.58  1585.43  1585.55  1590.01  1590.19  1590.26
eigval :     1590.31  1590.36  1590.41  1600.25  1600.35  1600.45
eigval :     3021.22  3021.66  3021.92  3023.81  3024.06  3024.37
eigval :     3039.48  3039.57  3039.65  3041.04  3041.65  3041.69
eigval :     3048.12  3048.20  3048.29  3051.91  3052.47  3052.76
eigval :     3072.39  3072.80  3072.88  3073.07  3073.17  3073.90
eigval :     3080.02  3080.39  3080.43  3080.85  3080.93  3080.96
eigval :     3088.35  3088.68  3089.45  3089.74  3089.98  3090.74
eigval :     3090.82  3091.05  3091.15  3091.24  3091.46  3091.73
eigval :     3097.31  3097.60  3097.61  3098.55  3098.80  3099.12
eigval :     3108.37  3108.92  3109.00  3110.10  3110.61  3112.11

   temp. (K)  partition function   enthalpy   heat capacity  entropy
                                   cal/mol     cal/K/mol   cal/K/mol   J/K/mol
 298.15  VIB  0.195E+31            36921.878    227.616    232.146
         ROT  0.521E+09              888.752      2.981     42.867
         INT  0.102E+40            37810.630    230.597    275.012
         TR   0.275E+29             1481.254      4.968     46.348
         TOT                       39291.8844   235.5654   321.3603  1344.5716

       T/K    H(0)-H(T)+PV         H(T)/Eh          T*S/Eh         G(T)/Eh
   ------------------------------------------------------------------------
    298.15    0.626156E-01    0.106300E+01    0.152689E+00    0.910309E+00
   ------------------------------------------------------------------------

         :::::::::::::::::::::::::::::::::::::::::::::::::::::
         ::                  THERMODYNAMIC                  ::
         :::::::::::::::::::::::::::::::::::::::::::::::::::::
         :: total free energy        -185.702768123042 Eh   ::
         ::.................................................::
         :: total energy             -186.613076861315 Eh   ::
         :: zero point energy           1.000381793523 Eh   ::
         :: G(RRHO) w/o ZPVE           -0.090073055250 Eh   ::
         :: G(RRHO) contrib.            0.910308738273 Eh   ::
         :::::::::::::::::::::::::::::::::::::::::::::::::::::

           -------------------------------------------------
          | TOTAL ENERGY             -186.613076861315 Eh   |
          | TOTAL ENTHALPY           -185.550079464420 Eh   |
          | TOTAL FREE ENERGY        -185.702768123042 Eh   |
          | GRADIENT NORM               0.000032381562 Eh/α |
          | HOMO-LUMO GAP               1.319325777956 eV   |
           -------------------------------------------------

 * finished run on 2025/07/17 at 02:45:23.743
