   * xtb version 6.7.1 (edcfbbe) compiled by 'albert@albert-system' on 2024-07-22

   ID    Z sym.   atoms
    1    6 C      1-9, 11-15, 17-21, 23-39, 41-45, 47-63, 65-72
    2    7 N      10, 16, 22, 40, 46, 64
    3    1 H      73-126

          program call               : xtb data2507/toluene/BmPyPhB/BmPyPhB_toluene_S0_crest.xyz --gfn 2 --gbsa toluene --ohess vtight --parallel 40 --molden --ceasefiles --namespace data2507/toluene/BmPyPhB/BmPyPhB_toluene_S0_finalOpt
      * Solvation model:               GBSA
        Solvent                        toluene
        Solvent mass                       9.2140E+01 g/mol
          :  Hamiltonian                  GFN2-xTB          :
 * total energy  :  -186.6129395 Eh     change       -0.2352522E-08 Eh
 * total energy  :  -186.6129801 Eh     change       -0.4060676E-04 Eh
 * total energy  :  -186.6129895 Eh     change       -0.9317038E-05 Eh
 * total energy  :  -186.6129939 Eh     change       -0.4408474E-05 Eh
 * total energy  :  -186.6129985 Eh     change       -0.4630053E-05 Eh
 * total energy  :  -186.6130022 Eh     change       -0.3732017E-05 Eh
 * total energy  :  -186.6130051 Eh     change       -0.2862760E-05 Eh
 * total energy  :  -186.6130084 Eh     change       -0.3306496E-05 Eh
 * total energy  :  -186.6130138 Eh     change       -0.5385767E-05 Eh
 * total energy  :  -186.6130211 Eh     change       -0.7357825E-05 Eh
 * total energy  :  -186.6130567 Eh     change       -0.6861200E-06 Eh
 * total energy  :  -186.6130572 Eh     change       -0.5219681E-06 Eh
 * total energy  :  -186.6130576 Eh     change       -0.3881065E-06 Eh
 * total energy  :  -186.6130579 Eh     change       -0.3079678E-06 Eh
 * total energy  :  -186.6130582 Eh     change       -0.2959067E-06 Eh
 * total energy  :  -186.6130585 Eh     change       -0.2967009E-06 Eh
 * total energy  :  -186.6130587 Eh     change       -0.2089625E-06 Eh
 * total energy  :  -186.6130589 Eh     change       -0.1978444E-06 Eh
 * total energy  :  -186.6130589 Eh     change       -0.6365383E-08 Eh
   *** GEOMETRY OPTIMIZATION CONVERGED AFTER 44 ITERATIONS ***

 final structure:
================
126
 xtb: 6.7.1 (edcfbbe)
C           -5.16276365009603       -9.56121919267828       -0.29640568724898
C           -5.64717928117826       -8.12974536584191        0.00200395646555
C           -7.15548865034559       -8.13153870633247        0.31460312811389
C           -4.90234519621415       -7.60522215306540        1.21526092313862
C           -5.01933479729938       -8.27317897157117        2.42719816282790
C           -4.38946773077810       -7.83035284199207        3.57566409593256
C           -3.62988771388211       -6.67537332469474        3.52589345710430
C           -3.49686204580522       -5.99208762839000        2.33508278249499
C           -4.10945648155001       -6.45365033158829        1.16588655615602
N           -3.95021807550317       -5.74833994902016       -0.02008440165043
C           -3.14370063953104       -4.58246513231300       -0.02735579802077
C           -1.75636473387577       -4.69024541334334        0.03895987351680
C           -0.97330002778404       -3.55455035698763        0.03410388405191
C           -1.56394200237724       -2.29263083486833       -0.03343513482438
C           -0.73454210848812       -1.08856768588826       -0.03118935171251
N            0.58751851878281       -1.24045952230068       -0.02812809741513
C            1.30300300317240       -0.11822981290007       -0.02833955492148
C            2.76024383039634       -0.23332927055475       -0.02304486397546
C            3.55553417273238        0.91227120377011        0.01287850995698
C            4.93045698945733        0.80461936077643        0.02354011574711
C            5.53383480371379       -0.45106217118757       -0.00348565522811
N            6.94684042346956       -0.55781722728672        0.00901203457133
C            7.61048720041251       -0.93537946301522       -1.15177172032592
C            6.88102431532767       -1.19333337393778       -2.31653216244460
C            7.51202893373725       -1.57501890209700       -3.48220170035317
C            8.88962817174025       -1.69729629012641       -3.51129733392350
C            9.61534124345266       -1.41580823040489       -2.36865932495028
C            9.00603862222192       -1.02965374857550       -1.18190738047521
C            9.86790776347985       -0.70050693619699        0.02254554720327
C           10.79547985063478        0.47316623339442       -0.34490109653009
C           10.70025222854551       -1.94259715740401        0.39305507772660
C            9.03094588050763       -0.30461732231744        1.22422833851993
C            9.66232719238007        0.01215240024495        2.41997066257520
C            8.95493116732496        0.34807844195274        3.55943668696435
C            7.57222654621242        0.35241523352668        3.51826112156160
C            6.91964139244003        0.04501458953083        2.34262451234232
C            7.63344842174341       -0.26329078313399        1.18027496261209
C            4.74281902753189       -1.59734902949332       -0.04046559283505
C            3.36766440112260       -1.48884684491795       -0.04946534767535
N            0.77330861303396        1.10272066123905       -0.02970627856157
C           -0.55617012503732        1.16124862979236       -0.02684713744656
C           -1.18521546456263        2.48091148178124       -0.01783842186569
C           -2.57359577086010        2.59736753299234        0.05264009730631
C           -3.16792669232395        3.84196470857469        0.06514864509206
C           -2.38351868649840        4.99187600811735        0.00556953316303
N           -2.99546296626200        6.27017213472919        0.01788133591431
C           -3.02855091833165        7.01628657825720       -1.15340734988635
C           -2.49222662076721        6.48395440708536       -2.32995901524771
C           -2.50285535003602        7.20376605400395       -3.50650664248906
C           -3.06017875394152        8.46950464394065       -3.53401216699951
C           -3.61789629270959        8.98589321321462       -2.37910276904934
C           -3.62154875973162        8.28299111804706       -1.18128626452484
C           -4.27999155596963        8.89737521833525        0.03976801357999
C           -3.56786956001380       10.22199138485678        0.37333154492845
C           -5.76446764251108        9.15590153856058       -0.27999213265192
C           -4.19166137023211        7.98431284414407        1.24820351521440
C           -4.74084899118983        8.39648418084771        2.45539342679175
C           -4.66482640865786        7.62502736860916        3.60029619585509
C           -4.00549362609049        6.40989828751403        3.55252253754977
C           -3.45213163892760        5.97546817079007        2.36609665799168
C           -3.55487104165995        6.73967394306194        1.19952159080630
C           -0.99671600476707        4.87956423520293       -0.06572304548011
C           -0.40298528428936        3.63446926608282       -0.07614672607852
N           -1.34870035480377        0.09202041041183       -0.02930796211105
C           -2.95337800087304       -2.18884109737083       -0.10130428710108
C           -3.73691273207919       -3.32401284103750       -0.09982351026854
C           -4.57216319128218       -6.14629210526172       -1.19643936981671
C           -4.34066414583966       -5.43392092003079       -2.37724662099025
C           -4.94932014775119       -5.79967141808044       -3.55977283739933
C           -5.79653275314747       -6.89284348602762       -3.58857072591830
C           -6.00462492083395       -7.61560058532905       -2.42837009281791
C           -5.40307256092360       -7.27128669936598       -1.22492921773007
H           -5.33376857903866      -10.21350796616577        0.55533217341861
H           -5.68506034796081       -9.97675892807152       -1.15353829701651
H           -4.09613735900906       -9.55375618973595       -0.51481116389176
H           -7.72498280754157       -8.51540442862774       -0.52716155071998
H           -7.37152131044296       -8.74942600881579        1.18165303035564
H           -7.49185797659575       -7.11727097751223        0.52336934283442
H           -5.62233651681790       -9.16665163089885        2.48349225707630
H           -4.49952459796194       -8.37647330765920        4.50046584553542
H           -3.14264049463650       -6.29954613602365        4.41368987263314
H           -2.91447065813903       -5.08388492157862        2.31056731826156
H           -1.30366915359837       -5.66918159689213        0.09474463858581
H            0.10183577855743       -3.62435385823496        0.08094970762388
H            3.07620406130552        1.87816496739616        0.02957990685944
H            5.55034000392617        1.68845369389496        0.05390287745875
H            5.80727107337189       -1.08618611221432       -2.30986786485870
H            6.92408646113067       -1.77180684127599       -4.36676562257337
H            9.39594272261941       -1.99765936487860       -4.41632665760123
H           10.69078580118381       -1.49812901825796       -2.40921297368572
H           11.42428685218707        0.21948376703339       -1.19371895747226
H           10.20174079793304        1.34757823270598       -0.60660664902126
H           11.43937399641468        0.73332391160388        0.49060235098494
H           11.34740024233652       -1.73734502876221        1.24103842551020
H           10.03898143175749       -2.76614752894428        0.65735337919716
H           11.32211973588766       -2.25564651687575       -0.44083616741621
H           10.74038215688327       -0.00420459011062        2.47008957384216
H            9.47854226215099        0.59232604902912        4.47147141551531
H            6.99690268748222        0.59092383781272        4.40083215919652
H            5.84058195821740        0.03721126767193        2.32498661658882
H            5.21696782582788       -2.56748369861836       -0.06041304988149
H            2.74426167991533       -2.36852815683388       -0.07282229264857
H           -3.16977595696903        1.69967398555271        0.09461406476183
H           -4.24226667744993        3.93682354501693        0.12137453927983
H           -2.06831034245377        5.49159296937503       -2.32259066922386
H           -2.07822581666281        6.77100315262105       -4.40055014787324
H           -3.07159202453836        9.04536864356333       -4.44713740191823
H           -4.06480587881798        9.96761610043632       -2.41846148621323
H           -4.02442412990550       10.70193620840327        1.23436609363141
H           -2.52026351861886       10.03229761344516        0.60133626481918
H           -3.61715264846205       10.91026605599612       -0.46577073064586
H           -6.26367428775256        8.21581543113592       -0.50909429645838
H           -6.26849579788854        9.61477218724191        0.56593639017436
H           -5.86782992591069        9.81616455787406       -1.13646228150726
H           -5.24269649347560        9.35048237570036        2.51090196781172
H           -5.10625310810538        7.97527389525983        4.52119909717732
H           -3.91580184529977        5.79837513974089        4.43847655173661
H           -2.92731348661652        5.03276267338784        2.34254612689759
H           -0.39466374489362        5.77494080412747       -0.11277410018991
H            0.66962811983101        3.53446604865662       -0.12624938970525
H           -3.40051916040453       -1.20876729133803       -0.15157404485064
H           -4.81286242972925       -3.24832572954217       -0.15359148239418
H           -3.67098617685404       -4.58759849650887       -2.36781980226167
H           -4.75594114373581       -5.23065203199548       -4.45739109728379
H           -6.28247212416411       -7.18769988600910       -4.50650195324842
H           -6.65538734730344       -8.47580752684436       -2.46805128050106

          :  Hamiltonian                  GFN2-xTB          :
         :: gradient norm              0.000054933395 Eh/a0 ::
         :: HOMO-LUMO gap              1.319367602227 eV    ::
         :: SCC energy              -189.950876660813 Eh    ::
         :: -> dispersion             -0.177896391104 Eh    ::
         :: -> Gsolv                  -0.076185415203 Eh    ::
         :: repulsion energy           3.337817721109 Eh    ::

    * Orbital Energies and Occupations

         #    Occupation            Energy/Eh            Energy/eV
      -------------------------------------------------------------
         1        2.0000           -0.6957075             -18.9312
       ...           ...                  ...                  ...
       162        2.0000           -0.4043717             -11.0035
       163        2.0000           -0.4043035             -11.0017
       164        2.0000           -0.3985970             -10.8464
       165        2.0000           -0.3985781             -10.8459
       166        2.0000           -0.3985260             -10.8444
       167        2.0000           -0.3932250             -10.7002
       168        2.0000           -0.3932050             -10.6997
       169        2.0000           -0.3931553             -10.6983
       170        2.0000           -0.3856228             -10.4933
       171        2.0000           -0.3856035             -10.4928
       172        2.0000           -0.3484622              -9.4821
       173        2.0000           -0.3483693              -9.4796
       174        2.0000           -0.3481677              -9.4741 (HOMO)
       175                         -0.2996819              -8.1548 (LUMO)
       176                         -0.2996622              -8.1542
       177                         -0.2597459              -7.0680
       178                         -0.2435480              -6.6273
       179                         -0.2434476              -6.6245
       180                         -0.2433926              -6.6230
       181                         -0.2253117              -6.1310
       182                         -0.2252623              -6.1297
       183                         -0.2251889              -6.1277
       184                         -0.2203381              -5.9957
       185                         -0.2202714              -5.9939
       ...                                ...                  ...
       342                          0.6797467              18.4969
      -------------------------------------------------------------
                  HL-Gap            0.0484859 Eh            1.3194 eV

     #   Z          covCN         q      C6AA      α(0)
     1   6 C        3.761    -0.104    22.537     6.768
     2   6 C        3.909     0.021    20.165     6.383
     3   6 C        3.761    -0.104    22.536     6.767
     4   6 C        2.979    -0.013    28.333     8.731
     5   6 C        2.928    -0.037    28.925     8.820
     6   6 C        2.917    -0.046    29.132     8.851
     7   6 C        2.919    -0.035    28.862     8.810
     8   6 C        2.924    -0.060    29.492     8.906
     9   6 C        2.927     0.057    26.711     8.476
    10   7 N        2.753    -0.070    22.603     7.061
    11   6 C        2.927     0.077    26.273     8.406
    12   6 C        2.920    -0.037    28.916     8.818
    13   6 C        2.923    -0.025    28.632     8.775
    14   6 C        2.983    -0.010    28.266     8.721
    15   6 C        2.980     0.215    23.458     7.945
    16   7 N        1.844    -0.319    29.126     7.998
    17   6 C        2.980     0.215    23.459     7.945
    18   6 C        2.983    -0.010    28.271     8.722
    19   6 C        2.923    -0.025    28.633     8.775
    20   6 C        2.920    -0.037    28.917     8.818
    21   6 C        2.927     0.077    26.276     8.406
    22   7 N        2.753    -0.070    22.595     7.060
    23   6 C        2.926     0.057    26.712     8.476
    24   6 C        2.924    -0.060    29.492     8.906
    25   6 C        2.919    -0.035    28.861     8.810
    26   6 C        2.917    -0.046    29.130     8.851
    27   6 C        2.928    -0.037    28.924     8.820
    28   6 C        2.979    -0.013    28.331     8.731
    29   6 C        3.909     0.021    20.164     6.383
    30   6 C        3.761    -0.104    22.535     6.767
    31   6 C        3.761    -0.104    22.540     6.768
    32   6 C        2.979    -0.013    28.329     8.731
    33   6 C        2.928    -0.037    28.924     8.820
    34   6 C        2.917    -0.045    29.128     8.850
    35   6 C        2.919    -0.035    28.861     8.810
    36   6 C        2.924    -0.060    29.485     8.905
    37   6 C        2.927     0.057    26.714     8.476
    38   6 C        2.919    -0.037    28.920     8.819
    39   6 C        2.923    -0.025    28.635     8.775
    40   7 N        1.844    -0.319    29.125     7.998
    41   6 C        2.980     0.215    23.458     7.945
    42   6 C        2.983    -0.010    28.269     8.722
    43   6 C        2.923    -0.025    28.633     8.775
    44   6 C        2.920    -0.037    28.917     8.818
    45   6 C        2.927     0.077    26.275     8.406
    46   7 N        2.753    -0.070    22.596     7.060
    47   6 C        2.927     0.057    26.712     8.476
    48   6 C        2.924    -0.060    29.491     8.906
    49   6 C        2.919    -0.035    28.861     8.810
    50   6 C        2.917    -0.046    29.131     8.851
    51   6 C        2.928    -0.037    28.925     8.820
    52   6 C        2.979    -0.013    28.331     8.731
    53   6 C        3.909     0.021    20.164     6.383
    54   6 C        3.761    -0.104    22.537     6.768
    55   6 C        3.761    -0.104    22.537     6.768
    56   6 C        2.979    -0.013    28.331     8.731
    57   6 C        2.928    -0.037    28.924     8.820
    58   6 C        2.917    -0.046    29.130     8.851
    59   6 C        2.919    -0.035    28.861     8.810
    60   6 C        2.924    -0.060    29.489     8.905
    61   6 C        2.927     0.057    26.713     8.476
    62   6 C        2.920    -0.037    28.918     8.818
    63   6 C        2.923    -0.025    28.633     8.775
    64   7 N        1.844    -0.319    29.127     7.998
    65   6 C        2.923    -0.025    28.632     8.775
    66   6 C        2.920    -0.037    28.914     8.818
    67   6 C        2.927     0.057    26.712     8.476
    68   6 C        2.924    -0.060    29.489     8.905
    69   6 C        2.919    -0.035    28.861     8.810
    70   6 C        2.917    -0.046    29.131     8.851
    71   6 C        2.928    -0.037    28.925     8.820
    72   6 C        2.979    -0.013    28.333     8.731
    73   1 H        0.925     0.043     2.413     2.429
    74   1 H        0.925     0.043     2.415     2.430
    75   1 H        0.925     0.031     2.579     2.511
    76   1 H        0.925     0.043     2.413     2.429
    77   1 H        0.925     0.043     2.416     2.430
    78   1 H        0.925     0.031     2.579     2.511
    79   1 H        0.926     0.035     2.520     2.482
    80   1 H        0.926     0.027     2.623     2.533
    81   1 H        0.926     0.027     2.627     2.535
    82   1 H        0.926     0.023     2.695     2.567
    83   1 H        0.926     0.055     2.258     2.350
    84   1 H        0.926     0.059     2.209     2.324
    85   1 H        0.926     0.059     2.209     2.324
    86   1 H        0.926     0.054     2.264     2.353
    87   1 H        0.926     0.023     2.688     2.564
    88   1 H        0.926     0.027     2.625     2.534
    89   1 H        0.926     0.028     2.622     2.532
    90   1 H        0.926     0.035     2.518     2.482
    91   1 H        0.925     0.043     2.415     2.430
    92   1 H        0.925     0.031     2.579     2.511
    93   1 H        0.925     0.043     2.413     2.429
    94   1 H        0.925     0.043     2.414     2.430
    95   1 H        0.925     0.031     2.577     2.510
    96   1 H        0.925     0.043     2.412     2.429
    97   1 H        0.926     0.035     2.518     2.481
    98   1 H        0.926     0.028     2.620     2.531
    99   1 H        0.926     0.027     2.625     2.534
   100   1 H        0.926     0.023     2.695     2.567
   101   1 H        0.926     0.055     2.258     2.350
   102   1 H        0.926     0.059     2.210     2.325
   103   1 H        0.926     0.059     2.210     2.325
   104   1 H        0.926     0.055     2.262     2.352
   105   1 H        0.926     0.023     2.691     2.565
   106   1 H        0.926     0.027     2.626     2.534
   107   1 H        0.926     0.028     2.622     2.532
   108   1 H        0.926     0.035     2.519     2.482
   109   1 H        0.925     0.043     2.415     2.430
   110   1 H        0.925     0.031     2.578     2.511
   111   1 H        0.925     0.043     2.413     2.429
   112   1 H        0.925     0.031     2.578     2.511
   113   1 H        0.925     0.043     2.413     2.429
   114   1 H        0.925     0.043     2.415     2.430
   115   1 H        0.926     0.035     2.519     2.482
   116   1 H        0.926     0.028     2.621     2.532
   117   1 H        0.926     0.027     2.626     2.534
   118   1 H        0.926     0.023     2.694     2.567
   119   1 H        0.926     0.055     2.260     2.351
   120   1 H        0.926     0.059     2.210     2.325
   121   1 H        0.926     0.059     2.209     2.324
   122   1 H        0.926     0.055     2.262     2.352
   123   1 H        0.926     0.022     2.696     2.568
   124   1 H        0.926     0.027     2.627     2.534
   125   1 H        0.926     0.027     2.622     2.532
   126   1 H        0.926     0.035     2.520     2.482

molecular dipole:
                 x           y           z       tot (Debye)
 q only:        0.015       0.029       0.008
   full:        0.014       0.029       0.006       0.084

 projected vibrational frequencies (cm⁻¹)
eigval :       -0.00    -0.00    -0.00     0.00     0.00     0.00
eigval :        5.12     7.29     9.13    10.08    11.02    12.88
eigval :       20.90    21.48    22.31    28.95    30.70    35.19
eigval :       43.15    47.17    52.24    59.70    62.42    63.18
eigval :       85.03    91.40    93.85    97.02    99.51   101.60
eigval :      103.06   106.15   106.61   135.88   136.45   143.03
eigval :      145.22   147.29   147.81   163.72   165.89   184.84
eigval :      195.69   200.69   201.34   202.78   202.99   217.40
eigval :      217.95   219.84   221.57   233.69   235.30   235.90
eigval :      290.28   290.44   294.96   297.00   297.62   303.58
eigval :      317.09   318.18   330.04   331.33   331.60   341.80
eigval :      342.10   343.22   355.21   355.71   362.98   365.59
eigval :      368.35   370.07   377.47   378.62   379.01   387.48
eigval :      405.20   405.94   409.62   409.75   411.53   419.86
eigval :      450.09   450.39   451.95   452.10   452.43   479.56
eigval :      481.27   488.92   492.57   493.53   504.59   514.04
eigval :      514.23   515.24   546.49   546.66   547.40   551.57
eigval :      551.65   554.19   554.25   575.87   576.16   580.46
eigval :      589.51   589.71   592.00   609.08   609.41   612.57
eigval :      623.08   623.12   637.54   638.62   640.57   666.96
eigval :      667.15   681.28   682.52   683.34   683.59   693.55
eigval :      694.43   694.57   694.92   716.69   718.85   731.78
eigval :      731.90   746.87   775.54   776.18   776.90   777.12
eigval :      778.38   779.10   780.76   819.64   819.95   820.63
eigval :      829.22   829.67   830.41   844.69   844.75   865.31
eigval :      865.37   866.32   866.90   868.11   868.71   870.00
eigval :      870.87   872.39   912.05   913.29   913.69   914.17
eigval :      914.39   914.55   914.64   914.77   914.85   915.28
eigval :      919.47   919.72   920.46   921.25   921.99   922.12
eigval :      922.90   923.55   924.51   927.56   928.47   928.64
eigval :      929.30   931.08   937.84   938.53   938.99   955.40
eigval :      956.63   958.47  1002.08  1012.69  1013.32  1014.36
eigval :     1014.48  1014.97  1046.68  1075.81  1076.12  1076.15
eigval :     1083.63  1084.04  1084.23  1085.96  1112.51  1112.75
eigval :     1112.90  1113.35  1118.20  1118.46  1118.68  1119.24
eigval :     1120.98  1139.21  1140.02  1140.09  1157.46  1158.12
eigval :     1158.38  1158.43  1159.49  1169.72  1169.90  1171.13
eigval :     1177.16  1184.50  1184.85  1185.81  1186.89  1187.05
eigval :     1187.34  1188.25  1188.31  1202.99  1206.74  1211.15
eigval :     1211.42  1243.27  1244.05  1244.52  1247.17  1247.84
eigval :     1248.01  1250.14  1252.12  1253.04  1266.47  1267.21
eigval :     1267.78  1293.00  1293.09  1293.46  1308.36  1310.18
eigval :     1310.53  1315.65  1315.95  1316.22  1324.72  1324.84
eigval :     1325.31  1332.09  1332.32  1332.36  1333.71  1334.23
eigval :     1334.54  1365.14  1365.62  1381.31  1397.98  1399.72
eigval :     1400.96  1402.27  1402.75  1403.60  1417.55  1418.29
eigval :     1419.57  1434.89  1435.06  1435.14  1438.71  1438.80
eigval :     1438.82  1473.84  1473.93  1475.70  1475.78  1475.95
eigval :     1483.93  1485.84  1486.57  1486.63  1487.25  1488.64
eigval :     1488.71  1494.13  1494.33  1495.56  1495.88  1496.31
eigval :     1497.17  1501.85  1502.14  1502.63  1502.97  1503.49
eigval :     1558.91  1563.25  1563.52  1573.60  1573.82  1573.90
eigval :     1584.41  1585.29  1585.41  1589.93  1590.15  1590.19
eigval :     1590.25  1590.34  1590.37  1600.20  1600.33  1600.38
eigval :     3021.39  3021.43  3021.82  3023.84  3023.88  3024.26
eigval :     3039.36  3039.59  3039.68  3041.06  3041.71  3041.97
eigval :     3048.10  3048.18  3048.24  3051.93  3052.50  3052.94
eigval :     3072.68  3072.71  3073.21  3073.29  3073.31  3073.43
eigval :     3080.34  3080.35  3080.47  3080.51  3080.91  3081.20
eigval :     3086.84  3088.36  3088.58  3089.56  3089.77  3090.00
eigval :     3090.78  3091.09  3091.21  3091.33  3091.52  3091.58
eigval :     3097.41  3097.70  3097.89  3098.74  3099.10  3099.15
eigval :     3107.32  3108.32  3108.78  3109.71  3110.13  3111.07

   temp. (K)  partition function   enthalpy   heat capacity  entropy
                                   cal/mol     cal/K/mol   cal/K/mol   J/K/mol
 298.15  VIB  0.854E+31            36983.827    227.368    233.540
         ROT  0.521E+09              888.752      2.981     42.866
         INT  0.445E+40            37872.580    230.349    276.406
         TR   0.275E+29             1481.254      4.968     46.348
         TOT                       39353.8337   235.3171   322.7542  1350.4034

       T/K    H(0)-H(T)+PV         H(T)/Eh          T*S/Eh         G(T)/Eh
   ------------------------------------------------------------------------
    298.15    0.627143E-01    0.106291E+01    0.153351E+00    0.909563E+00
   ------------------------------------------------------------------------

         :::::::::::::::::::::::::::::::::::::::::::::::::::::
         ::                  THERMODYNAMIC                  ::
         :::::::::::::::::::::::::::::::::::::::::::::::::::::
         :: total free energy        -185.703496005842 Eh   ::
         ::.................................................::
         :: total energy             -186.613058933192 Eh   ::
         :: zero point energy           1.000199513093 Eh   ::
         :: G(RRHO) w/o ZPVE           -0.090636585744 Eh   ::
         :: G(RRHO) contrib.            0.909562927350 Eh   ::
         :::::::::::::::::::::::::::::::::::::::::::::::::::::

           -------------------------------------------------
          | TOTAL ENERGY             -186.613058933192 Eh   |
          | TOTAL ENTHALPY           -185.550145094225 Eh   |
          | TOTAL FREE ENERGY        -185.703496005842 Eh   |
          | GRADIENT NORM               0.000054944544 Eh/α |
          | HOMO-LUMO GAP               1.319367385924 eV   |
           -------------------------------------------------

 * finished run on 2025/07/17 at 02:57:42.896
