   * xtb version 6.7.1 (edcfbbe) compiled by 'albert@albert-system' on 2024-07-22

   ID    Z sym.   atoms
    1    6 C      1-9, 11-15, 17-21, 23-39, 41-45, 47-63, 65-72
    2    7 N      10, 16, 22, 40, 46, 64
    3    1 H      73-126

          program call               : xtb data2507/toluene/BmPyPhB/BmPyPhB_toluene_S0_finalOpt.xtbopt.xyz --gfn 2 --uhf 2 --gbsa toluene --ohess vtight --parallel 40 --molden --ceasefiles --namespace data2507/toluene/BmPyPhB/BmPyPhB_toluene_T1_preOpt
      * Solvation model:               GBSA
        Solvent                        toluene
        Solvent mass                       9.2140E+01 g/mol
          :  Hamiltonian                  GFN2-xTB          :
 * total energy  :  -186.5459921 Eh     change       -0.7819068E-08 Eh
 * total energy  :  -186.5472757 Eh     change       -0.1283604E-02 Eh
 * total energy  :  -186.5476014 Eh     change       -0.3257039E-03 Eh
 * total energy  :  -186.5476453 Eh     change       -0.4398122E-04 Eh
 * total energy  :  -186.5477315 Eh     change       -0.8620047E-04 Eh
 * total energy  :  -186.5478042 Eh     change       -0.7267707E-04 Eh
 * total energy  :  -186.5478915 Eh     change       -0.8732454E-04 Eh
 * total energy  :  -186.5479885 Eh     change       -0.9695313E-04 Eh
 * total energy  :  -186.5480679 Eh     change       -0.7938242E-04 Eh
 * total energy  :  -186.5480981 Eh     change       -0.3019436E-04 Eh
 * total energy  :  -186.5482598 Eh     change       -0.1390958E-05 Eh
 * total energy  :  -186.5482612 Eh     change       -0.1417297E-05 Eh
 * total energy  :  -186.5482626 Eh     change       -0.1383792E-05 Eh
 * total energy  :  -186.5482639 Eh     change       -0.1312722E-05 Eh
 * total energy  :  -186.5482651 Eh     change       -0.1215264E-05 Eh
 * total energy  :  -186.5482663 Eh     change       -0.1127109E-05 Eh
 * total energy  :  -186.5482662 Eh     change        0.1251996E-07 Eh
 * total energy  :  -186.5482662 Eh     change        0.1905039E-07 Eh
 * total energy  :  -186.5482663 Eh     change       -0.2170580E-07 Eh
   *** GEOMETRY OPTIMIZATION CONVERGED AFTER 46 ITERATIONS ***

 final structure:
================
126
 xtb: 6.7.1 (edcfbbe)
C           -5.18637377560688       -9.57588258948777       -0.24933895788863
C           -5.66744760218205       -8.13184384700562       -0.00818462489429
C           -7.18911018689166       -8.11123272997038        0.23498943544936
C           -4.97366140583485       -7.58647458499251        1.22373508505391
C           -5.14193333730195       -8.22417283397171        2.44546471512426
C           -4.54172389970489       -7.76266291347341        3.60280285457823
C           -3.75065357463376       -6.62604601233337        3.55290136441684
C           -3.56593298256076       -5.97184636697006        2.35483001954782
C           -4.16446565789431       -6.44207904955709        1.17844373971792
N           -3.95483573374441       -5.76669907247305       -0.00819504425208
C           -3.14195874930901       -4.59601708632894       -0.00486861635168
C           -1.75379603696471       -4.70525972580206       -0.08324923198521
C           -0.97284446470594       -3.57237503165129       -0.08142838955660
C           -1.55787019179171       -2.29993305168277       -0.00728067660999
C           -0.73834714652892       -1.10779768807292       -0.01293510074293
N            0.59289115408139       -1.25286371759341       -0.01190603757389
C            1.31489534179828       -0.12547606677909       -0.02038322148333
C            2.75758442531644       -0.23542782918636       -0.02131168215793
C            3.56048249600751        0.91029754082538       -0.11856398029530
C            4.93233686772628        0.80819242621980       -0.11632405797194
C            5.53948825742063       -0.44311418022989       -0.01070166974780
N            6.96061679780010       -0.54410277459298        0.00204302798171
C            7.62157493271171       -0.88109429699369       -1.16350748271897
C            6.88449204482426       -1.12179495910611       -2.33055726854455
C            7.51345421724215       -1.46841610784996       -3.50607914071285
C            8.89442747454163       -1.57742111918545       -3.54297321226074
C            9.62628259282229       -1.32678037345712       -2.39662093541021
C            9.02030073680103       -0.97596508570654       -1.19776322981639
C            9.87723546180315       -0.69313893968093        0.01957506149058
C           10.81402482901922        0.48694275327742       -0.30437243645900
C           10.70218454733584       -1.95186179551909        0.35120777238760
C            9.03880702572794       -0.33390519736496        1.22954057698853
C            9.66243114381701       -0.04956542447057        2.43694467458611
C            8.94554125195962        0.26693038749786        3.57646055799960
C            7.56113697622573        0.29467534529932        3.52370426747820
C            6.91491073022448        0.01911075303866        2.33880275878168
C            7.63837628718970       -0.28551719022300        1.17811846855608
C            4.75278865431282       -1.59075606340685        0.08603357610471
C            3.38070373621714       -1.48785602266772        0.07707301253378
N            0.77490689784176        1.10000526535544       -0.02612539493240
C           -0.56264908187209        1.16182369596291       -0.02373915586787
C           -1.18679389626435        2.46728218270163       -0.02310489343729
C           -2.58084557444886        2.59372893678677       -0.10784249672755
C           -3.17487419706993        3.83475179635010       -0.10153312410274
C           -2.39033431948656        4.98387047156591       -0.00495013177321
N           -3.00595590870409        6.26906191432739        0.01174188051531
C           -3.07589938625200        6.99474161824943       -1.16172708401298
C           -2.55646872001441        6.44811294397386       -2.34268368340163
C           -2.60411589416003        7.14905543889056       -3.52754781773732
C           -3.17559419009776        8.41100303223307       -3.55936906432330
C           -3.70008739640919        8.94874891724955       -2.39825205330483
C           -3.66678620819037        8.26612262169626       -1.18963529268011
C           -4.26856153676686        8.90190265159504        0.04735270255543
C           -3.53225528903192       10.22539800207770        0.33239637114302
C           -5.76321699097498        9.17059715114143       -0.21436228469523
C           -4.13926930685341        8.00632789848823        1.26293030582114
C           -4.64033381403970        8.43206842134914        2.48575215391914
C           -4.53748988038001        7.66130591140624        3.62943381416514
C           -3.90936448805280        6.42787698631680        3.56476395372401
C           -3.40243486734932        5.97907693398181        2.36510964509337
C           -3.51653593621755        6.75142770014342        1.20152074653195
C           -1.00256882576639        4.87239922675524        0.07790961435259
C           -0.40939879362387        3.63102549626689        0.06585590479940
N           -1.35360345207040        0.08179109273225       -0.01923276902517
C           -2.95490172478212       -2.20475266610684        0.07124259806872
C           -3.73646475558688       -3.33681459252120        0.07458129844552
C           -4.52476974926370       -6.18139144908804       -1.19628438157581
C           -4.25811160132602       -5.47068449335434       -2.37404279242763
C           -4.81740733404193       -5.85371019544585       -3.57324091985296
C           -5.65377117661756       -6.95745399633917       -3.62255238192752
C           -5.91045132987085       -7.66777485562800       -2.46405181080226
C           -5.35984980663118       -7.30696657866880       -1.24165627174856
H           -5.40374474829480      -10.20404910959251        0.60950510781007
H           -5.67500942469563      -10.00554804215880       -1.11888051053547
H           -4.11117344312834       -9.58481002698195       -0.41922694078181
H           -7.72293642929358       -8.50775027205162       -0.62373169777818
H           -7.44924397616194       -8.70805650205407        1.10433928970708
H           -7.52304723487615       -7.08942326639478        0.40659381798151
H           -5.76018788579335       -9.10667312867736        2.50260667890816
H           -4.69286796738237       -8.28332872784214        4.53618177583928
H           -3.27847356123589       -6.24683298123264        4.44691613340775
H           -2.95379493562320       -5.08408785624899        2.31825313584979
H           -1.30250466339928       -5.68523217227648       -0.14461138504806
H            0.10225305125717       -3.63989940361232       -0.14250087676186
H            3.07569830326889        1.87078232191517       -0.19923161124454
H            5.55068098307115        1.69107392811066       -0.19306069255851
H            5.80971764167119       -1.03045298720945       -2.30559174840894
H            6.92489099312120       -1.65134268391484       -4.39273385329183
H            9.39746837169055       -1.84981533940551       -4.45833592300992
H           10.70126021756267       -1.40703963136978       -2.44401697288202
H           11.44862115317121        0.25350168604892       -1.15430851647388
H           10.22699698732266        1.37138472339888       -0.54596507535556
H           11.45096338554075        0.71838054658279        0.54435682116900
H           11.34916808487037       -1.77517912344550        1.20540122797750
H           10.03610789766057       -2.77926858326116        0.58923491066220
H           11.32214631824198       -2.24109016953243       -0.49225361313009
H           10.73945079514965       -0.07557086259634        2.49673310008984
H            9.46241838466307        0.48485036101803        4.49868096768978
H            6.98316559105002        0.52923511540530        4.40515007205129
H            5.83675704748629        0.03541616879463        2.30075917483605
H            5.23199086561006       -2.55589945628483        0.16732138248599
H            2.75826686011938       -2.36596397988870        0.15207881723291
H           -3.17379855161313        1.69527707487882       -0.18108474388882
H           -4.24906611601905        3.93138717073565       -0.16858442459035
H           -2.11550519651615        5.46359936363008       -2.32022218066852
H           -2.19582098115522        6.70919821277779       -4.42523758766222
H           -3.21638165638934        8.96994050567485       -4.48184820148723
H           -4.14733764066884        9.92978710695876       -2.44138823602445
H           -3.95140445287720       10.72017924369263        1.20361485319402
H           -2.47818748822918       10.02983324967133        0.52145414522591
H           -3.61014521774242       10.90085965722491       -0.51450481862094
H           -6.27815794250845        8.23370832159220       -0.41953527793969
H           -6.22879564884763        9.63661803114385        0.64911820007239
H           -5.89339662377097        9.82828149071764       -1.06877531754910
H           -5.12528039450213        9.39349905453368        2.55489108816219
H           -4.93989880792388        8.02225030973299        4.56368255115059
H           -3.81239620227476        5.81483919707502        4.44845148067568
H           -2.90923122203278        5.02058594925161        2.31766289191168
H           -0.40279136932209        5.76823889032851        0.15131760715883
H            0.66259915602675        3.52808162886032        0.13146492645406
H           -3.39935272830125       -1.22354105186487        0.13230341446364
H           -4.81272984103828       -3.26275687565348        0.13651092349356
H           -3.60439893346013       -4.61299074912426       -2.33768756380479
H           -4.59907156719628       -5.29061096069670       -4.46840547150735
H           -6.09910719066668       -7.26515367181718       -4.55641954547395
H           -6.55947969838365       -8.52792036511091       -2.52055653384521

          :  Hamiltonian                  GFN2-xTB          :
         :: gradient norm              0.000157117263 Eh/a0 ::
         :: HOMO-LUMO gap              0.000847640735 eV    ::
         :: SCC energy              -189.873986675016 Eh    ::
         :: -> dispersion             -0.177722193577 Eh    ::
         :: -> Gsolv                  -0.084929890789 Eh    ::
         :: repulsion energy           3.325720418019 Eh    ::

    * Orbital Energies and Occupations

         #    Occupation            Energy/Eh            Energy/eV
      -------------------------------------------------------------
         1        2.0000           -0.6750276             -18.3684
       ...           ...                  ...                  ...
       163        2.0000           -0.4051429             -11.0245
       164        2.0000           -0.3999121             -10.8822
       165        2.0000           -0.3996614             -10.8753
       166        2.0000           -0.3996546             -10.8752
       167        2.0000           -0.3987815             -10.8514
       168        2.0000           -0.3941401             -10.7251
       169        2.0000           -0.3940031             -10.7214
       170        1.9680           -0.3562967              -9.6953
       171        1.9677           -0.3562887              -9.6951
       172        1.7793           -0.3542565              -9.6398
       173        1.6433           -0.3536183              -9.6224
       174        1.6418           -0.3536122              -9.6223
       175        0.5041           -0.2740053              -7.4561 (HOMO)
       176        0.4959           -0.2739743              -7.4552 (LUMO)
       177                         -0.2426200              -6.6020
       178                         -0.2328776              -6.3369
       179                         -0.2328524              -6.3362
       180                         -0.2328492              -6.3361
       181                         -0.2275239              -6.1912
       182                         -0.2275026              -6.1907
       183                         -0.2274139              -6.1882
       184                         -0.2260115              -6.1501
       185                         -0.2260068              -6.1500
       186                         -0.2259851              -6.1494
       ...                                ...                  ...
       342                          0.6919306              18.8284
      -------------------------------------------------------------
                  HL-Gap            0.0000310 Eh            0.0008 eV

     #   Z          covCN         q      C6AA      α(0)
     1   6 C        3.761    -0.106    22.574     6.773
     2   6 C        3.909     0.023    20.138     6.378
     3   6 C        3.761    -0.106    22.571     6.773
     4   6 C        2.978    -0.007    28.200     8.711
     5   6 C        2.926    -0.035    28.878     8.813
     6   6 C        2.917    -0.039    28.959     8.825
     7   6 C        2.918    -0.031    28.777     8.797
     8   6 C        2.923    -0.053    29.308     8.878
     9   6 C        2.929     0.061    26.644     8.465
    10   7 N        2.754    -0.044    22.081     6.979
    11   6 C        2.928     0.052    26.836     8.496
    12   6 C        2.917    -0.041    29.027     8.835
    13   6 C        2.923    -0.036    28.892     8.815
    14   6 C        2.981    -0.017    28.430     8.746
    15   6 C        2.951     0.202    23.713     7.987
    16   7 N        1.843    -0.350    29.963     8.112
    17   6 C        2.951     0.203    23.708     7.986
    18   6 C        2.981    -0.017    28.428     8.746
    19   6 C        2.923    -0.036    28.888     8.814
    20   6 C        2.917    -0.041    29.025     8.835
    21   6 C        2.928     0.052    26.834     8.495
    22   7 N        2.754    -0.043    22.079     6.979
    23   6 C        2.928     0.060    26.645     8.465
    24   6 C        2.923    -0.053    29.309     8.878
    25   6 C        2.918    -0.031    28.777     8.797
    26   6 C        2.917    -0.039    28.959     8.824
    27   6 C        2.926    -0.035    28.878     8.813
    28   6 C        2.978    -0.007    28.200     8.711
    29   6 C        3.909     0.023    20.138     6.379
    30   6 C        3.761    -0.106    22.571     6.773
    31   6 C        3.761    -0.106    22.575     6.773
    32   6 C        2.978    -0.007    28.199     8.711
    33   6 C        2.926    -0.035    28.878     8.813
    34   6 C        2.917    -0.039    28.958     8.824
    35   6 C        2.918    -0.031    28.777     8.797
    36   6 C        2.923    -0.053    29.307     8.878
    37   6 C        2.929     0.060    26.646     8.465
    38   6 C        2.917    -0.041    29.027     8.835
    39   6 C        2.923    -0.036    28.891     8.814
    40   7 N        1.843    -0.351    29.970     8.113
    41   6 C        2.951     0.203    23.707     7.986
    42   6 C        2.981    -0.017    28.428     8.746
    43   6 C        2.923    -0.036    28.888     8.814
    44   6 C        2.917    -0.041    29.025     8.835
    45   6 C        2.928     0.052    26.832     8.495
    46   7 N        2.754    -0.044    22.082     6.979
    47   6 C        2.929     0.060    26.644     8.465
    48   6 C        2.923    -0.053    29.308     8.878
    49   6 C        2.918    -0.031    28.777     8.797
    50   6 C        2.917    -0.039    28.959     8.825
    51   6 C        2.926    -0.035    28.878     8.813
    52   6 C        2.978    -0.007    28.200     8.711
    53   6 C        3.909     0.023    20.138     6.378
    54   6 C        3.761    -0.106    22.572     6.773
    55   6 C        3.761    -0.106    22.574     6.773
    56   6 C        2.978    -0.007    28.200     8.711
    57   6 C        2.926    -0.035    28.878     8.813
    58   6 C        2.917    -0.039    28.959     8.825
    59   6 C        2.918    -0.031    28.777     8.797
    60   6 C        2.923    -0.053    29.308     8.878
    61   6 C        2.929     0.060    26.644     8.465
    62   6 C        2.917    -0.041    29.026     8.835
    63   6 C        2.923    -0.036    28.889     8.814
    64   7 N        1.843    -0.350    29.961     8.112
    65   6 C        2.923    -0.036    28.890     8.814
    66   6 C        2.917    -0.041    29.025     8.835
    67   6 C        2.929     0.061    26.644     8.465
    68   6 C        2.923    -0.053    29.306     8.878
    69   6 C        2.918    -0.031    28.777     8.797
    70   6 C        2.917    -0.039    28.959     8.824
    71   6 C        2.926    -0.035    28.878     8.813
    72   6 C        2.978    -0.007    28.200     8.711
    73   1 H        0.925     0.048     2.348     2.396
    74   1 H        0.925     0.048     2.348     2.396
    75   1 H        0.925     0.034     2.536     2.490
    76   1 H        0.925     0.048     2.348     2.396
    77   1 H        0.925     0.048     2.349     2.397
    78   1 H        0.925     0.033     2.538     2.491
    79   1 H        0.926     0.043     2.406     2.426
    80   1 H        0.926     0.036     2.498     2.471
    81   1 H        0.926     0.034     2.531     2.488
    82   1 H        0.926     0.031     2.576     2.510
    83   1 H        0.926     0.039     2.456     2.451
    84   1 H        0.926     0.042     2.421     2.433
    85   1 H        0.926     0.042     2.419     2.432
    86   1 H        0.926     0.039     2.460     2.453
    87   1 H        0.926     0.031     2.574     2.509
    88   1 H        0.926     0.034     2.531     2.488
    89   1 H        0.926     0.036     2.498     2.472
    90   1 H        0.926     0.043     2.406     2.426
    91   1 H        0.925     0.048     2.348     2.396
    92   1 H        0.925     0.033     2.538     2.491
    93   1 H        0.925     0.048     2.348     2.396
    94   1 H        0.925     0.048     2.348     2.396
    95   1 H        0.925     0.034     2.535     2.490
    96   1 H        0.925     0.048     2.348     2.396
    97   1 H        0.926     0.043     2.405     2.425
    98   1 H        0.926     0.036     2.497     2.471
    99   1 H        0.926     0.034     2.532     2.488
   100   1 H        0.926     0.031     2.577     2.510
   101   1 H        0.926     0.040     2.454     2.450
   102   1 H        0.926     0.042     2.420     2.433
   103   1 H        0.926     0.042     2.420     2.433
   104   1 H        0.926     0.039     2.458     2.452
   105   1 H        0.926     0.031     2.576     2.510
   106   1 H        0.926     0.034     2.531     2.488
   107   1 H        0.926     0.036     2.498     2.471
   108   1 H        0.926     0.043     2.406     2.426
   109   1 H        0.925     0.048     2.349     2.397
   110   1 H        0.925     0.033     2.537     2.491
   111   1 H        0.925     0.048     2.348     2.396
   112   1 H        0.925     0.034     2.537     2.491
   113   1 H        0.925     0.048     2.348     2.396
   114   1 H        0.925     0.048     2.349     2.397
   115   1 H        0.926     0.043     2.406     2.425
   116   1 H        0.926     0.036     2.498     2.471
   117   1 H        0.926     0.034     2.532     2.488
   118   1 H        0.926     0.031     2.578     2.511
   119   1 H        0.926     0.039     2.457     2.451
   120   1 H        0.926     0.042     2.419     2.432
   121   1 H        0.926     0.042     2.419     2.432
   122   1 H        0.926     0.039     2.463     2.454
   123   1 H        0.926     0.031     2.578     2.511
   124   1 H        0.926     0.034     2.532     2.488
   125   1 H        0.926     0.036     2.498     2.471
   126   1 H        0.926     0.043     2.406     2.425

molecular dipole:
                 x           y           z       tot (Debye)
 q only:       -0.012       0.042       0.030
   full:       -0.010       0.041       0.027       0.127

 projected vibrational frequencies (cm⁻¹)
eigval :       -0.00    -0.00     0.00     0.00     0.00     0.00
eigval :        3.25     8.34     9.70    12.13    12.96    13.84
eigval :       21.32    21.48    22.51    28.52    31.48    45.04
eigval :       46.44    51.03    53.80    58.38    66.91    67.51
eigval :       84.70    94.99    96.11    97.94    98.58   100.96
eigval :      101.69   104.24   105.51   126.92   135.17   142.05
eigval :      144.06   144.99   145.81   170.79   172.74   176.20
eigval :      195.27   199.88   200.11   203.06   207.05   217.42
eigval :      218.51   220.21   220.90   231.25   232.86   233.50
eigval :      280.89   282.17   294.18   297.98   299.02   302.55
eigval :      318.41   320.06   327.12   328.08   328.60   338.53
eigval :      338.57   341.84   347.10   347.99   356.75   371.47
eigval :      374.04   375.75   377.30   378.41   379.29   392.51
eigval :      402.18   402.40   408.80   408.91   410.81   418.69
eigval :      423.78   424.12   451.03   451.55   451.65   467.49
eigval :      468.43   488.54   504.13   505.97   506.07   508.86
eigval :      509.53   510.92   541.27   542.59   544.38   544.95
eigval :      545.94   551.86   555.66   570.16   570.91   577.87
eigval :      586.76   587.11   590.29   599.28   599.87   604.83
eigval :      605.75   609.66   610.83   611.17   636.26   658.84
eigval :      659.46   674.39   678.35   685.91   687.15   687.51
eigval :      692.14   693.38   698.32   698.74   699.71   700.26
eigval :      707.65   719.46   726.59   727.14   742.98   775.29
eigval :      775.46   776.69   777.27   778.15   778.44   806.40
eigval :      806.91   807.29   820.45   820.67   824.78   825.53
eigval :      825.59   855.33   857.88   858.16   868.35   869.97
eigval :      870.00   870.58   872.31   872.51   903.71   904.06
eigval :      905.95   907.72   913.70   914.12   914.28   914.36
eigval :      915.15   915.20   915.34   915.43   915.83   916.88
eigval :      916.94   917.41   922.53   922.77   922.88   923.04
eigval :      923.18   923.60   924.43   925.01   936.52   937.63
eigval :      937.95   956.12   957.72   958.69   975.64  1002.77
eigval :     1006.07  1006.79  1011.33  1012.56  1013.14  1064.13
eigval :     1074.30  1074.85  1074.93  1082.85  1083.60  1084.37
eigval :     1106.92  1107.23  1108.11  1112.93  1113.63  1113.81
eigval :     1114.00  1117.50  1118.96  1137.42  1137.82  1138.57
eigval :     1151.99  1152.33  1152.39  1154.13  1154.89  1166.19
eigval :     1167.22  1167.85  1175.28  1181.70  1182.77  1183.25
eigval :     1183.72  1183.94  1184.18  1184.50  1184.75  1200.93
eigval :     1205.46  1206.57  1238.79  1239.03  1239.48  1243.35
eigval :     1243.61  1244.12  1247.99  1251.08  1251.72  1259.23
eigval :     1260.44  1261.16  1264.79  1292.37  1292.44  1292.71
eigval :     1303.78  1304.52  1305.59  1316.70  1317.31  1317.86
eigval :     1322.36  1322.86  1325.18  1328.26  1328.40  1328.51
eigval :     1332.82  1332.90  1333.20  1350.96  1351.92  1382.97
eigval :     1395.81  1397.83  1398.64  1408.13  1412.95  1413.10
eigval :     1413.81  1416.43  1417.02  1426.42  1426.55  1426.56
eigval :     1430.32  1430.95  1431.72  1459.59  1459.69  1459.90
eigval :     1462.77  1463.21  1477.42  1479.34  1480.76  1482.15
eigval :     1484.08  1484.10  1484.47  1485.18  1485.89  1488.01
eigval :     1493.50  1494.26  1494.50  1498.03  1499.63  1499.87
eigval :     1511.75  1514.02  1514.22  1559.16  1559.27  1559.28
eigval :     1564.82  1564.95  1570.99  1572.82  1573.97  1581.02
eigval :     1581.03  1581.10  1588.23  1591.20  1591.65  1593.07
eigval :     3024.44  3024.59  3024.60  3026.74  3026.79  3026.95
eigval :     3043.89  3044.71  3045.30  3046.19  3046.67  3047.09
eigval :     3051.42  3052.20  3052.78  3055.24  3055.83  3056.27
eigval :     3073.85  3075.45  3075.84  3077.23  3077.48  3077.89
eigval :     3078.01  3079.01  3079.16  3079.22  3079.31  3079.45
eigval :     3085.14  3085.88  3086.16  3086.27  3086.32  3086.55
eigval :     3095.50  3095.73  3096.02  3096.13  3096.53  3096.60
eigval :     3097.69  3098.77  3099.16  3100.02  3100.78  3101.50
eigval :     3101.92  3102.50  3102.70  3102.95  3103.11  3103.69

   temp. (K)  partition function   enthalpy   heat capacity  entropy
                                   cal/mol     cal/K/mol   cal/K/mol   J/K/mol
 298.15  VIB  0.607E+31            37302.050    230.841    235.066
         ROT  0.521E+09              888.752      2.981     42.869
         INT  0.316E+40            38190.802    233.822    277.935
         TR   0.275E+29             1481.254      4.968     46.348
         TOT                       39672.0563   238.7898   324.2828  1356.7991

       T/K    H(0)-H(T)+PV         H(T)/Eh          T*S/Eh         G(T)/Eh
   ------------------------------------------------------------------------
    298.15    0.632214E-01    0.105671E+01    0.154077E+00    0.902633E+00
   ------------------------------------------------------------------------

         :::::::::::::::::::::::::::::::::::::::::::::::::::::
         ::                  THERMODYNAMIC                  ::
         :::::::::::::::::::::::::::::::::::::::::::::::::::::
         :: total free energy        -185.645633090403 Eh   ::
         ::.................................................::
         :: total energy             -186.548266261204 Eh   ::
         :: zero point energy           0.993488930137 Eh   ::
         :: G(RRHO) w/o ZPVE           -0.090855759337 Eh   ::
         :: G(RRHO) contrib.            0.902633170801 Eh   ::
         :::::::::::::::::::::::::::::::::::::::::::::::::::::

           -------------------------------------------------
          | TOTAL ENERGY             -186.548266261204 Eh   |
          | TOTAL ENTHALPY           -185.491555885203 Eh   |
          | TOTAL FREE ENERGY        -185.645633090403 Eh   |
          | GRADIENT NORM               0.000155706430 Eh/α |
          | HOMO-LUMO GAP               0.000843816886 eV   |
           -------------------------------------------------

 * finished run on 2025/07/17 at 02:58:08.439
