   * xtb version 6.7.1 (edcfbbe) compiled by 'albert@albert-system' on 2024-07-22

   ID    Z sym.   atoms
    1    6 C      1-11, 13-38, 40, 42-68
    2    7 N      12, 39, 41
    3    1 H      69-115

          program call               : xtb data2507/gas/2PCzBN-tPh/2PCzBN-tPh_gas_S0_crest.xyz --gfn 2 --ohess vtight --parallel 40 --molden --ceasefiles --namespace data2507/gas/2PCzBN-tPh/2PCzBN-tPh_gas_S0_finalOpt
          :  Hamiltonian                  GFN2-xTB          :
 * total energy  :  -171.9755702 Eh     change       -0.2691223E-08 Eh
 * total energy  :  -171.9755715 Eh     change       -0.1322832E-05 Eh
 * total energy  :  -171.9755732 Eh     change       -0.1692831E-05 Eh
 * total energy  :  -171.9755789 Eh     change       -0.5766985E-05 Eh
 * total energy  :  -171.9755826 Eh     change       -0.3620829E-05 Eh
 * total energy  :  -171.9755838 Eh     change       -0.1224056E-05 Eh
 * total energy  :  -171.9755860 Eh     change       -0.2199004E-05 Eh
 * total energy  :  -171.9755897 Eh     change       -0.3728729E-05 Eh
 * total energy  :  -171.9755922 Eh     change       -0.2497681E-05 Eh
 * total energy  :  -171.9755942 Eh     change       -0.1982226E-05 Eh
 * total energy  :  -171.9756243 Eh     change       -0.3476848E-06 Eh
 * total energy  :  -171.9756247 Eh     change       -0.3687364E-06 Eh
 * total energy  :  -171.9756250 Eh     change       -0.3373201E-06 Eh
 * total energy  :  -171.9756253 Eh     change       -0.3199123E-06 Eh
 * total energy  :  -171.9756256 Eh     change       -0.3064358E-06 Eh
 * total energy  :  -171.9756259 Eh     change       -0.2647074E-06 Eh
 * total energy  :  -171.9756261 Eh     change       -0.2090238E-06 Eh
 * total energy  :  -171.9756263 Eh     change       -0.1712023E-06 Eh
 * total energy  :  -171.9756263 Eh     change       -0.2954266E-08 Eh
   *** GEOMETRY OPTIMIZATION CONVERGED AFTER 44 ITERATIONS ***

 final structure:
================
115
 xtb: 6.7.1 (edcfbbe)
C            1.70567603459758       -8.02507395724146       -4.21370739220655
C            0.32409536353162       -7.84272354354331       -3.56933577338682
C            0.13535514984863       -8.86885532625712       -2.44281924968487
C           -0.73979728790222       -8.10526444367943       -4.63846024469750
C            0.23247680776171       -6.44438205056883       -2.98216819049042
C            1.14050436358686       -6.04960733852486       -2.00149943097044
C            1.09857027908690       -4.78963733885186       -1.44233847943194
C            0.13187827043863       -3.86721713580381       -1.83644383581840
C            0.07997949790264       -2.52991211466468       -1.23455706323131
C            1.25576930876705       -1.84065412028311       -0.94943437814976
C            1.22402001069226       -0.58139822757248       -0.36786302221682
N            2.41632945963112        0.07869828678717       -0.07367178824614
C            3.47498870295881       -0.46257217679905        0.63378799024524
C            3.60349877503256       -1.71207042733633        1.22064119798767
C            4.77343768515224       -1.99235159773437        1.89721106427205
C            5.80634610406156       -1.05380176843272        2.01684842968409
C            7.03462049043400       -1.40154372389051        2.74713438890744
C            7.62931252443949       -2.65084100683269        2.58590292693928
C            8.78584226509032       -2.97451249525630        3.27039225366260
C            9.36575397544939       -2.05774371469073        4.13103890622570
C            8.78219640597846       -0.81340738760257        4.30081360099738
C            7.62821204179289       -0.48656892674613        3.61370238160742
C            5.65677289598410        0.20740496331245        1.45357194979844
C            4.49376613970601        0.50668498003394        0.76259714881206
C            4.02491831408996        1.68647670971076        0.08707759537508
C            4.58337033173313        2.93410597339593       -0.13991100223193
C            3.86483614275130        3.87626744101966       -0.86444838082570
C            4.42268545125795        5.21564174944111       -1.10477712477572
C            5.76512422819447        5.37911405260985       -1.43826140484615
C            6.28635769577370        6.63942025314459       -1.66400199780266
C            5.47685163395393        7.75772866143332       -1.55593819953406
C            4.14139213509228        7.60719351820482       -1.22180884123945
C            3.61733129624775        6.34743288678187       -1.00021140926323
C            2.60577883996666        3.54128421737026       -1.37858294211815
C            2.03739222280534        2.30157245976274       -1.17259312395126
C            2.73948204833258        1.38175049678259       -0.41024341375974
C           -0.01197931707115        0.01059218825854       -0.05339258514758
C           -0.05667975791405        1.21373533585872        0.68310928132429
N           -0.09179669015213        2.15872819737141        1.33227488705795
C           -1.20200114273878       -0.66661313800354       -0.37487195962218
N           -2.43745432841376       -0.08780635736242       -0.08580854642584
C           -3.45884759581938       -0.68721181080740        0.62985625417083
C           -3.51124485656042       -1.93937764232812        1.22281927671932
C           -4.65959073082288       -2.28307400513984        1.90737479425048
C           -5.74490865125673       -1.40583201917937        2.02824085288953
C           -6.94659888119512       -1.81987870137001        2.76818357051467
C           -7.46779322263487       -3.10305562259539        2.61908614212430
C           -8.59957843886235       -3.48899419213739        3.31261424016332
C           -9.22761659125199       -2.60163092845936        4.17032318717839
C           -8.71716229530456       -1.32403115072873        4.32810418663006
C           -7.58813891850591       -0.93506135905896        3.63192892488467
C           -5.67311913444587       -0.14196393666410        1.45576107378098
C           -4.53310771551167        0.22070477807874        0.75694271583938
C           -4.13942030676661        1.42146912825921        0.07054296234598
C           -4.77303587792807        2.63117763637797       -0.16418286670409
C           -4.11591705686218        3.60866085532308       -0.90023387205800
C           -4.75529800585566        4.90927606288776       -1.15008027334424
C           -6.10716338871969        4.98758968675852       -1.47639819282202
C           -6.70540866056154        6.21150841270183       -1.71113503577085
C           -5.96471987837816        7.37795425053698       -1.61966974604120
C           -4.62058360493917        7.31218555705411       -1.29299172171041
C           -4.01964275727305        6.08893559727900       -1.06217045801671
C           -2.84099271660517        3.34599169868690       -1.41739412281286
C           -2.19785980390953        2.14477526253493       -1.20337506336478
C           -2.84007072936519        1.19084392827537       -0.43012180784214
C           -1.14315636945249       -1.92504190184666       -0.95567117200752
C           -0.78052143981484       -4.25610326383799       -2.81142696181795
C           -0.72620642074692       -5.51758057131487       -3.37466335062795
H            1.85649944220962       -7.28461451771481       -4.99664500481259
H            2.50288237796215       -7.91622099300096       -3.48373309678832
H            1.78329877700374       -9.01571380016127       -4.65627403816599
H           -0.83275942516639       -8.73028934122111       -1.96577927327045
H            0.90631017891786       -8.77173767090445       -1.68351042124315
H            0.18001451855369       -9.87825144026823       -2.84575876445333
H           -1.74179558237419       -8.01739746387533       -4.22480705332800
H           -0.63533569053517       -7.41568614458555       -5.47302298522753
H           -0.62398603378132       -9.11641880922917       -5.02307074717124
H            1.90039538687923       -6.73639041623179       -1.66054361695762
H            1.80972724602761       -4.52651183916872       -0.67271842748173
H            2.21059098445307       -2.26926786301213       -1.21205658242105
H            2.80945645152817       -2.44222722058346        1.16894539947943
H            4.88737690386547       -2.95536255710415        2.37269215468654
H            7.19141349307879       -3.36464124065540        1.90292748053181
H            9.23878884760413       -3.94559289735700        3.13061274233024
H           10.26821697851158       -2.31200792938959        4.66714012786630
H            9.22756875707043       -0.09541167821125        4.97428687518935
H            7.16761964451631        0.47910567379114        3.76392758905297
H            6.44329416976462        0.94174843523598        1.53815170192077
H            5.55716554009637        3.17497745618169        0.25873494384748
H            6.39783781733592        4.50912515472083       -1.54054417203652
H            7.32839023959529        6.75038116950949       -1.92771527130510
H            5.88524134024684        8.74223870754295       -1.73084585607433
H            3.50623543477192        8.47658330822429       -1.13100378247527
H            2.57960247831233        6.23662007033495       -0.72118740286593
H            2.07559050770309        4.26894490482955       -1.97456746091598
H            1.07809805745436        2.06284112573711       -1.60545648696414
H           -2.67875503241693       -2.62503357178246        1.16723354062246
H           -4.71444147506536       -3.24884946100097        2.38756314568478
H           -6.99223069749753       -3.79491300927438        1.93873621594623
H           -8.99540342054630       -4.48600567741388        3.18227519439960
H          -10.11060481957988       -2.90453939794806        4.71354920405813
H           -9.20016390474918       -0.62858646817198        4.99932046004534
H           -7.18423498937229        0.05704368949203        3.77279742625600
H           -6.50133403191107        0.54517012454233        1.53923256957802
H           -5.75789383549888        2.81625547891050        0.23705824719241
H           -6.68649828226320        4.07983472174801       -1.56591277819340
H           -7.75385473664539        6.25625038421559       -1.96892219755607
H           -6.43323187465958        8.33399490508689       -1.80165070514947
H           -4.03887378496014        8.21941881500758       -1.21517766430673
H           -2.97547090617880        6.04435608435157       -0.78881315066603
H           -2.35839304904444        4.09896324921361       -2.02233109664343
H           -1.22791294818068        1.95990954720163       -1.63918886916307
H           -2.06489222329041       -2.43622375954803       -1.18650052966843
H           -1.52788710724241       -3.55585612104198       -3.15542289489333
H           -1.45093242860804       -5.76559709963354       -4.13269539437580

          :  Hamiltonian                  GFN2-xTB          :
         :: gradient norm              0.000071654096 Eh/a0 ::
         :: HOMO-LUMO gap              2.110791835894 eV    ::
         :: SCC energy              -175.281183166600 Eh    ::
         :: -> dispersion             -0.160376084966 Eh    ::
         :: repulsion energy           3.305556900014 Eh    ::

    * Orbital Energies and Occupations

         #    Occupation            Energy/Eh            Energy/eV
      -------------------------------------------------------------
         1        2.0000           -0.6890189             -18.7492
       ...           ...                  ...                  ...
       149        2.0000           -0.4017353             -10.9318
       150        2.0000           -0.4013498             -10.9213
       151        2.0000           -0.4004379             -10.8965
       152        2.0000           -0.3988768             -10.8540
       153        2.0000           -0.3988267             -10.8526
       154        2.0000           -0.3986244             -10.8471
       155        2.0000           -0.3966801             -10.7942
       156        2.0000           -0.3899352             -10.6107
       157        2.0000           -0.3896367             -10.6026
       158        2.0000           -0.3777551             -10.2792
       159        2.0000           -0.3774555             -10.2711
       160        2.0000           -0.3634962              -9.8912
       161        2.0000           -0.3611111              -9.8263 (HOMO)
       162                         -0.2835409              -7.7155 (LUMO)
       163                         -0.2555974              -6.9552
       164                         -0.2467456              -6.7143
       165                         -0.2448802              -6.6635
       166                         -0.2429470              -6.6109
       167                         -0.2426888              -6.6039
       168                         -0.2343509              -6.3770
       169                         -0.2315219              -6.3000
       170                         -0.2279931              -6.2040
       171                         -0.2274098              -6.1881
       172                         -0.2196765              -5.9777
       ...                                ...                  ...
       319                          1.1696721              31.8284
      -------------------------------------------------------------
                  HL-Gap            0.0775702 Eh            2.1108 eV

     #   Z          covCN         q      C6AA      α(0)
     1   6 C        3.762    -0.106    22.569     6.772
     2   6 C        3.903     0.026    20.087     6.371
     3   6 C        3.762    -0.106    22.566     6.772
     4   6 C        3.761    -0.108    22.616     6.779
     5   6 C        2.974     0.012    27.742     8.640
     6   6 C        2.926    -0.034    28.850     8.809
     7   6 C        2.924    -0.034    28.851     8.809
     8   6 C        2.978     0.004    27.923     8.668
     9   6 C        2.974     0.019    27.579     8.614
    10   6 C        2.927    -0.055    29.362     8.886
    11   6 C        2.915     0.072    26.387     8.423
    12   7 N        2.803    -0.045    22.106     6.983
    13   6 C        3.073     0.046    26.896     8.503
    14   6 C        2.908    -0.051    29.261     8.870
    15   6 C        2.929    -0.037    28.931     8.821
    16   6 C        2.977     0.001    28.005     8.681
    17   6 C        2.977     0.011    27.771     8.644
    18   6 C        2.925    -0.035    28.866     8.811
    19   6 C        2.918    -0.030    28.752     8.793
    20   6 C        2.920    -0.032    28.793     8.799
    21   6 C        2.919    -0.030    28.739     8.791
    22   6 C        2.925    -0.034    28.852     8.809
    23   6 C        2.918    -0.036    28.907     8.817
    24   6 C        3.065    -0.014    28.302     8.724
    25   6 C        3.065    -0.015    28.311     8.725
    26   6 C        2.918    -0.036    28.894     8.815
    27   6 C        2.977     0.003    27.961     8.674
    28   6 C        2.978     0.011    27.760     8.643
    29   6 C        2.925    -0.035    28.864     8.810
    30   6 C        2.918    -0.030    28.752     8.793
    31   6 C        2.920    -0.032    28.796     8.800
    32   6 C        2.919    -0.030    28.739     8.791
    33   6 C        2.925    -0.034    28.845     8.808
    34   6 C        2.930    -0.034    28.848     8.808
    35   6 C        2.909    -0.044    29.097     8.845
    36   6 C        3.072     0.048    26.855     8.497
    37   6 C        2.975    -0.016    28.402     8.742
    38   6 C        1.909     0.120    28.161     8.570
    39   7 N        0.911    -0.240    26.276     7.414
    40   6 C        2.915     0.072    26.386     8.423
    41   7 N        2.803    -0.045    22.115     6.985
    42   6 C        3.072     0.046    26.897     8.504
    43   6 C        2.908    -0.051    29.269     8.871
    44   6 C        2.929    -0.037    28.927     8.820
    45   6 C        2.977     0.001    28.004     8.680
    46   6 C        2.977     0.011    27.771     8.644
    47   6 C        2.925    -0.035    28.867     8.811
    48   6 C        2.918    -0.030    28.752     8.793
    49   6 C        2.920    -0.032    28.794     8.800
    50   6 C        2.919    -0.030    28.740     8.791
    51   6 C        2.925    -0.034    28.853     8.809
    52   6 C        2.918    -0.037    28.909     8.817
    53   6 C        3.065    -0.014    28.304     8.724
    54   6 C        3.065    -0.015    28.311     8.725
    55   6 C        2.918    -0.036    28.894     8.815
    56   6 C        2.977     0.003    27.962     8.674
    57   6 C        2.978     0.011    27.760     8.643
    58   6 C        2.925    -0.035    28.864     8.811
    59   6 C        2.918    -0.030    28.752     8.793
    60   6 C        2.920    -0.032    28.796     8.800
    61   6 C        2.919    -0.030    28.740     8.791
    62   6 C        2.925    -0.034    28.845     8.808
    63   6 C        2.930    -0.034    28.850     8.809
    64   6 C        2.909    -0.044    29.100     8.846
    65   6 C        3.073     0.048    26.855     8.497
    66   6 C        2.926    -0.055    29.365     8.887
    67   6 C        2.924    -0.034    28.859     8.810
    68   6 C        2.924    -0.038    28.953     8.824
    69   1 H        0.925     0.035     2.523     2.484
    70   1 H        0.925     0.037     2.485     2.465
    71   1 H        0.925     0.040     2.455     2.450
    72   1 H        0.925     0.035     2.523     2.484
    73   1 H        0.925     0.037     2.485     2.465
    74   1 H        0.925     0.040     2.454     2.450
    75   1 H        0.925     0.037     2.494     2.470
    76   1 H        0.925     0.037     2.495     2.470
    77   1 H        0.925     0.038     2.472     2.459
    78   1 H        0.926     0.034     2.534     2.489
    79   1 H        0.926     0.031     2.576     2.510
    80   1 H        0.926     0.050     2.325     2.384
    81   1 H        0.926     0.025     2.660     2.551
    82   1 H        0.926     0.033     2.542     2.493
    83   1 H        0.926     0.029     2.606     2.524
    84   1 H        0.926     0.028     2.618     2.530
    85   1 H        0.926     0.028     2.612     2.527
    86   1 H        0.926     0.029     2.599     2.521
    87   1 H        0.926     0.032     2.565     2.504
    88   1 H        0.926     0.036     2.499     2.472
    89   1 H        0.926     0.036     2.497     2.471
    90   1 H        0.926     0.029     2.598     2.520
    91   1 H        0.926     0.028     2.618     2.530
    92   1 H        0.926     0.028     2.617     2.530
    93   1 H        0.926     0.029     2.600     2.522
    94   1 H        0.926     0.033     2.538     2.491
    95   1 H        0.926     0.036     2.501     2.473
    96   1 H        0.926     0.021     2.715     2.577
    97   1 H        0.926     0.026     2.638     2.540
    98   1 H        0.926     0.033     2.539     2.492
    99   1 H        0.926     0.029     2.604     2.524
   100   1 H        0.926     0.028     2.618     2.530
   101   1 H        0.926     0.028     2.612     2.527
   102   1 H        0.926     0.029     2.600     2.522
   103   1 H        0.926     0.032     2.565     2.504
   104   1 H        0.926     0.036     2.499     2.472
   105   1 H        0.926     0.036     2.497     2.471
   106   1 H        0.926     0.029     2.598     2.520
   107   1 H        0.926     0.028     2.619     2.531
   108   1 H        0.926     0.028     2.617     2.530
   109   1 H        0.926     0.029     2.601     2.522
   110   1 H        0.926     0.033     2.539     2.492
   111   1 H        0.926     0.036     2.504     2.474
   112   1 H        0.926     0.021     2.723     2.581
   113   1 H        0.926     0.050     2.324     2.384
   114   1 H        0.926     0.032     2.563     2.503
   115   1 H        0.926     0.040     2.443     2.444

molecular dipole:
                 x           y           z       tot (Debye)
 q only:        0.066      -1.687      -1.064
   full:        0.089      -2.113      -1.280       6.283

 projected vibrational frequencies (cm⁻¹)
eigval :       -0.00    -0.00    -0.00     0.00     0.00     0.00
eigval :        7.93     8.39     9.87    13.19    14.73    22.30
eigval :       31.52    36.13    37.75    38.80    39.73    39.83
eigval :       42.41    43.91    53.14    58.01    58.79    63.93
eigval :       67.16    77.46    80.47    89.11    92.98   108.69
eigval :      118.64   119.58   123.42   134.44   149.55   152.95
eigval :      157.14   158.72   174.80   182.90   185.01   203.75
eigval :      212.29   220.28   221.81   231.41   241.85   251.39
eigval :      252.38   259.95   264.69   283.88   286.83   293.12
eigval :      299.15   309.50   314.71   316.82   332.67   339.33
eigval :      344.51   350.49   371.18   372.44   372.77   373.05
eigval :      373.27   377.08   381.71   391.21   395.99   396.26
eigval :      397.59   399.00   424.47   431.05   433.41   436.28
eigval :      451.13   466.31   475.13   475.54   486.53   490.15
eigval :      500.36   502.74   503.09   527.67   530.47   541.28
eigval :      555.64   557.99   568.90   569.16   574.67   587.01
eigval :      587.08   590.42   591.67   601.03   602.54   608.45
eigval :      614.99   617.07   619.35   624.90   625.17   633.05
eigval :      648.47   659.27   669.30   669.99   672.33   672.71
eigval :      684.42   685.58   685.72   690.30   705.67   707.10
eigval :      707.38   719.74   735.30   742.27   746.07   753.42
eigval :      758.10   758.63   759.07   768.62   812.78   814.93
eigval :      822.78   823.69   824.17   828.80   862.37   864.46
eigval :      865.22   869.79   870.89   873.34   873.59   875.16
eigval :      879.14   880.31   880.90   882.36   886.23   895.10
eigval :      900.63   901.51   901.95   902.00   904.86   906.39
eigval :      908.94   911.80   913.85   916.32   918.56   930.14
eigval :      930.54   930.66   930.73   930.74   932.21   932.24
eigval :      932.32   932.42   939.19   960.95   963.17   963.92
eigval :      972.51   972.58   981.57   982.32  1011.26  1027.45
eigval :     1028.66  1035.33  1035.53  1047.32  1072.32  1072.52
eigval :     1073.46  1075.90  1086.54  1086.97  1087.22  1087.27
eigval :     1096.00  1121.86  1122.02  1122.07  1122.17  1126.81
eigval :     1146.08  1154.40  1157.74  1162.17  1169.22  1182.64
eigval :     1182.64  1182.74  1182.81  1190.01  1195.06  1201.29
eigval :     1201.47  1202.96  1203.66  1214.50  1219.50  1219.89
eigval :     1222.51  1223.33  1225.15  1227.44  1234.60  1238.93
eigval :     1241.47  1277.76  1280.21  1280.98  1281.90  1282.00
eigval :     1282.32  1282.41  1283.33  1291.22  1296.38  1306.28
eigval :     1308.33  1311.07  1315.02  1319.09  1319.41  1319.46
eigval :     1321.21  1323.17  1337.59  1348.20  1348.30  1359.41
eigval :     1361.03  1394.30  1404.14  1406.61  1408.16  1409.21
eigval :     1409.56  1422.88  1430.22  1431.12  1431.18  1433.47
eigval :     1433.72  1439.36  1444.03  1455.09  1461.81  1462.88
eigval :     1468.27  1469.14  1491.66  1493.76  1494.31  1495.00
eigval :     1495.41  1497.80  1497.85  1503.54  1508.42  1514.70
eigval :     1519.26  1526.18  1562.70  1566.16  1568.07  1570.02
eigval :     1576.70  1577.30  1583.18  1583.23  1585.05  1585.34
eigval :     1595.31  1595.67  1598.59  1598.93  1604.07  1604.17
eigval :     1604.93  1615.07  1616.04  2361.95  3024.94  3026.55
eigval :     3028.47  3031.55  3033.66  3036.73  3040.31  3047.61
eigval :     3051.22  3069.11  3069.14  3069.18  3069.23  3071.58
eigval :     3071.67  3071.71  3071.79  3074.79  3076.37  3077.56
eigval :     3078.25  3079.51  3079.54  3079.65  3079.68  3080.41
eigval :     3082.59  3083.55  3083.59  3084.39  3085.05  3089.51
eigval :     3089.64  3090.21  3090.35  3090.95  3090.99  3091.14
eigval :     3091.54  3091.56  3093.11  3093.39  3094.32  3095.41
eigval :     3102.96  3103.77  3115.31

   temp. (K)  partition function   enthalpy   heat capacity  entropy
                                   cal/mol     cal/K/mol   cal/K/mol   J/K/mol
 298.15  VIB  0.718E+28            33867.426    208.103    213.762
         ROT  0.306E+09              888.752      2.981     41.811
         INT  0.220E+37            34756.178    211.084    255.573
         TR   0.248E+29             1481.254      4.968     46.146
         TOT                       36237.4318   216.0520   301.7189  1262.3921

       T/K    H(0)-H(T)+PV         H(T)/Eh          T*S/Eh         G(T)/Eh
   ------------------------------------------------------------------------
    298.15    0.577480E-01    0.959463E+00    0.143356E+00    0.816106E+00
   ------------------------------------------------------------------------

         :::::::::::::::::::::::::::::::::::::::::::::::::::::
         ::                  THERMODYNAMIC                  ::
         :::::::::::::::::::::::::::::::::::::::::::::::::::::
         :: total free energy        -171.159520015027 Eh   ::
         ::.................................................::
         :: total energy             -171.975626266587 Eh   ::
         :: zero point energy           0.901714635645 Eh   ::
         :: G(RRHO) w/o ZPVE           -0.085608384085 Eh   ::
         :: G(RRHO) contrib.            0.816106251560 Eh   ::
         :::::::::::::::::::::::::::::::::::::::::::::::::::::

           -------------------------------------------------
          | TOTAL ENERGY             -171.975626266587 Eh   |
          | TOTAL ENTHALPY           -171.016163607513 Eh   |
          | TOTAL FREE ENERGY        -171.159520015027 Eh   |
          | GRADIENT NORM               0.000071591149 Eh/α |
          | HOMO-LUMO GAP               2.110791959165 eV   |
           -------------------------------------------------

 * finished run on 2025/07/20 at 05:04:57.895
