   * xtb version 6.7.1 (edcfbbe) compiled by 'albert@albert-system' on 2024-07-22

   ID    Z sym.   atoms
    1    6 C      1-11, 13-38, 40, 42-68
    2    7 N      12, 39, 41
    3    1 H      69-115

          program call               : xtb data2507/gas/2PCzBN-tPh/2PCzBN-tPh_gas_S0_finalOpt.xtbopt.xyz --gfn 2 --spinpol --tblite --uhf 2 --ohess vtight --parallel 40 --molden --ceasefiles --namespace data2507/gas/2PCzBN-tPh/2PCzBN-tPh_gas_T1_preOpt
 * total energy  :  -171.8808538 Eh     change       -0.4051287E-07 Eh
 * total energy  :  -171.8845770 Eh     change       -0.3723164E-02 Eh
 * total energy  :  -171.8865814 Eh     change       -0.2004425E-02 Eh
 * total energy  :  -171.8868948 Eh     change       -0.3134113E-03 Eh
 * total energy  :  -171.8871813 Eh     change       -0.2864736E-03 Eh
 * total energy  :  -171.8873665 Eh     change       -0.1851466E-03 Eh
 * total energy  :  -171.8875523 Eh     change       -0.1858432E-03 Eh
 * total energy  :  -171.8876986 Eh     change       -0.1463026E-03 Eh
 * total energy  :  -171.8878020 Eh     change       -0.1034052E-03 Eh
 * total energy  :  -171.8878665 Eh     change       -0.6451458E-04 Eh
 * total energy  :  -171.8884283 Eh     change       -0.9107891E-06 Eh
 * total energy  :  -171.8884291 Eh     change       -0.8422826E-06 Eh
 * total energy  :  -171.8884302 Eh     change       -0.1087383E-05 Eh
 * total energy  :  -171.8884314 Eh     change       -0.1181445E-05 Eh
 * total energy  :  -171.8884326 Eh     change       -0.1238048E-05 Eh
 * total energy  :  -171.8884339 Eh     change       -0.1298113E-05 Eh
 * total energy  :  -171.8884339 Eh     change        0.1817048E-07 Eh
 * total energy  :  -171.8884339 Eh     change        0.1517861E-08 Eh
 * total energy  :  -171.8884340 Eh     change       -0.3284447E-07 Eh
   *** GEOMETRY OPTIMIZATION CONVERGED AFTER 70 ITERATIONS ***

 final structure:
================
115
 xtb: 6.7.1 (edcfbbe)
C            1.50589318550757       -7.93546083477270       -4.62369129570911
C            0.32509042579449       -7.88649472816863       -3.64242158875087
C            0.55289929912362       -8.89951580948839       -2.50994444297153
C           -0.94099520242903       -8.29371779795064       -4.40092566177806
C            0.22841345978741       -6.49558279170222       -3.04604427616772
C            1.31655903523256       -5.96012356324377       -2.34670040304524
C            1.28050138028056       -4.70707664683577       -1.79120077404387
C            0.13220335771056       -3.88755966181669       -1.88216692691443
C            0.08078497310660       -2.59076567843968       -1.28258804060358
C            1.26633085316541       -1.87233043109521       -0.95381072741006
C            1.23732774371620       -0.62394600579292       -0.40911534530424
N            2.42757973000457        0.04378224886613       -0.09470520081208
C            3.46106090484021       -0.47214244124806        0.65471214860906
C            3.58341310217285       -1.71543535520164        1.26137538718954
C            4.73475245041217       -1.97695171468267        1.97470796936926
C            5.75811375785021       -1.02822552044032        2.11056195661222
C            6.96919596302645       -1.35562348906350        2.87341968237601
C            7.56290946234900       -2.61208396419408        2.76234205003957
C            8.70619094855530       -2.91683229969063        3.47632499656188
C            9.27362767582847       -1.97528453416315        4.31890288443120
C            8.69087436792949       -0.72458734885420        4.44020793578525
C            7.55136665216990       -0.41528969308297        3.72218295401849
C            5.61460189646902        0.22832821442253        1.52519056926634
C            4.47214202499842        0.50822428660740        0.79905048725649
C            4.01080919932581        1.67282419973681        0.08850984282698
C            4.55128633456171        2.92463873068275       -0.13785418642530
C            3.83347399366447        3.84679295443674       -0.89705415188234
C            4.37298057634894        5.19105891396250       -1.13541277120587
C            5.72709082922246        5.37888316701882       -1.40838817633315
C            6.23055408935009        6.64579042303962       -1.63503470019755
C            5.39287762729551        7.74782690469787       -1.58571332125985
C            4.04648609259460        7.57397274155179       -1.31033571909347
C            3.53911953922042        6.30753690751443       -1.09059488116059
C            2.59522238874304        3.48163866078044       -1.44402565444757
C            2.04688940587636        2.23354714296943       -1.24273353345516
C            2.74472124860704        1.33531545016269       -0.44619367933013
C           -0.01320950919606        0.02509167943006       -0.09028900450433
C           -0.05752258310147        1.16519517415790        0.68313287987876
N           -0.09377189192994        2.13415459845999        1.32205817370897
C           -1.21324317573237       -0.69074934357508       -0.45295580520371
N           -2.44871973995576       -0.10232864236978       -0.14846581562570
C           -3.45227261685896       -0.68366770929503        0.59349655678051
C           -3.50438143727554       -1.93752604871639        1.18851740180031
C           -4.64007045080114       -2.27027789649396        1.89726432359069
C           -5.71600183732616       -1.38272498841012        2.03972766583309
C           -6.90551932347220       -1.78410223151590        2.80118688089063
C           -7.42683953011097       -3.07156448696579        2.68211297615601
C           -8.54893864391436       -3.44617251730211        3.39648376478701
C           -9.16684248556890       -2.54469164953171        4.24736956951162
C           -8.65624061698915       -1.26360179016708        4.37641074595699
C           -7.53824009659615       -0.88459668972353        3.65799256438843
C           -5.64492952839960       -0.11590305121133        1.46331756907628
C           -4.51922396383913        0.23510001954901        0.74187456261434
C           -4.12451829214330        1.43015218627137        0.04209515272796
C           -4.73612379492391        2.65021642894919       -0.17640261661719
C           -4.07001754705241        3.61938161886513       -0.92404904936690
C           -4.68597068935345        4.93225792671098       -1.15178250699519
C           -6.04820826782275        5.04391317180406       -1.42632818630990
C           -6.62419405558299        6.28166953132698       -1.64095045369577
C           -5.85222827422867        7.43003042426900       -1.57811396989948
C           -4.49844829571343        7.33186808884859       -1.30158364758666
C           -3.91862983386102        6.09488293756809       -1.09364191540411
C           -2.80998041648745        3.33196149450871       -1.46781359401217
C           -2.19049111321482        2.11638975256788       -1.27424433791906
C           -2.83865788823795        1.17163304138684       -0.48947485715795
C           -1.15408170498761       -1.92980194652250       -1.01560406128342
C           -0.96121455041076       -4.43806458984021       -2.58608643131787
C           -0.90893007374293       -5.69210010021899       -3.14584689122700
H            1.36544253999295       -7.20396029435491       -5.41692397953301
H            2.44633811262837       -7.71975401898105       -4.12443420716897
H            1.57839956206793       -8.92368329756924       -5.07338394531334
H           -0.27320279233929       -8.86391235249852       -1.80255591150969
H            1.47212553313512       -8.68863213056652       -1.97037161491697
H            0.61800963122600       -9.90718288166783       -2.91539996300375
H           -1.80481253026233       -8.31211781823461       -3.74038626281482
H           -1.13756712528360       -7.61314933516553       -5.22630668597784
H           -0.81213824731502       -9.29299492179279       -4.81239163139586
H            2.21713526183448       -6.54524720749305       -2.22878579572384
H            2.14303604875370       -4.36281476675205       -1.24076759685147
H            2.22729185108174       -2.29463844028464       -1.20317663442844
H            2.79631072927878       -2.45079648122142        1.19085216144086
H            4.84217975245264       -2.93198518973770        2.46685369942071
H            7.13644086094720       -3.34500707285406        2.09293799264307
H            9.15880338914621       -3.89255010763231        3.37415430402756
H           10.16553664531906       -2.21522852129604        4.87852655191605
H            9.12592676194584        0.01209771752384        5.09993546686095
H            7.09086038357793        0.55515557934604        3.83683574309528
H            6.39481624705654        0.96799161621681        1.62133488735408
H            5.50614711668634        3.19286276761693        0.28823638787345
H            6.38244759538876        4.52188533070431       -1.46673590613603
H            7.28076917121800        6.77514882318190       -1.85338410322153
H            5.78787662212087        8.73767664224931       -1.76042367624717
H            3.38999548138901        8.43076837496086       -1.26440531285647
H            2.49281622365164        6.17920974430386       -0.85540803333938
H            2.07074781867070        4.19253964657354       -2.06450343090489
H            1.10689350652179        1.96461670209447       -1.69770160704676
H           -2.67784572007107       -2.62749921586272        1.11153941871930
H           -4.69329453642293       -3.23423759173385        2.38069811581279
H           -6.96077290208869       -3.77410085418703        2.00655071038143
H           -8.94534334716612       -4.44541338107418        3.28827405571437
H          -10.04188401040523       -2.83930768377980        4.80752051679571
H           -9.13076125557552       -0.55776901239014        5.04263643860421
H           -7.13349159090110        0.10969289022685        3.77863710190813
H           -6.46691805326624        0.57655669638850        1.56305908091589
H           -5.70681277471333        2.85850108044008        0.24742672214333
H           -6.65256741497881        4.15096408053635       -1.49511343112007
H           -7.67982043169405        6.35197708669938       -1.86025905897550
H           -6.30394253725488        8.39703041050160       -1.74314245440151
H           -3.89301208389242        8.22488531482622       -1.24525079632740
H           -2.86708945165196        6.02529796201477       -0.85712959355978
H           -2.32483880719832        4.07789234362814       -2.07911879407843
H           -1.23372225301138        1.90716385022818       -1.72579714487769
H           -2.08276822981394       -2.42525130973216       -1.25139990316133
H           -1.85838371640923       -3.85355661667622       -2.72267925332918
H           -1.77809151040108       -6.04439874038479       -3.67830009210845

 projected vibrational frequencies (cm⁻¹)
eigval :       -0.00     0.00     0.00     0.00     0.00     0.00
eigval :        7.46     7.64     9.57    12.71    15.41    21.12
eigval :       32.44    35.57    37.99    38.40    39.59    40.15
eigval :       42.93    44.33    53.06    57.03    58.69    60.81
eigval :       63.98    72.44    81.96    88.65    93.49   110.68
eigval :      116.15   119.20   125.76   133.11   145.85   150.81
eigval :      153.73   154.91   173.10   179.52   183.30   197.61
eigval :      212.42   219.64   220.48   231.18   233.81   247.32
eigval :      249.64   251.67   262.67   281.76   286.88   291.01
eigval :      295.03   308.85   311.59   318.36   328.17   337.77
eigval :      342.65   346.14   369.82   370.38   371.50   372.16
eigval :      372.37   373.42   380.58   387.62   390.08   391.89
eigval :      394.71   395.96   402.64   419.61   431.57   433.78
eigval :      435.99   446.40   464.52   475.37   475.73   487.25
eigval :      489.82   494.37   499.10   501.31   504.33   525.80
eigval :      540.45   555.12   555.79   567.75   575.08   577.68
eigval :      582.18   586.66   586.73   591.73   593.58   601.57
eigval :      607.80   609.61   611.90   618.86   624.52   624.80
eigval :      630.45   640.82   666.43   668.78   670.10   671.39
eigval :      672.17   681.31   683.37   688.29   688.44   708.06
eigval :      708.42   717.44   723.41   738.42   739.92   751.61
eigval :      757.12   758.00   758.39   764.68   795.69   807.70
eigval :      812.21   822.16   822.76   824.19   828.50   837.34
eigval :      857.68   861.62   864.59   867.21   869.16   871.00
eigval :      871.87   877.26   878.44   879.12   879.65   881.59
eigval :      900.67   901.59   902.30   902.43   902.68   904.25
eigval :      906.50   907.86   911.24   914.76   915.36   917.75
eigval :      926.57   930.41   930.49   930.55   931.05   931.83
eigval :      931.86   932.03   932.15   958.67   961.91   962.45
eigval :      971.23   971.35   979.78   980.69   990.83  1025.13
eigval :     1025.33  1032.63  1034.31  1034.63  1046.39  1068.21
eigval :     1068.30  1069.64  1070.32  1085.63  1085.75  1086.44
eigval :     1086.47  1110.68  1121.93  1122.24  1122.55  1122.69
eigval :     1134.77  1140.97  1146.22  1150.43  1162.52  1181.48
eigval :     1181.90  1182.17  1182.33  1182.54  1183.76  1199.36
eigval :     1200.18  1200.72  1201.99  1207.27  1213.40  1218.98
eigval :     1220.45  1221.62  1223.38  1226.94  1232.19  1238.57
eigval :     1242.00  1246.62  1277.21  1278.33  1281.01  1281.12
eigval :     1281.60  1281.62  1284.59  1288.41  1290.29  1290.92
eigval :     1296.99  1302.17  1312.67  1319.58  1319.69  1319.81
eigval :     1321.11  1328.08  1331.13  1339.58  1341.01  1348.71
eigval :     1350.27  1360.47  1366.22  1387.71  1401.78  1403.90
eigval :     1407.13  1408.57  1414.57  1427.31  1427.85  1429.23
eigval :     1430.16  1430.30  1431.08  1434.41  1450.14  1450.34
eigval :     1465.91  1466.59  1468.39  1484.30  1487.38  1487.45
eigval :     1491.33  1491.48  1491.84  1494.38  1501.03  1503.17
eigval :     1505.95  1514.07  1520.25  1551.25  1554.40  1557.86
eigval :     1565.92  1566.37  1568.29  1568.49  1569.99  1578.62
eigval :     1578.72  1579.26  1579.35  1588.82  1592.04  1598.43
eigval :     1598.51  1604.48  1606.58  2209.91  3020.23  3021.29
eigval :     3026.18  3028.42  3030.05  3034.85  3037.34  3045.88
eigval :     3049.24  3070.46  3071.43  3071.53  3071.91  3071.95
eigval :     3073.59  3073.63  3074.17  3074.29  3081.44  3081.67
eigval :     3081.72  3081.83  3081.91  3083.82  3084.39  3084.91
eigval :     3085.94  3086.02  3086.19  3086.37  3088.92  3089.77
eigval :     3089.85  3090.04  3092.60  3092.72  3092.94  3093.07
eigval :     3093.15  3093.78  3094.80  3095.69  3099.27  3099.77
eigval :     3100.95  3102.17  3105.14

   temp. (K)  partition function   enthalpy   heat capacity  entropy
                                   cal/mol     cal/K/mol   cal/K/mol   J/K/mol
 298.15  VIB  0.150E+29            34194.617    209.822    215.965
         ROT  0.306E+09              888.752      2.981     41.809
         INT  0.457E+37            35083.370    212.803    257.774
         TR   0.248E+29             1481.254      4.968     46.146
         TOT                       36564.6237   217.7708   303.9197  1271.6000

       T/K    H(0)-H(T)+PV         H(T)/Eh          T*S/Eh         G(T)/Eh
   ------------------------------------------------------------------------
    298.15    0.582694E-01    0.955802E+00    0.144402E+00    0.811400E+00
   ------------------------------------------------------------------------

         :::::::::::::::::::::::::::::::::::::::::::::::::::::
         ::                  THERMODYNAMIC                  ::
         :::::::::::::::::::::::::::::::::::::::::::::::::::::
         :: total free energy        -171.077034097116 Eh   ::
         ::.................................................::
         :: total energy             -171.888433964128 Eh   ::
         :: zero point energy           0.897532487372 Eh   ::
         :: G(RRHO) w/o ZPVE           -0.086132620360 Eh   ::
         :: G(RRHO) contrib.            0.811399867012 Eh   ::
         :::::::::::::::::::::::::::::::::::::::::::::::::::::

           -------------------------------------------------
          | TOTAL ENERGY             -171.888433964128 Eh   |
          | TOTAL ENTHALPY           -170.932632039862 Eh   |
          | TOTAL FREE ENERGY        -171.077034097116 Eh   |
          | GRADIENT NORM               0.000116525441 Eh/α |
           -------------------------------------------------

 * finished run on 2025/07/20 at 05:05:28.229
