   * xtb version 6.7.1 (edcfbbe) compiled by 'albert@albert-system' on 2024-07-22

   ID    Z sym.   atoms
    1    6 C      1-11, 13-38, 40, 42-68
    2    7 N      12, 39, 41
    3    1 H      69-115

          program call               : xtb data2507/gas/2PCzBN-tPh/2PCzBN-tPh.xyz --gfn 2 --ohess vtight --parallel 40 --molden --ceasefiles --namespace data2507/gas/2PCzBN-tPh/2PCzBN-tPh_gas_S0_preOpt
          :  Hamiltonian                  GFN2-xTB          :
 * total energy  :  -171.9439254 Eh     change       -0.2222947E-08 Eh
 * total energy  :  -171.9618769 Eh     change       -0.1795144E-01 Eh
 * total energy  :  -171.9664908 Eh     change       -0.4613914E-02 Eh
 * total energy  :  -171.9678730 Eh     change       -0.1382197E-02 Eh
 * total energy  :  -171.9683506 Eh     change       -0.4775916E-03 Eh
 * total energy  :  -171.9693747 Eh     change       -0.1024084E-02 Eh
 * total energy  :  -171.9697470 Eh     change       -0.3723069E-03 Eh
 * total energy  :  -171.9701116 Eh     change       -0.3646137E-03 Eh
 * total energy  :  -171.9704855 Eh     change       -0.3739080E-03 Eh
 * total energy  :  -171.9708187 Eh     change       -0.3332233E-03 Eh
 * total energy  :  -171.9738396 Eh     change       -0.7272380E-06 Eh
 * total energy  :  -171.9738401 Eh     change       -0.5004837E-06 Eh
 * total energy  :  -171.9738405 Eh     change       -0.3985218E-06 Eh
 * total energy  :  -171.9738409 Eh     change       -0.3899029E-06 Eh
 * total energy  :  -171.9738414 Eh     change       -0.4793505E-06 Eh
 * total energy  :  -171.9738420 Eh     change       -0.5598524E-06 Eh
 * total energy  :  -171.9738425 Eh     change       -0.5299556E-06 Eh
 * total energy  :  -171.9738429 Eh     change       -0.3844033E-06 Eh
 * total energy  :  -171.9738429 Eh     change       -0.1665569E-08 Eh
   *** GEOMETRY OPTIMIZATION CONVERGED AFTER 94 ITERATIONS ***

 final structure:
================
115
 xtb: 6.7.1 (edcfbbe)
C           -1.15128326015336       -8.71420055111220       -1.41417223955918
C           -0.14054772082614       -8.15310573536496       -0.41043377849790
C            1.25899902748984       -8.63431049588832       -0.81908925774261
C           -0.49357371933965       -8.69925763685944        0.98045350107604
C           -0.14484890248422       -6.63453637229428       -0.36090372377179
C           -0.97783742226876       -5.85177853809172       -1.15179252340776
C           -0.95462337896242       -4.47158853294361       -1.07438694861189
C           -0.08712272501515       -3.81742654167809       -0.20590815011652
C           -0.05790304592879       -2.35242271818419       -0.12589827922405
C            1.15029837628701       -1.67639433901696        0.02515820570389
C            1.18957241634098       -0.29295041697845        0.11337314453639
N            2.41332142518420        0.35737034753157        0.28384642024050
C            2.73583894427060        1.24072164427363        1.29896218841220
C            1.98999669955322        1.63826177867500        2.39748789585997
C            2.57735091428085        2.50449519580650        3.29665177308575
C            3.88592647830664        2.97567086728233        3.13043007375092
C            4.46802060258883        3.89978357255434        4.11556244572946
C            4.26666066279932        3.70748652215970        5.48040218349550
C            4.82220507112766        4.57351118061986        6.40358215491921
C            5.58473371014415        5.64879918612989        5.97951100373469
C            5.78977744790639        5.85115917471215        4.62500208821536
C            5.23875939530655        4.98345048443647        3.70078078576674
C            4.63518010540581        2.55354605144894        2.03964333753302
C            4.06695939641283        1.67895474447058        1.12749072682486
C            4.56589061658586        1.02575453552189       -0.05258792708825
C            5.77678975538194        1.06988081054330       -0.72443988970037
C            5.94009218440597        0.31495152510199       -1.87955354450404
C            7.21457831509375        0.34807682727288       -2.61294380579424
C            8.42744746910683        0.32430010645797       -1.92812532198806
C            9.62603243128625        0.35697839560500       -2.61589506226131
C            9.63408101337973        0.41854859560431       -3.99929771561251
C            8.43451967471240        0.44570867199124       -4.69059048838216
C            7.23507596890826        0.40867194705259       -4.00446510912285
C            4.88088652969046       -0.47267743674982       -2.34877168299603
C            3.66782245239594       -0.53557813897903       -1.69300785197810
C            3.51752845354165        0.21158960721673       -0.53494443335942
C           -0.00202767266613        0.44834618312645        0.02858690467433
C            0.02823710681371        1.85766066576591        0.10745066397658
N            0.05525263650135        3.00249064714413        0.17173712115005
C           -1.22206462737566       -0.23075083977368       -0.13639875987453
N           -2.41749892228553        0.48265981677797       -0.23788239827191
C           -3.53833378903847        0.28670328781307        0.54747073266143
C           -3.73574554994787       -0.58530529260666        1.60701473071550
C           -4.95577483535005       -0.55183407888345        2.25207592540764
C           -5.97624140487831        0.32768758037588        1.86819856510583
C           -7.26129440599180        0.32308218279652        2.58364011700895
C           -8.46160107063670        0.42852524654130        1.88452383695496
C           -9.67048528489181        0.42570594548701        2.55474407000172
C           -9.70137458566961        0.32202770881203        3.93529596209896
C           -8.51439835064460        0.21950266519840        4.64108174227235
C           -7.30482522817333        0.21774053285223        3.97191374296303
C           -5.76487107227890        1.20818120416696        0.81419416053195
C           -4.54608705953283        1.19531639513632        0.15551855602418
C           -4.00551734521959        1.96113992172857       -0.93511572449605
C           -4.52602295505106        2.95942971462846       -1.74305120195444
C           -3.74025369305575        3.48516322235731       -2.76037849250935
C           -4.26148534210414        4.55187653166023       -3.62849976067253
C           -5.57072444137753        4.50797096760168       -4.10197213360340
C           -6.05772970176668        5.50938643093095       -4.92107418334414
C           -5.24680509488176        6.57384851746538       -5.27724675250186
C           -3.94459572220366        6.62966729419371       -4.80930320252265
C           -3.45443682310111        5.62685019320214       -3.99387837118894
C           -2.44896533727253        2.98363172170505       -2.96876519792381
C           -1.91450073473662        1.98437859019331       -2.18198191601392
C           -2.69082567665577        1.49165724321867       -1.14480146368282
C           -1.23759623194923       -1.61620007930829       -0.20047518488008
C            0.75401094376341       -4.59570159209931        0.58606070655626
C            0.71872772971748       -5.97236177663647        0.50971253393629
H           -2.16579328643791       -8.42021297245800       -1.15490998265476
H           -0.92848118705056       -8.37875598148918       -2.42447208640062
H           -1.10480219939613       -9.80116617667507       -1.40464719965867
H            2.01299215413047       -8.31723947837730       -0.10402262084412
H            1.52468558526614       -8.23346823369188       -1.79518124190905
H            1.27883745533839       -9.72044543338626       -0.87519186894926
H            0.23272570569666       -8.38834459196997        1.72617265220870
H           -1.47365561766180       -8.34040081218984        1.28810632682770
H           -0.51521562149035       -9.78661679568499        0.95998455560272
H           -1.66260227795250       -6.30877900764547       -1.84718959749458
H           -1.60310424524812       -3.89543498741441       -1.71851175637107
H            2.07691549741263       -2.22718862398751        0.07799319990437
H            0.98165490601907        1.28578960982426        2.55536060374725
H            2.00450749576699        2.84476280524975        4.14611205379067
H            3.68694338340007        2.86078727631460        5.81892279713745
H            4.66181500570578        4.40814188547737        7.45936395536085
H            6.01677835470278        6.32614682478996        6.70142407032536
H            6.38000618256131        6.69111618670564        4.28785726853107
H            5.38701286401913        5.15607357041744        2.64464228081256
H            5.65710720062786        2.87938850707558        1.91753181081476
H            6.57373489014948        1.70490966038485       -0.36842952411620
H            8.42755773341342        0.26013898107873       -0.84948187877959
H           10.55878345501399        0.33237765788852       -2.07096164942960
H           10.57082800310218        0.44597214040699       -4.53620294522914
H            8.43422287328137        0.49905885427074       -5.76983364957392
H            6.30285431433018        0.44896389366257       -4.54924585323786
H            5.02546716931323       -1.06212320228491       -3.24205703023466
H            2.86343741569822       -1.14523492753065       -2.07789595797933
H           -2.96196351273210       -1.26820832942979        1.92592342224998
H           -5.13717480360641       -1.23689773258645        3.06700440846913
H           -8.44438824743944        0.49354641123380        0.80607652301921
H          -10.59345087140789        0.50278462507639        1.99816275430697
H          -10.64606545874894        0.32187557599505        4.45880805163687
H           -8.53181960634418        0.14363103509355        5.71882721413879
H           -6.38181874604793        0.15620957152017        4.53021187477379
H           -6.53017745138202        1.91379276071203        0.52865966707435
H           -5.52359235290782        3.33419057740550       -1.57078345736694
H           -6.20294831574228        3.67123958360227       -3.84141549048103
H           -7.07368562574863        5.45865527660627       -5.28580848822449
H           -5.62826719704745        7.35658795517983       -5.91636049438657
H           -3.30887176558114        7.46046274045023       -5.07973032426694
H           -2.44382803789288        5.68421207141642       -3.61663844419037
H           -1.86363892737988        3.37564561103825       -3.78692118694260
H           -0.92477115775489        1.60124405117850       -2.38086482791361
H           -2.18482719502849       -2.12076160254717       -0.31399312298622
H            1.42362338560897       -4.11868215377037        1.28699057874696
H            1.38170185649129       -6.53766272678100        1.14708608643003

          :  Hamiltonian                  GFN2-xTB          :
         :: gradient norm              0.000044463984 Eh/a0 ::
         :: HOMO-LUMO gap              2.105503349354 eV    ::
         :: SCC energy              -175.278429659959 Eh    ::
         :: -> dispersion             -0.158455042070 Eh    ::
         :: repulsion energy           3.304586776839 Eh    ::

    * Orbital Energies and Occupations

         #    Occupation            Energy/Eh            Energy/eV
      -------------------------------------------------------------
         1        2.0000           -0.6898137             -18.7708
       ...           ...                  ...                  ...
       149        2.0000           -0.4014422             -10.9238
       150        2.0000           -0.4013878             -10.9223
       151        2.0000           -0.3988335             -10.8528
       152        2.0000           -0.3984126             -10.8414
       153        2.0000           -0.3981459             -10.8341
       154        2.0000           -0.3977236             -10.8226
       155        2.0000           -0.3976119             -10.8196
       156        2.0000           -0.3897663             -10.6061
       157        2.0000           -0.3897009             -10.6043
       158        2.0000           -0.3770293             -10.2595
       159        2.0000           -0.3769096             -10.2562
       160        2.0000           -0.3618399              -9.8462
       161        2.0000           -0.3617949              -9.8449 (HOMO)
       162                         -0.2844190              -7.7394 (LUMO)
       163                         -0.2559417              -6.9645
       164                         -0.2461504              -6.6981
       165                         -0.2445479              -6.6545
       166                         -0.2424570              -6.5976
       167                         -0.2422582              -6.5922
       168                         -0.2337165              -6.3597
       169                         -0.2317337              -6.3058
       170                         -0.2282409              -6.2107
       171                         -0.2280594              -6.2058
       172                         -0.2193826              -5.9697
       ...                                ...                  ...
       319                          1.1699615              31.8363
      -------------------------------------------------------------
                  HL-Gap            0.0773758 Eh            2.1055 eV

     #   Z          covCN         q      C6AA      α(0)
     1   6 C        3.761    -0.108    22.617     6.779
     2   6 C        3.903     0.026    20.087     6.371
     3   6 C        3.762    -0.106    22.569     6.772
     4   6 C        3.762    -0.106    22.569     6.772
     5   6 C        2.974     0.012    27.738     8.639
     6   6 C        2.924    -0.038    28.952     8.824
     7   6 C        2.924    -0.034    28.859     8.810
     8   6 C        2.978     0.004    27.924     8.668
     9   6 C        2.974     0.019    27.572     8.613
    10   6 C        2.927    -0.053    29.327     8.881
    11   6 C        2.915     0.072    26.379     8.422
    12   7 N        2.804    -0.047    22.153     6.990
    13   6 C        3.072     0.048    26.856     8.497
    14   6 C        2.908    -0.045    29.122     8.849
    15   6 C        2.930    -0.034    28.841     8.807
    16   6 C        2.977     0.003    27.963     8.674
    17   6 C        2.978     0.012    27.752     8.641
    18   6 C        2.925    -0.035    28.860     8.810
    19   6 C        2.918    -0.030    28.749     8.793
    20   6 C        2.920    -0.032    28.795     8.800
    21   6 C        2.919    -0.030    28.740     8.791
    22   6 C        2.925    -0.034    28.840     8.807
    23   6 C        2.919    -0.036    28.902     8.816
    24   6 C        3.066    -0.015    28.318     8.726
    25   6 C        3.065    -0.015    28.315     8.726
    26   6 C        2.918    -0.037    28.910     8.817
    27   6 C        2.977     0.000    28.013     8.682
    28   6 C        2.977     0.011    27.771     8.644
    29   6 C        2.925    -0.035    28.861     8.810
    30   6 C        2.918    -0.030    28.746     8.792
    31   6 C        2.920    -0.032    28.795     8.800
    32   6 C        2.919    -0.030    28.747     8.792
    33   6 C        2.925    -0.035    28.860     8.810
    34   6 C        2.929    -0.037    28.931     8.821
    35   6 C        2.908    -0.051    29.277     8.872
    36   6 C        3.073     0.046    26.897     8.503
    37   6 C        2.975    -0.015    28.382     8.739
    38   6 C        1.908     0.120    28.157     8.570
    39   7 N        0.911    -0.238    26.214     7.405
    40   6 C        2.915     0.073    26.379     8.422
    41   7 N        2.804    -0.047    22.146     6.989
    42   6 C        3.073     0.046    26.899     8.504
    43   6 C        2.908    -0.051    29.277     8.872
    44   6 C        2.929    -0.037    28.932     8.821
    45   6 C        2.977     0.001    28.012     8.682
    46   6 C        2.977     0.011    27.770     8.644
    47   6 C        2.925    -0.035    28.860     8.810
    48   6 C        2.918    -0.030    28.746     8.792
    49   6 C        2.920    -0.032    28.794     8.800
    50   6 C        2.919    -0.030    28.746     8.792
    51   6 C        2.925    -0.034    28.858     8.810
    52   6 C        2.918    -0.037    28.910     8.817
    53   6 C        3.065    -0.015    28.313     8.725
    54   6 C        3.065    -0.015    28.318     8.726
    55   6 C        2.918    -0.036    28.899     8.816
    56   6 C        2.977     0.003    27.962     8.674
    57   6 C        2.978     0.011    27.760     8.642
    58   6 C        2.925    -0.035    28.866     8.811
    59   6 C        2.918    -0.030    28.755     8.793
    60   6 C        2.920    -0.032    28.798     8.800
    61   6 C        2.919    -0.030    28.739     8.791
    62   6 C        2.925    -0.034    28.846     8.808
    63   6 C        2.930    -0.034    28.842     8.807
    64   6 C        2.908    -0.045    29.118     8.848
    65   6 C        3.072     0.048    26.859     8.497
    66   6 C        2.927    -0.054    29.330     8.882
    67   6 C        2.923    -0.034    28.858     8.810
    68   6 C        2.926    -0.034    28.846     8.808
    69   1 H        0.925     0.037     2.493     2.469
    70   1 H        0.925     0.037     2.494     2.470
    71   1 H        0.925     0.038     2.470     2.458
    72   1 H        0.925     0.037     2.485     2.465
    73   1 H        0.925     0.035     2.522     2.483
    74   1 H        0.925     0.040     2.453     2.449
    75   1 H        0.925     0.037     2.485     2.465
    76   1 H        0.925     0.035     2.522     2.483
    77   1 H        0.925     0.040     2.454     2.450
    78   1 H        0.926     0.041     2.439     2.442
    79   1 H        0.926     0.032     2.563     2.503
    80   1 H        0.926     0.050     2.321     2.382
    81   1 H        0.926     0.023     2.685     2.562
    82   1 H        0.926     0.037     2.490     2.467
    83   1 H        0.926     0.029     2.601     2.522
    84   1 H        0.926     0.028     2.619     2.531
    85   1 H        0.926     0.028     2.617     2.530
    86   1 H        0.926     0.029     2.604     2.524
    87   1 H        0.926     0.032     2.559     2.501
    88   1 H        0.926     0.036     2.505     2.475
    89   1 H        0.926     0.036     2.503     2.474
    90   1 H        0.926     0.030     2.585     2.514
    91   1 H        0.926     0.028     2.609     2.526
    92   1 H        0.926     0.028     2.613     2.528
    93   1 H        0.926     0.028     2.611     2.527
    94   1 H        0.926     0.030     2.589     2.516
    95   1 H        0.926     0.033     2.544     2.494
    96   1 H        0.926     0.025     2.661     2.551
    97   1 H        0.926     0.025     2.658     2.550
    98   1 H        0.926     0.033     2.544     2.494
    99   1 H        0.926     0.030     2.587     2.515
   100   1 H        0.926     0.028     2.609     2.526
   101   1 H        0.926     0.028     2.613     2.528
   102   1 H        0.926     0.028     2.611     2.527
   103   1 H        0.926     0.030     2.589     2.516
   104   1 H        0.926     0.036     2.501     2.473
   105   1 H        0.926     0.036     2.499     2.472
   106   1 H        0.926     0.029     2.602     2.522
   107   1 H        0.926     0.028     2.621     2.532
   108   1 H        0.926     0.028     2.619     2.531
   109   1 H        0.926     0.029     2.601     2.522
   110   1 H        0.926     0.034     2.533     2.489
   111   1 H        0.926     0.037     2.495     2.470
   112   1 H        0.926     0.023     2.685     2.562
   113   1 H        0.926     0.050     2.321     2.382
   114   1 H        0.926     0.032     2.564     2.504
   115   1 H        0.926     0.034     2.532     2.488

molecular dipole:
                 x           y           z       tot (Debye)
 q only:       -0.023      -2.059      -0.125
   full:       -0.034      -2.539      -0.141       6.464

 projected vibrational frequencies (cm⁻¹)
eigval :       -0.00    -0.00    -0.00     0.00     0.00     0.00
eigval :        6.84     8.52     9.51    11.67    14.66    22.64
eigval :       34.49    35.10    36.62    37.64    39.27    39.59
eigval :       43.47    44.75    50.38    58.75    60.70    61.50
eigval :       64.97    71.75    84.54    88.88    92.58   108.96
eigval :      113.13   117.73   126.84   133.68   151.11   153.89
eigval :      159.25   163.09   174.65   180.38   187.38   208.73
eigval :      213.58   217.93   220.59   230.12   232.30   246.53
eigval :      253.10   260.54   270.53   275.52   289.72   296.81
eigval :      302.97   313.29   315.54   318.21   321.78   336.12
eigval :      341.85   349.91   372.17   372.36   372.78   373.06
eigval :      374.22   376.79   380.67   381.22   390.16   396.53
eigval :      398.08   399.22   430.57   433.36   436.97   439.65
eigval :      456.20   470.17   476.53   477.15   479.41   481.55
eigval :      500.36   502.38   504.19   522.35   538.02   540.81
eigval :      553.74   558.72   564.19   569.33   571.89   586.48
eigval :      587.04   591.63   592.32   600.89   603.22   607.50
eigval :      613.36   618.50   624.18   624.95   633.09   635.53
eigval :      636.12   662.79   667.44   668.98   672.46   673.90
eigval :      683.99   685.34   685.58   694.07   705.34   707.20
eigval :      707.26   717.98   735.31   742.96   743.11   753.68
eigval :      757.37   758.61   759.38   767.86   815.04   822.48
eigval :      822.92   824.47   824.75   828.48   862.79   863.74
eigval :      865.18   870.57   872.97   873.58   874.18   874.96
eigval :      880.06   880.70   880.94   882.71   886.08   894.79
eigval :      901.49   901.64   901.91   901.93   905.96   906.73
eigval :      911.02   911.92   912.60   914.33   918.75   930.33
eigval :      930.50   930.58   930.62   930.70   932.00   932.15
eigval :      932.21   932.45   939.27   960.98   963.17   963.95
eigval :      972.38   972.40   981.76   982.29  1011.45  1027.82
eigval :     1028.44  1035.37  1035.47  1047.12  1072.17  1072.98
eigval :     1073.17  1076.55  1086.53  1087.15  1087.27  1087.31
eigval :     1095.35  1121.84  1121.94  1122.05  1122.21  1126.69
eigval :     1145.98  1155.37  1160.71  1160.93  1169.87  1182.59
eigval :     1182.73  1182.75  1182.78  1188.60  1196.49  1201.32
eigval :     1201.52  1202.76  1204.49  1214.77  1219.79  1221.49
eigval :     1222.46  1223.03  1224.99  1227.44  1234.56  1239.57
eigval :     1241.35  1278.07  1281.10  1281.47  1282.02  1282.05
eigval :     1282.33  1282.37  1283.28  1291.66  1296.31  1307.01
eigval :     1308.01  1310.22  1314.92  1319.00  1319.41  1319.47
eigval :     1321.02  1322.85  1337.51  1347.64  1348.14  1359.58
eigval :     1361.45  1394.33  1403.77  1406.65  1408.28  1409.21
eigval :     1409.63  1422.74  1430.20  1430.96  1431.06  1433.39
eigval :     1433.79  1439.55  1444.41  1454.12  1461.78  1462.73
eigval :     1468.29  1468.84  1491.59  1493.72  1494.14  1494.88
eigval :     1495.12  1497.56  1497.70  1503.43  1508.25  1514.67
eigval :     1519.22  1526.37  1562.77  1565.91  1568.01  1570.18
eigval :     1576.66  1577.09  1583.14  1583.15  1585.01  1585.21
eigval :     1595.25  1595.33  1598.67  1598.96  1603.94  1604.01
eigval :     1604.66  1614.97  1615.67  2361.97  3025.07  3026.67
eigval :     3028.54  3031.59  3033.73  3036.71  3040.24  3047.58
eigval :     3051.17  3068.72  3069.08  3069.60  3069.63  3070.92
eigval :     3070.95  3071.32  3071.88  3075.28  3075.48  3075.53
eigval :     3077.71  3078.75  3078.88  3079.45  3079.48  3079.61
eigval :     3080.02  3083.03  3083.08  3083.52  3084.59  3088.76
eigval :     3089.25  3090.14  3090.17  3090.62  3090.94  3091.05
eigval :     3091.21  3091.32  3092.70  3092.89  3094.43  3094.93
eigval :     3101.17  3101.70  3115.39

   temp. (K)  partition function   enthalpy   heat capacity  entropy
                                   cal/mol     cal/K/mol   cal/K/mol   J/K/mol
 298.15  VIB  0.104E+29            33886.495    208.023    214.173
         ROT  0.310E+09              888.752      2.981     41.838
         INT  0.322E+37            34775.247    211.004    256.011
         TR   0.248E+29             1481.254      4.968     46.146
         TOT                       36256.5011   215.9724   302.1566  1264.2231

       T/K    H(0)-H(T)+PV         H(T)/Eh          T*S/Eh         G(T)/Eh
   ------------------------------------------------------------------------
    298.15    0.577784E-01    0.959436E+00    0.143564E+00    0.815871E+00
   ------------------------------------------------------------------------

         :::::::::::::::::::::::::::::::::::::::::::::::::::::
         ::                  THERMODYNAMIC                  ::
         :::::::::::::::::::::::::::::::::::::::::::::::::::::
         :: total free energy        -171.157971652321 Eh   ::
         ::.................................................::
         :: total energy             -171.973842883121 Eh   ::
         :: zero point energy           0.901657161163 Eh   ::
         :: G(RRHO) w/o ZPVE           -0.085785930363 Eh   ::
         :: G(RRHO) contrib.            0.815871230800 Eh   ::
         :::::::::::::::::::::::::::::::::::::::::::::::::::::

           -------------------------------------------------
          | TOTAL ENERGY             -171.973842883121 Eh   |
          | TOTAL ENTHALPY           -171.014407309762 Eh   |
          | TOTAL FREE ENERGY        -171.157971652321 Eh   |
          | GRADIENT NORM               0.000044425560 Eh/α |
          | HOMO-LUMO GAP               2.105503095975 eV   |
           -------------------------------------------------

 * finished run on 2025/07/20 at 04:50:03.637
