   * xtb version 6.7.1 (edcfbbe) compiled by 'albert@albert-system' on 2024-07-22

   ID    Z sym.   atoms
    1    6 C      1-11, 13-38, 40, 42-68
    2    7 N      12, 39, 41
    3    1 H      69-115

          program call               : xtb data2507/gas/2PCzBN-tPh/2PCzBN-tPh_gas_T1_crest.xyz --gfn 2 --spinpol --tblite --uhf 2 --ohess vtight --parallel 40 --molden --ceasefiles --namespace data2507/gas/2PCzBN-tPh/2PCzBN-tPh_gas_T1_finalOpt
 * total energy  :  -171.8883968 Eh     change        0.6860532E-07 Eh
 * total energy  :  -171.8884259 Eh     change       -0.2906076E-04 Eh
 * total energy  :  -171.8884382 Eh     change       -0.1237161E-04 Eh
 * total energy  :  -171.8884405 Eh     change       -0.2320510E-05 Eh
 * total energy  :  -171.8884419 Eh     change       -0.1319418E-05 Eh
 * total energy  :  -171.8884429 Eh     change       -0.1082757E-05 Eh
 * total energy  :  -171.8884441 Eh     change       -0.1157200E-05 Eh
 * total energy  :  -171.8884455 Eh     change       -0.1415665E-05 Eh
 * total energy  :  -171.8884464 Eh     change       -0.9208499E-06 Eh
 * total energy  :  -171.8884471 Eh     change       -0.6888772E-06 Eh
 * total energy  :  -171.8884529 Eh     change       -0.4909312E-06 Eh
 * total energy  :  -171.8884531 Eh     change       -0.2469019E-06 Eh
 * total energy  :  -171.8884533 Eh     change       -0.2236538E-06 Eh
 * total energy  :  -171.8884535 Eh     change       -0.2086239E-06 Eh
 * total energy  :  -171.8884537 Eh     change       -0.1535959E-06 Eh
 * total energy  :  -171.8884539 Eh     change       -0.1578186E-06 Eh
 * total energy  :  -171.8884540 Eh     change       -0.1306751E-06 Eh
 * total energy  :  -171.8884541 Eh     change       -0.1332027E-06 Eh
 * total energy  :  -171.8884541 Eh     change       -0.1681116E-08 Eh
   *** GEOMETRY OPTIMIZATION CONVERGED AFTER 31 ITERATIONS ***

 final structure:
================
115
 xtb: 6.7.1 (edcfbbe)
C            1.19515538089856       -8.70347525027587       -3.41912963597169
C           -0.11270112213698       -7.92625867130355       -3.59108146415676
C           -1.23742187208844       -8.72620057519347       -2.91643988759798
C           -0.40005338752766       -7.79981005368736       -5.09493935537869
C           -0.05457750257157       -6.53998405862829       -2.97940345046837
C            1.07234344676343       -6.02950112637143       -2.33294108493682
C            1.08800240672306       -4.76533918492891       -1.79427967215168
C           -0.03659083203850       -3.91193114227147       -1.85399740984328
C           -0.02832890339251       -2.60738943745816       -1.27002142594784
C            1.18892970395040       -1.93172139817006       -0.96458791821102
C            1.21615160618792       -0.68047698400336       -0.42676286806170
N            2.43591302602017       -0.05930810393822       -0.12945298835922
C            3.45336182686754       -0.61049509142909        0.61678928087097
C            3.53162238555293       -1.85450343889927        1.22918308473899
C            4.67549842370235       -2.15547528796438        1.93894796490776
C            5.73430354492357       -1.24519341615945        2.06550950568225
C            6.93410356950120       -1.61315979757742        2.82772349789607
C            7.48008638850012       -2.89165154490140        2.72362170713756
C            8.61177820037365       -3.23488861745139        3.43861931912387
C            9.21492806366836       -2.31036015329824        4.27522174703480
C            8.67987566677402       -1.03785767787646        4.38927738228521
C            7.55214489355775       -0.69023560698404        3.67019668905421
C            5.63613475553040        0.01242139042305        1.47310890383662
C            4.50173527602952        0.33142982638772        0.75045109829334
C            4.08080040463773        1.50927467364499        0.03660661605102
C            4.66629310588897        2.73912087385424       -0.19799685133059
C            3.97872206404369        3.68477210146759       -0.95631551584190
C            4.56596288417579        5.00762938607717       -1.20152784492507
C            5.92485783365309        5.14525812478212       -1.48059982333836
C            6.47328946126555        6.39239569636578       -1.71247712072317
C            5.67663164290370        7.52441023378135       -1.66258966839967
C            4.32591980118060        7.40047367708737       -1.38146397977306
C            3.77361458139853        6.15395027555596       -1.15632151493903
C            2.72451271167706        3.36402808455605       -1.49474118735217
C            2.13114530739215        2.13811722302371       -1.28515119493800
C            2.79962591758214        1.21753415302782       -0.48896860968768
C           -0.00289117495093        0.01931834121348       -0.09565252064119
C            0.00853478172826        1.16399957137202        0.67241016095491
N            0.02037686095037        2.13658427160193        1.30654914373067
C           -1.23476468466334       -0.64971672216631       -0.44027629879077
N           -2.44187056387724       -0.00828277421189       -0.12982787790317
C           -3.46527090752334       -0.54315890130685        0.62007785484354
C           -3.56814434964490       -1.79127753421742        1.22057899149637
C           -4.71409883198782       -2.07279883497711        1.93500857855980
C           -5.75079847328523       -1.13984617739843        2.07811533493167
C           -6.95432808143379       -1.48808335864327        2.84369640983607
C           -7.53015588651428       -2.75255473621624        2.72945980307327
C           -8.66591264739390       -3.07691899277794        3.44681920064659
C           -9.24340125356051       -2.14738235518381        4.29590123976696
C           -8.67844403387169       -0.88884281634437        4.42024978402210
C           -7.54658421215151       -0.55993512303235        3.69885821555239
C           -5.62766567789591        0.12105684187744        1.49756218419635
C           -4.49100811389376        0.42114070011101        0.77034518942724
C           -4.04901333762257        1.59577711525085        0.06432077722621
C           -4.60808098126601        2.84085270997036       -0.15404760221927
C           -3.90492428362130        3.77792233305717       -0.90861852503131
C           -4.46288832951071        5.11678071238899       -1.13447705592184
C           -5.82062414717007        5.28967610564548       -1.39923463369117
C           -6.34151558444353        6.55203651145651       -1.61138545194980
C           -5.51791051630189        7.66433030421882       -1.55579210117482
C           -4.16795288060524        7.50527787987679       -1.28907299020818
C           -3.64325316335258        6.24352541263911       -1.08362899674942
C           -2.66287273453619        3.43360142109361       -1.46059796550477
C           -2.09603009677659        2.19260599901614       -1.26726496723942
C           -2.77893539131222        1.27994021154307       -0.47404081279370
C           -1.23194559476216       -1.89466791323300       -0.99294596384862
C           -1.17204151503441       -4.43902407468485       -2.51092170865302
C           -1.17264559767441       -5.69988489183413       -3.04922390825588
H            2.02208349011457       -8.18971566440537       -3.90410060881979
H            1.43086777953524       -8.84465348513686       -2.36673438477556
H            1.09616073757714       -9.68633276648984       -3.87586683731617
H           -2.20315360763747       -8.24935871118287       -3.05937839377926
H           -1.05185500895922       -8.80649692486184       -1.84721258637153
H           -1.28710280106323       -9.72929742009689       -3.33518035850943
H           -1.35126151629860       -7.30714951673369       -5.27634129066552
H            0.38232455712551       -7.21880144072357       -5.57906005639418
H           -0.43351475352451       -8.78561491831522       -5.55437694234313
H            1.96312507592568       -6.63002067852725       -2.23803127897456
H            1.98098812916175       -4.44039976485062       -1.28218192247982
H            2.12974506495221       -2.39173195669208       -1.22343200649448
H            2.71706708346189       -2.56003555586343        1.16595742454725
H            4.74904962280427       -3.11124514470458        2.43586047361725
H            7.02564011538612       -3.61201082936951        2.05900479396289
H            9.02725449454926       -4.22754714627943        3.34205476777096
H           10.09750905263773       -2.58042793944530        4.83590475384392
H            9.14288800802857       -0.31413333582844        5.04430248921437
H            7.12851663352392        0.29749728513646        3.77929290383157
H            6.44424264725634        0.72248833917265        1.56171714134314
H            5.63300252000132        2.97309175121588        0.22149678824980
H            6.54831047688975        4.26481150656445       -1.53938724535438
H            7.52664550587925        6.48281285786443       -1.93526304961666
H            6.10680362131916        8.49876770937698       -1.84129549338866
H            3.70129894944840        8.28075604434512       -1.33516651168528
H            2.72433526211458        6.06454580253101       -0.91644937955746
H            2.22316811055116        4.09169442847842       -2.11490684758041
H            1.17900067246729        1.90266325919688       -1.73340210728133
H           -2.77207505690849       -2.51615341970110        1.14340148870109
H           -4.80636971207706       -3.03194145408775        2.42213286029387
H           -7.09565537111977       -3.47629080175220        2.05523961314401
H           -9.10471070507014       -4.05867777133551        3.34226906500364
H          -10.12927558881323       -2.40274855361665        4.85828656817801
H           -9.12129896679636       -0.16145699502704        5.08509064720431
H           -7.09966772345271        0.41657913519016        3.81579154297814
H           -6.41880460878468        0.84843605952694        1.59816398666196
H           -5.56589333634395        3.09266606549643        0.27540471313469
H           -6.46528729935081        4.42493737292273       -1.46231991513864
H           -7.39445870801508        6.66987319027631       -1.82306348350186
H           -5.92660098318068        8.65062282347319       -1.71877379707871
H           -3.52229879118329        8.37000973726899       -1.23836134293476
H           -2.59425216706347        6.12659629746961       -0.85463581755919
H           -2.14985592825840        4.15554295463932       -2.07791201203560
H           -1.15287462242881        1.94014028112914       -1.72521665641995
H           -2.18315649531060       -2.35202833012291       -1.21490622689980
H           -2.05691060578849       -3.83144200272361       -2.62410280495442
H           -2.06876256928613       -6.04236383947198       -3.54619136223079

 projected vibrational frequencies (cm⁻¹)
eigval :       -0.00     0.00     0.00     0.00     0.00     0.00
eigval :        7.47     7.61     9.39    12.64    15.37    20.52
eigval :       32.22    35.68    38.08    38.29    39.63    40.18
eigval :       42.88    44.64    53.01    56.76    58.82    58.85
eigval :       65.30    72.43    81.65    88.63    93.52   110.79
eigval :      116.21   119.26   126.36   133.16   145.37   150.91
eigval :      152.57   155.73   173.31   179.41   183.43   198.45
eigval :      212.97   218.76   223.39   225.14   236.04   246.48
eigval :      249.58   251.90   262.43   282.71   285.66   292.13
eigval :      295.11   309.04   311.74   317.87   328.63   337.77
eigval :      342.80   346.14   370.09   370.71   371.50   372.19
eigval :      372.32   373.99   378.79   387.97   390.19   391.88
eigval :      394.71   396.13   402.92   419.55   431.58   433.55
eigval :      436.00   446.30   464.86   475.36   475.70   487.33
eigval :      489.84   494.35   498.74   501.24   503.65   525.52
eigval :      540.26   555.14   555.82   567.77   575.12   577.65
eigval :      582.18   586.69   586.76   591.76   593.58   601.52
eigval :      607.82   609.69   611.87   619.01   624.51   624.80
eigval :      630.71   640.99   666.72   668.79   670.31   671.41
eigval :      672.34   681.31   683.17   688.31   688.42   708.09
eigval :      708.49   717.43   723.28   738.47   740.04   751.57
eigval :      757.14   758.00   758.41   764.60   794.79   807.50
eigval :      812.11   821.58   822.89   823.92   827.04   836.40
eigval :      856.37   861.65   864.49   867.16   869.16   871.02
eigval :      871.78   877.24   878.45   879.15   879.65   881.55
eigval :      900.64   901.55   902.30   902.43   902.66   903.75
eigval :      906.48   907.87   911.33   914.82   915.36   917.67
eigval :      926.63   930.43   930.49   930.54   931.04   931.85
eigval :      931.89   932.02   932.14   958.71   961.98   962.54
eigval :      971.23   971.35   979.78   980.67   990.55  1025.10
eigval :     1025.24  1032.76  1034.38  1034.77  1045.61  1068.20
eigval :     1068.27  1069.66  1070.38  1085.59  1085.73  1086.41
eigval :     1086.44  1110.68  1121.91  1122.23  1122.54  1122.68
eigval :     1135.06  1140.86  1146.30  1150.56  1162.72  1181.90
eigval :     1181.97  1182.21  1182.37  1182.88  1183.76  1199.41
eigval :     1200.23  1200.79  1202.04  1207.44  1213.71  1219.02
eigval :     1220.49  1221.68  1223.75  1226.86  1232.39  1238.59
eigval :     1241.81  1247.08  1277.38  1278.43  1281.03  1281.14
eigval :     1281.61  1281.65  1284.63  1288.75  1290.42  1291.09
eigval :     1297.23  1303.15  1313.30  1319.60  1319.70  1319.87
eigval :     1321.17  1328.39  1331.38  1339.54  1341.13  1348.64
eigval :     1350.06  1361.21  1366.21  1387.47  1401.82  1404.01
eigval :     1407.14  1408.62  1414.64  1427.50  1427.89  1429.31
eigval :     1430.21  1430.36  1431.15  1434.38  1450.15  1450.35
eigval :     1465.92  1466.66  1468.56  1483.92  1487.45  1487.52
eigval :     1491.39  1491.46  1491.85  1494.50  1501.11  1503.29
eigval :     1505.90  1514.16  1520.23  1551.52  1554.47  1558.10
eigval :     1566.20  1566.42  1568.44  1568.61  1570.23  1578.60
eigval :     1578.69  1579.24  1579.33  1589.19  1591.96  1598.40
eigval :     1598.49  1604.42  1606.56  2210.79  3020.43  3021.46
eigval :     3026.19  3028.57  3030.19  3034.81  3037.49  3046.22
eigval :     3049.18  3071.31  3071.51  3071.60  3072.01  3072.06
eigval :     3073.64  3073.69  3074.22  3074.34  3080.63  3081.75
eigval :     3081.80  3081.90  3081.99  3083.97  3084.49  3086.00
eigval :     3086.09  3086.24  3086.48  3087.50  3089.05  3089.89
eigval :     3089.97  3090.14  3092.69  3092.78  3092.99  3093.14
eigval :     3093.19  3093.82  3094.92  3095.76  3099.72  3100.03
eigval :     3102.25  3103.20  3104.64

   temp. (K)  partition function   enthalpy   heat capacity  entropy
                                   cal/mol     cal/K/mol   cal/K/mol   J/K/mol
 298.15  VIB  0.160E+29            34197.590    209.812    216.025
         ROT  0.306E+09              888.752      2.981     41.808
         INT  0.489E+37            35086.343    212.793    257.833
         TR   0.248E+29             1481.254      4.968     46.146
         TOT                       36567.5966   217.7609   303.9785  1271.8461

       T/K    H(0)-H(T)+PV         H(T)/Eh          T*S/Eh         G(T)/Eh
   ------------------------------------------------------------------------
    298.15    0.582742E-01    0.955831E+00    0.144430E+00    0.811401E+00
   ------------------------------------------------------------------------

         :::::::::::::::::::::::::::::::::::::::::::::::::::::
         ::                  THERMODYNAMIC                  ::
         :::::::::::::::::::::::::::::::::::::::::::::::::::::
         :: total free energy        -171.077052873396 Eh   ::
         ::.................................................::
         :: total energy             -171.888454186185 Eh   ::
         :: zero point energy           0.897557143331 Eh   ::
         :: G(RRHO) w/o ZPVE           -0.086155830541 Eh   ::
         :: G(RRHO) contrib.            0.811401312790 Eh   ::
         :::::::::::::::::::::::::::::::::::::::::::::::::::::

           -------------------------------------------------
          | TOTAL ENERGY             -171.888454186185 Eh   |
          | TOTAL ENTHALPY           -170.932622868362 Eh   |
          | TOTAL FREE ENERGY        -171.077052873396 Eh   |
          | GRADIENT NORM               0.000065297289 Eh/α |
           -------------------------------------------------

 * finished run on 2025/07/20 at 05:21:09.915
