   * xtb version 6.7.1 (edcfbbe) compiled by 'albert@albert-system' on 2024-07-22

   ID    Z sym.   atoms
    1    6 C      1-9, 11-13, 15-17, 19-21, 23-40
    2    7 N      10, 14, 18, 22
    3   78 Pt     41
    4    1 H      42-87

          program call               : xtb data2507/toluene/PtOEP/PtOEP_toluene_S0_finalOpt.xtbopt.xyz --gfn 2 --uhf 2 --gbsa toluene --ohess vtight --parallel 40 --molden --ceasefiles --namespace data2507/toluene/PtOEP/PtOEP_toluene_T1_preOpt
      * Solvation model:               GBSA
        Solvent                        toluene
        Solvent mass                       9.2140E+01 g/mol
          :  Hamiltonian                  GFN2-xTB          :
 * total energy  :  -116.9322712 Eh     change       -0.5446879E-09 Eh
 * total energy  :  -116.9392408 Eh     change       -0.6969600E-02 Eh
 * total energy  :  -116.9421323 Eh     change       -0.2891527E-02 Eh
 * total energy  :  -116.9423299 Eh     change       -0.1975701E-03 Eh
 * total energy  :  -116.9424925 Eh     change       -0.1626246E-03 Eh
 * total energy  :  -116.9425395 Eh     change       -0.4692630E-04 Eh
 * total energy  :  -116.9425757 Eh     change       -0.3621549E-04 Eh
 * total energy  :  -116.9425974 Eh     change       -0.2174257E-04 Eh
 * total energy  :  -116.9426182 Eh     change       -0.2080516E-04 Eh
 * total energy  :  -116.9426484 Eh     change       -0.3018854E-04 Eh
 * total energy  :  -116.9427445 Eh     change       -0.1740075E-06 Eh
 * total energy  :  -116.9427448 Eh     change       -0.2396831E-06 Eh
 * total energy  :  -116.9427450 Eh     change       -0.1735290E-06 Eh
 * total energy  :  -116.9427451 Eh     change       -0.1737938E-06 Eh
 * total energy  :  -116.9427451 Eh     change        0.3701597E-07 Eh
 * total energy  :  -116.9427450 Eh     change        0.5035717E-07 Eh
 * total energy  :  -116.9427452 Eh     change       -0.1755436E-06 Eh
 * total energy  :  -116.9427452 Eh     change        0.1101702E-07 Eh
 * total energy  :  -116.9427453 Eh     change       -0.5593459E-07 Eh
   *** GEOMETRY OPTIMIZATION CONVERGED AFTER 35 ITERATIONS ***

 final structure:
================
87
 xtb: 6.7.1 (edcfbbe)
C            1.81381921624045        5.76850062632323        1.56323674379202
C            1.43461000396577        5.45669778852840        0.11270323607393
C            0.55981969035073        4.24893061552029        0.02352890408597
C           -0.80761552008355        4.20879247186972       -0.05846877176015
C           -1.75166887126406        5.36195353471086       -0.16198755368560
C           -2.15696120868331        5.62533770655311       -1.61510516030224
C           -1.18382753295929        2.82479982809570       -0.09023660002537
C           -2.50113084203649        2.37656166460703       -0.12048554236421
C           -2.93722052600062        1.06287968945774       -0.12501350980524
N           -2.06170518563887       -0.05300965947773       -0.34728150430259
C           -2.86774989303319       -1.22056185854613       -0.13127910802952
C           -2.35617014130573       -2.50638959741106       -0.12939182613297
C           -1.01559078067621       -2.87730636300078       -0.09450972254469
N            0.05930011479015       -2.03015909048724       -0.00585439258183
C            1.18246729816964       -2.81263441469143        0.07732000784949
C            2.49867325688589       -2.36343884595495        0.12166897624646
C            2.93464146003498       -1.05027161846167        0.13418927903238
N            2.05937246986504        0.06797825187557        0.34285095887945
C            2.86936226957815        1.23343855575957        0.12633998751304
C            2.35657991568851        2.51887603120406        0.11097949551436
C            1.01556885778494        2.88942191607688        0.07018303230688
N           -0.06039936265322        2.04251813034295       -0.00660531215192
C            4.19396234301811        0.82537235484835       -0.11061476560539
C            5.34511634839374        1.74952295588077       -0.34068190010640
C            5.94681746428605        2.22944014187778        0.98402491070623
C            4.23592164286685       -0.56927101248129       -0.09478212554955
C            5.42707751897719       -1.42836236079968       -0.36807276386922
C            5.49346461786751       -1.83937113179713       -1.84213076030616
C            0.80769691654825       -4.19676006836107        0.02971759419579
C            1.75398871761097       -5.34903442237387        0.12275087700846
C            2.16671549823188       -5.62123901769601        1.57216684232548
C           -0.55923912566329       -4.23701467787374       -0.05928663067969
C           -1.43578892997845       -5.44227592707449       -0.16325905332060
C           -1.83943521395757       -5.71969078649304       -1.61423642857937
C           -4.19193386120566       -0.81695984769888        0.11396457822939
C           -5.32389464912449       -1.74650999148539        0.40724812138721
C           -5.32831332261074       -2.17078959003900        1.87906730171199
C           -4.23236787702693        0.57780140096446        0.12826370590326
C           -5.43342728983086        1.43240151150425        0.37147490062158
C           -6.08307969235259        1.86625344760468       -0.94642574414290
Pt          -0.00078690294670        0.00625869207698       -0.00426468798534
H            2.45334513986847        6.64761770814573        1.60872870558125
H            2.34276717484920        4.92834578963932        2.00781393609233
H            0.91981653273617        5.95751149439664        2.15395215034482
H            0.91164360651829        6.31455714684472       -0.31361630207228
H            2.34341235135108        5.30156228972892       -0.47405232540746
H           -2.64644792138437        5.16413989610846        0.43349303901921
H           -1.27736577084910        6.25613264178825        0.24607765018182
H           -1.27959782229244        5.85988213994395       -2.21438417005768
H           -2.63432674639708        4.74621025905526       -2.04243726160815
H           -2.85075686240732        6.46159078269248       -1.67123109497178
H           -3.26662646224399        3.13315984928060       -0.06279542037232
H           -1.73260517708857       -0.03973024531139       -1.32426286546018
H           -3.07746882616659       -3.30575440613186       -0.07475734028801
H            3.26604353328355       -3.11869691194608        0.06703757646637
H            1.72437356248254        0.06232117297139        1.31811332962726
H            3.07677314042293        3.31872942705014        0.05360108425479
H            5.01026913381457        2.61261092903042       -0.91968921594180
H            6.11488545427376        1.23842792502767       -0.92004731406027
H            6.30561973602898        1.38338985697096        1.56623942108460
H            5.19896835862975        2.75552502305196        1.57302502976588
H            6.78041967026738        2.90283466597588        0.79851306860588
H            5.38141359021490       -2.32522499399676        0.25394568176539
H            6.33584384014724       -0.88566297027066       -0.10413498199252
H            6.36993132424117       -2.45747110446388       -2.02370273721877
H            4.60477374889121       -2.40192755109641       -2.11852083501458
H            5.54923594869113       -0.95892322736132       -2.47841377060320
H            1.27929036268119       -6.24142932257500       -0.28882055883181
H            2.64573752128801       -5.14618007688992       -0.47571468670280
H            2.65074438032372       -4.74657968209960        2.00142648814574
H            1.29181745278159       -5.85544563148521        2.17516026636437
H            2.85703977428274       -6.46093118093043        1.61962287342903
H           -2.33486128919276       -5.30074199967882        0.44193973158003
H           -0.90659042233634       -6.31007981215933        0.23412379762985
H           -0.95518529097198       -5.88999030902805       -2.22499459321847
H           -2.47556944446594       -6.60070259431678       -1.66991309455751
H           -2.38031090091201       -4.87153155449048       -2.02850494474916
H           -5.23995180481985       -2.63474644126635       -0.22319339310575
H           -6.26954889165947       -1.25736379175047        0.16982112645502
H           -6.15500388435206       -2.84987078650842        2.07540135278080
H           -4.39604243861289       -2.67117602778620        2.13084525119829
H           -5.43082329287415       -1.30042435917645        2.52336106327980
H           -6.16187235260240        0.87952637155490        0.96577602217086
H           -5.14254656590405        2.31785978187209        0.94028337013515
H           -6.95604376928482        2.48506958858402       -0.75188087514541
H           -6.39438128133899        0.99599905809547       -1.52023926123552
H           -5.37899270881803        2.43670405279068       -1.54793331535642

          :  Hamiltonian                  GFN2-xTB          :
         :: gradient norm              0.000029594096 Eh/a0 ::
         :: HOMO-LUMO gap              1.188730816915 eV    ::
         :: SCC energy              -118.742806279729 Eh    ::
         :: -> dispersion             -0.114841940975 Eh    ::
         :: -> Gsolv                  -0.043686418769 Eh    ::
         :: repulsion energy           1.800061008576 Eh    ::

    * Orbital Energies and Occupations

         #    Occupation            Energy/Eh            Energy/eV
      -------------------------------------------------------------
         1        2.0000           -0.6815385             -18.5456
       ...           ...                  ...                  ...
        99        2.0000           -0.4079847             -11.1018
       100        2.0000           -0.4001227             -10.8879
       101        2.0000           -0.3985895             -10.8462
       102        2.0000           -0.3872892             -10.5387
       103        2.0000           -0.3772234             -10.2648
       104        2.0000           -0.3765894             -10.2475
       105        2.0000           -0.3746007             -10.1934
       106        2.0000           -0.3714108             -10.1066
       107        2.0000           -0.3608920              -9.8204
       108        2.0000           -0.3575755              -9.7301
       109        2.0000           -0.3574923              -9.7279
       110        1.0000           -0.3037569              -8.2656
       111        1.0000           -0.2905057              -7.9051 (HOMO)
       112                         -0.2468206              -6.7163 (LUMO)
       113                         -0.2459588              -6.6929
       114                         -0.2147584              -5.8439
       115                         -0.1801672              -4.9026
       116                         -0.1627740              -4.4293
       117                         -0.1512196              -4.1149
       118                         -0.1279502              -3.4817
       119                         -0.1097685              -2.9870
       120                         -0.1027219              -2.7952
       121                         -0.0975827              -2.6554
       122                         -0.0431323              -1.1737
       ...                                ...                  ...
       215                          1.3614534              37.0470
      -------------------------------------------------------------
                  HL-Gap            0.0436851 Eh            1.1887 eV

     #   Z          covCN         q      C6AA      α(0)
     1   6 C        3.753    -0.098    22.426     6.753
     2   6 C        3.802    -0.053    21.529     6.606
     3   6 C        3.061    -0.038    28.878     8.812
     4   6 C        3.061    -0.038    28.878     8.812
     5   6 C        3.802    -0.053    21.529     6.606
     6   6 C        3.753    -0.098    22.426     6.753
     7   6 C        3.104     0.051    26.723     8.470
     8   6 C        2.898    -0.085    30.116     8.998
     9   6 C        3.015     0.029    27.327     8.575
    10   7 N        3.539    -0.060    22.395     7.029
    11   6 C        3.016     0.030    27.321     8.574
    12   6 C        2.898    -0.084    30.102     8.996
    13   6 C        3.105     0.051    26.721     8.470
    14   7 N        2.716    -0.152    24.288     7.319
    15   6 C        3.105     0.051    26.720     8.470
    16   6 C        2.898    -0.084    30.100     8.995
    17   6 C        3.015     0.030    27.323     8.574
    18   7 N        3.539    -0.060    22.404     7.030
    19   6 C        3.015     0.029    27.327     8.575
    20   6 C        2.898    -0.084    30.115     8.998
    21   6 C        3.104     0.051    26.723     8.470
    22   7 N        2.716    -0.152    24.291     7.320
    23   6 C        3.041    -0.031    28.727     8.791
    24   6 C        3.803    -0.055    21.566     6.612
    25   6 C        3.753    -0.101    22.484     6.762
    26   6 C        3.040    -0.031    28.735     8.792
    27   6 C        3.803    -0.055    21.553     6.610
    28   6 C        3.753    -0.100    22.477     6.761
    29   6 C        3.061    -0.038    28.877     8.812
    30   6 C        3.802    -0.053    21.530     6.606
    31   6 C        3.753    -0.098    22.434     6.754
    32   6 C        3.061    -0.038    28.877     8.812
    33   6 C        3.802    -0.053    21.530     6.606
    34   6 C        3.753    -0.098    22.434     6.754
    35   6 C        3.041    -0.031    28.733     8.792
    36   6 C        3.803    -0.055    21.553     6.609
    37   6 C        3.753    -0.101    22.478     6.761
    38   6 C        3.041    -0.031    28.726     8.791
    39   6 C        3.803    -0.055    21.566     6.611
    40   6 C        3.753    -0.101    22.484     6.762
    41  78 Pt       3.508    -0.146   359.250    35.714
    42   1 H        0.925     0.035     2.520     2.482
    43   1 H        0.925     0.032     2.556     2.500
    44   1 H        0.925     0.033     2.550     2.497
    45   1 H        0.924     0.035     2.517     2.481
    46   1 H        0.924     0.031     2.576     2.510
    47   1 H        0.924     0.031     2.576     2.510
    48   1 H        0.924     0.035     2.517     2.481
    49   1 H        0.925     0.032     2.551     2.498
    50   1 H        0.925     0.032     2.556     2.500
    51   1 H        0.925     0.035     2.520     2.482
    52   1 H        0.926     0.044     2.401     2.423
    53   1 H        0.933     0.244     0.901     1.484
    54   1 H        0.926     0.044     2.395     2.420
    55   1 H        0.926     0.044     2.397     2.421
    56   1 H        0.936     0.244     0.899     1.482
    57   1 H        0.926     0.044     2.401     2.423
    58   1 H        0.924     0.037     2.488     2.467
    59   1 H        0.924     0.044     2.395     2.420
    60   1 H        0.925     0.036     2.504     2.475
    61   1 H        0.925     0.034     2.527     2.486
    62   1 H        0.925     0.039     2.457     2.451
    63   1 H        0.924     0.036     2.502     2.474
    64   1 H        0.924     0.044     2.400     2.422
    65   1 H        0.925     0.039     2.466     2.456
    66   1 H        0.925     0.036     2.508     2.477
    67   1 H        0.925     0.036     2.500     2.473
    68   1 H        0.924     0.035     2.518     2.481
    69   1 H        0.924     0.031     2.572     2.508
    70   1 H        0.925     0.033     2.551     2.498
    71   1 H        0.925     0.033     2.550     2.497
    72   1 H        0.925     0.035     2.521     2.483
    73   1 H        0.924     0.031     2.572     2.508
    74   1 H        0.924     0.035     2.517     2.481
    75   1 H        0.925     0.033     2.551     2.498
    76   1 H        0.925     0.035     2.521     2.483
    77   1 H        0.925     0.033     2.550     2.497
    78   1 H        0.924     0.036     2.501     2.473
    79   1 H        0.924     0.044     2.400     2.422
    80   1 H        0.925     0.039     2.466     2.456
    81   1 H        0.925     0.036     2.507     2.476
    82   1 H        0.925     0.036     2.501     2.473
    83   1 H        0.924     0.044     2.396     2.421
    84   1 H        0.924     0.037     2.488     2.467
    85   1 H        0.925     0.039     2.458     2.452
    86   1 H        0.925     0.036     2.503     2.474
    87   1 H        0.925     0.034     2.527     2.486

molecular dipole:
                 x           y           z       tot (Debye)
 q only:       -0.003      -0.012       0.007
   full:       -0.002      -0.007       0.005       0.021

 projected vibrational frequencies (cm⁻¹)
eigval :       -0.00    -0.00    -0.00    -0.00     0.00     0.00
eigval :       13.38    27.64    33.01    39.14    43.58    48.01
eigval :       52.96    54.73    56.47    57.79    60.10    62.83
eigval :       64.76    65.63    79.09    82.05   110.14   110.42
eigval :      117.04   131.24   146.31   150.28   161.18   166.97
eigval :      180.36   182.43   184.64   186.86   187.34   190.78
eigval :      193.70   197.74   202.02   206.82   210.16   212.04
eigval :      220.26   232.45   241.26   241.85   255.59   263.18
eigval :      278.44   287.33   288.49   293.71   300.01   305.78
eigval :      307.92   317.32   336.74   342.46   351.26   410.35
eigval :      421.74   425.72   429.81   441.47   465.06   483.84
eigval :      503.99   504.31   505.97   511.92   516.96   544.24
eigval :      554.11   590.43   598.97   599.22   631.39   636.18
eigval :      648.11   651.66   654.13   654.77   667.59   674.88
eigval :      678.91   707.35   715.60   732.55   745.75   756.98
eigval :      768.96   776.44   782.35   784.75   788.29   810.12
eigval :      811.00   812.64   813.20   815.86   820.22   834.18
eigval :      841.04   841.70   844.62   920.43   925.99   939.76
eigval :      958.58   986.88   987.57   998.45  1000.82  1008.14
eigval :     1010.01  1021.66  1022.86  1032.18  1035.04  1042.59
eigval :     1044.04  1074.00  1074.19  1075.88  1076.07  1076.25
eigval :     1076.46  1076.86  1077.55  1101.95  1102.81  1106.00
eigval :     1108.29  1110.92  1114.28  1119.93  1120.18  1135.20
eigval :     1144.25  1146.21  1162.51  1165.62  1168.56  1228.25
eigval :     1230.42  1231.70  1238.74  1242.26  1242.50  1242.92
eigval :     1243.38  1268.06  1280.26  1286.76  1290.14  1303.40
eigval :     1307.76  1310.02  1312.54  1313.73  1314.17  1315.15
eigval :     1316.22  1316.83  1324.04  1346.83  1355.42  1379.85
eigval :     1381.38  1395.58  1395.71  1402.55  1402.76  1404.00
eigval :     1404.63  1405.95  1406.33  1406.73  1407.56  1414.12
eigval :     1472.93  1473.29  1477.32  1478.20  1481.26  1482.91
eigval :     1485.54  1491.32  1491.68  1491.90  1492.75  1493.51
eigval :     1494.06  1494.83  1494.86  1495.00  1495.11  1495.70
eigval :     1499.46  1500.86  1501.68  1503.52  1504.32  1505.11
eigval :     1505.30  1505.52  1506.71  1507.00  1509.98  1512.70
eigval :     1555.26  1559.33  1561.74  1607.47  1611.14  2956.16
eigval :     2956.83  2957.09  2957.81  2964.95  2965.90  2971.42
eigval :     2972.68  2984.13  2984.55  2988.10  2988.42  2989.82
eigval :     2990.80  2994.88  2995.13  3022.93  3022.99  3023.34
eigval :     3023.39  3026.50  3027.00  3027.07  3027.50  3028.32
eigval :     3028.81  3028.94  3029.51  3030.23  3030.28  3031.68
eigval :     3031.74  3033.95  3034.75  3034.95  3035.67  3037.61
eigval :     3037.76  3038.78  3038.86  3057.38  3069.42  3106.31
eigval :     3107.17  3109.21  3110.42

   temp. (K)  partition function   enthalpy   heat capacity  entropy
                                   cal/mol     cal/K/mol   cal/K/mol   J/K/mol
 298.15  VIB  0.333E+20            25933.504    152.929    164.607
         ROT  0.509E+08              888.752      2.981     38.244
         INT  0.169E+28            26822.256    155.910    202.851
         TR   0.191E+29             1481.254      4.968     45.622
         TOT                       28303.5102   160.8782   248.4727  1039.6098

       T/K    H(0)-H(T)+PV         H(T)/Eh          T*S/Eh         G(T)/Eh
   ------------------------------------------------------------------------
    298.15    0.451045E-01    0.775055E+00    0.118057E+00    0.656997E+00
   ------------------------------------------------------------------------

         :::::::::::::::::::::::::::::::::::::::::::::::::::::
         ::                  THERMODYNAMIC                  ::
         :::::::::::::::::::::::::::::::::::::::::::::::::::::
         :: total free energy        -116.285748004367 Eh   ::
         ::.................................................::
         :: total energy             -116.942745271379 Eh   ::
         :: zero point energy           0.729950149010 Eh   ::
         :: G(RRHO) w/o ZPVE           -0.072952881997 Eh   ::
         :: G(RRHO) contrib.            0.656997267012 Eh   ::
         :::::::::::::::::::::::::::::::::::::::::::::::::::::

           -------------------------------------------------
          | TOTAL ENERGY             -116.942745271379 Eh   |
          | TOTAL ENTHALPY           -116.167690607897 Eh   |
          | TOTAL FREE ENERGY        -116.285748004367 Eh   |
          | GRADIENT NORM               0.000029594716 Eh/α |
          | HOMO-LUMO GAP               1.188730825299 eV   |
           -------------------------------------------------

 * finished run on 2025/07/18 at 06:06:24.198
