   * xtb version 6.7.1 (edcfbbe) compiled by 'albert@albert-system' on 2024-07-22

   ID    Z sym.   atoms
    1    6 C      1-9, 11-13, 15-17, 19-21, 23-40
    2    7 N      10, 14, 18, 22
    3   78 Pt     41
    4    1 H      42-87

          program call               : xtb data2507/toluene/PtOEP/PtOEP_toluene_T1_crest.xyz --gfn 2 --uhf 2 --gbsa toluene --ohess vtight --parallel 40 --molden --ceasefiles --namespace data2507/toluene/PtOEP/PtOEP_toluene_T1_finalOpt
      * Solvation model:               GBSA
        Solvent                        toluene
        Solvent mass                       9.2140E+01 g/mol
          :  Hamiltonian                  GFN2-xTB          :
 * total energy  :  -116.9424429 Eh     change       -0.4964704E-09 Eh
 * total energy  :  -116.9425582 Eh     change       -0.1153865E-03 Eh
 * total energy  :  -116.9426442 Eh     change       -0.8594794E-04 Eh
 * total energy  :  -116.9426675 Eh     change       -0.2332540E-04 Eh
 * total energy  :  -116.9426850 Eh     change       -0.1748114E-04 Eh
 * total energy  :  -116.9426959 Eh     change       -0.1086799E-04 Eh
 * total energy  :  -116.9427012 Eh     change       -0.5358387E-05 Eh
 * total energy  :  -116.9427101 Eh     change       -0.8871279E-05 Eh
 * total energy  :  -116.9427160 Eh     change       -0.5927629E-05 Eh
 * total energy  :  -116.9427217 Eh     change       -0.5711722E-05 Eh
 * total energy  :  -116.9427263 Eh     change       -0.4564963E-05 Eh
 * total energy  :  -116.9427279 Eh     change       -0.1586455E-05 Eh
 * total energy  :  -116.9427284 Eh     change       -0.5275301E-06 Eh
 * total energy  :  -116.9427289 Eh     change       -0.5134439E-06 Eh
 * total energy  :  -116.9427293 Eh     change       -0.4181701E-06 Eh
 * total energy  :  -116.9427294 Eh     change       -0.1877048E-07 Eh
   *** GEOMETRY OPTIMIZATION CONVERGED AFTER 16 ITERATIONS ***

 final structure:
================
87
 xtb: 6.7.1 (edcfbbe)
C            2.83313074932652       -5.31788951072120       -1.59106693274395
C            2.39114456094575       -5.10132349468058       -0.14091267583209
C            1.31345594261108       -4.07108622144107       -0.04604889531654
C           -0.03933627423072       -4.27772329178550        0.02883694256557
C           -0.76058216021706       -5.58314709188017        0.11640500180394
C           -1.11007045617633       -5.93462793177851        1.56535939330447
C           -0.65780251876387       -2.98399952166284        0.07068911379152
C           -2.03420361149177       -2.77959776351377        0.10471570248637
C           -2.69954835975420       -1.56609076547858        0.11954386214106
N           -2.03834872641937       -0.31142321582748        0.34303651115486
C           -3.04306961246765        0.69256188480210        0.13597454593950
C           -2.77017102630761        2.04912749079013        0.12790946639279
C           -1.51840177892671        2.65514166451681        0.08441023041271
N           -0.30853656858336        2.01535255234856       -0.00233715824186
C            0.65482906641453        2.98714889365248       -0.09362446499874
C            2.03054940647923        2.78252391830303       -0.13125702727778
C            2.69555234711413        1.56892842653790       -0.13046867862985
N            2.03820856518558        0.31080069410594       -0.34197569909732
C            3.04340706073606       -0.68899945578348       -0.11514952577443
C            2.77097408804974       -2.04603007631129       -0.10658218415262
C            1.51804370236134       -2.65161431610334       -0.07950338474792
N            0.30716657301682       -2.01218907277595       -0.00232093042112
C            4.26954105023616       -0.04823130196208        0.13580394439040
C            5.56597724574947       -0.74841470320458        0.38307367994878
C            6.26335444725173       -1.10860929522318       -0.93260713353393
C            4.05926528401080        1.33110162134592        0.11499484615053
C            5.07047541154604        2.39279868476292        0.40084209409771
C            5.03257896655979        2.81696947895866        1.87219634826556
C            0.03636521610182        4.28120068997704       -0.05669293224479
C            0.75949789755277        5.58399849712756       -0.16489198725369
C            1.12795230316222        5.90274416055219       -1.61681034971414
C           -1.31515479671180        4.07468004536487        0.03732600325655
C           -2.39421607757743        5.10303895786844        0.13664016136032
C           -2.83639359363293        5.31428376270929        1.58758851307011
C           -4.27528102703423        0.05736562000207       -0.09917513916610
C           -5.56206612651267        0.76567710730933       -0.37158974652970
C           -5.68011507023789        1.16436080978649       -1.84579546716062
C           -4.06318508508822       -1.32168368084722       -0.12115984475385
C           -5.09188282163334       -2.37822444443800       -0.36127810487747
C           -5.63085977276351       -2.94051745309509        0.95798123325738
Pt          -0.00061233249024        0.00171890856167       -0.00083236822914
H            3.61816517798606       -6.06959077601452       -1.64153176116135
H            3.20977135633272       -4.39047017104506       -2.01684803384471
H            1.99199939198441       -5.65150335303181       -2.19536278278466
H            2.02601719667847       -6.04517291199143        0.26754281501970
H            3.25200610177289       -4.79524846982248        0.45874918546229
H           -1.67692044518581       -5.54242532898570       -0.47772578912371
H           -0.13325630462440       -6.37187311598005       -0.30254403337246
H           -1.73911392960917       -5.16283388469142        2.00340810026184
H           -1.63995022631118       -6.88394025078269        1.60950529851825
H           -0.20416696716655       -6.01326709398973        2.16289863023743
H           -2.65156312528841       -3.66093664558789        0.04296766607851
H           -1.70943320526885       -0.26923451265703        1.31938973840131
H           -3.62356217947149        2.70568642302298        0.07434447246909
H            2.64884686545516        3.66410052453693       -0.07920077748548
H            1.71488126690651        0.25385796303003       -1.31931762066272
H            3.62283496151469       -2.70347414089667       -0.04465590108902
H            5.38538159962038       -1.65888472407428        0.95810254800173
H            6.22181274311697       -0.10675633857075        0.97270307349264
H            7.20443883354995       -1.61674365770279       -0.73507723412710
H            6.46782441310729       -0.21055891037705       -1.51158764128583
H            5.63315787782162       -1.76311991725869       -1.53040183159355
H            4.87451918751210        3.26302086686694       -0.22978213281606
H            6.06738875094090        2.02265556033255        0.15772746230685
H            5.77170663135375        3.59206551128924        2.06210003555264
H            4.04815532788368        3.20093103567315        2.12963752772000
H            5.24455873646174        1.96673906106567        2.51671310039652
H            0.12785142669125        6.38245755456327        0.22820329340003
H            1.66835241354184        5.55595042260582        0.44167599631490
H            0.22999281913163        5.96482110251539       -2.22818545276648
H            1.65518102429571        6.85276283765605       -1.67531974633340
H            1.76577530983101        5.12349462912306       -2.02845607561026
H           -3.25498455028105        4.79764195123795       -0.46364935983078
H           -2.03087291909443        6.04875814810372       -0.26906309765580
H           -3.61868885888535        6.06868712875898        1.64089409491001
H           -3.21681477804522        4.38634273925047        2.00911939902444
H           -1.99439265604035        5.64236553935767        2.19371576262123
H           -5.62443515078193        1.66206058967121        0.24960953752772
H           -6.39791508254479        0.11710169480584       -0.10556648615390
H           -4.86327785299215        1.82564949584690       -2.12542790572798
H           -5.63580919947391        0.28274205108851       -2.48134892561138
H           -6.62271293498103        1.67678481020236       -2.02486241810079
H           -5.91826222750065       -1.96011470712623       -0.93719460664915
H           -4.65306067300559       -3.18815149924654       -0.94762821942396
H           -6.08825333871667       -2.14960233044696        1.54858499348818
H           -4.82510860286187       -3.37919264899372        1.54210404424384
H           -6.37805322355005       -3.70693775300060        0.76513314056937

          :  Hamiltonian                  GFN2-xTB          :
         :: gradient norm              0.000115546450 Eh/a0 ::
         :: HOMO-LUMO gap              1.188520787314 eV    ::
         :: SCC energy              -118.742717287310 Eh    ::
         :: -> dispersion             -0.114845603278 Eh    ::
         :: -> Gsolv                  -0.043651357895 Eh    ::
         :: repulsion energy           1.799987919395 Eh    ::

    * Orbital Energies and Occupations

         #    Occupation            Energy/Eh            Energy/eV
      -------------------------------------------------------------
         1        2.0000           -0.6815081             -18.5448
       ...           ...                  ...                  ...
        99        2.0000           -0.4079791             -11.1017
       100        2.0000           -0.4000891             -10.8870
       101        2.0000           -0.3985685             -10.8456
       102        2.0000           -0.3872548             -10.5377
       103        2.0000           -0.3772049             -10.2643
       104        2.0000           -0.3765315             -10.2459
       105        2.0000           -0.3745594             -10.1923
       106        2.0000           -0.3713581             -10.1052
       107        2.0000           -0.3608692              -9.8198
       108        2.0000           -0.3575407              -9.7292
       109        2.0000           -0.3574663              -9.7272
       110        1.0000           -0.3037411              -8.2652
       111        1.0000           -0.2904823              -7.9044 (HOMO)
       112                         -0.2468050              -6.7159 (LUMO)
       113                         -0.2459130              -6.6916
       114                         -0.2147451              -5.8435
       115                         -0.1801556              -4.9023
       116                         -0.1627590              -4.4289
       117                         -0.1512040              -4.1145
       118                         -0.1278917              -3.4801
       119                         -0.1097677              -2.9869
       120                         -0.1027138              -2.7950
       121                         -0.0975727              -2.6551
       122                         -0.0430199              -1.1706
       ...                                ...                  ...
       215                          1.3604675              37.0202
      -------------------------------------------------------------
                  HL-Gap            0.0436773 Eh            1.1885 eV

     #   Z          covCN         q      C6AA      α(0)
     1   6 C        3.753    -0.098    22.426     6.753
     2   6 C        3.802    -0.053    21.529     6.606
     3   6 C        3.061    -0.038    28.879     8.812
     4   6 C        3.061    -0.038    28.879     8.813
     5   6 C        3.802    -0.053    21.529     6.606
     6   6 C        3.753    -0.098    22.426     6.753
     7   6 C        3.104     0.051    26.723     8.470
     8   6 C        2.898    -0.085    30.115     8.998
     9   6 C        3.015     0.029    27.327     8.575
    10   7 N        3.539    -0.060    22.401     7.030
    11   6 C        3.015     0.029    27.324     8.574
    12   6 C        2.898    -0.084    30.099     8.995
    13   6 C        3.105     0.051    26.719     8.470
    14   7 N        2.716    -0.152    24.283     7.319
    15   6 C        3.105     0.051    26.719     8.470
    16   6 C        2.898    -0.084    30.102     8.996
    17   6 C        3.015     0.030    27.322     8.574
    18   7 N        3.539    -0.060    22.396     7.029
    19   6 C        3.015     0.029    27.327     8.575
    20   6 C        2.898    -0.085    30.115     8.998
    21   6 C        3.104     0.051    26.724     8.471
    22   7 N        2.716    -0.152    24.294     7.320
    23   6 C        3.041    -0.031    28.726     8.791
    24   6 C        3.803    -0.055    21.566     6.611
    25   6 C        3.753    -0.101    22.483     6.762
    26   6 C        3.040    -0.031    28.734     8.792
    27   6 C        3.803    -0.055    21.553     6.610
    28   6 C        3.753    -0.100    22.478     6.761
    29   6 C        3.061    -0.038    28.877     8.812
    30   6 C        3.802    -0.053    21.529     6.606
    31   6 C        3.753    -0.098    22.435     6.754
    32   6 C        3.061    -0.038    28.876     8.812
    33   6 C        3.802    -0.053    21.530     6.606
    34   6 C        3.753    -0.098    22.435     6.754
    35   6 C        3.040    -0.031    28.735     8.792
    36   6 C        3.803    -0.055    21.553     6.610
    37   6 C        3.753    -0.100    22.477     6.761
    38   6 C        3.041    -0.031    28.727     8.791
    39   6 C        3.803    -0.055    21.566     6.611
    40   6 C        3.753    -0.101    22.483     6.762
    41  78 Pt       3.506    -0.146   359.236    35.713
    42   1 H        0.925     0.035     2.520     2.482
    43   1 H        0.925     0.032     2.556     2.500
    44   1 H        0.925     0.032     2.551     2.498
    45   1 H        0.924     0.035     2.517     2.481
    46   1 H        0.924     0.031     2.576     2.510
    47   1 H        0.924     0.031     2.576     2.510
    48   1 H        0.924     0.035     2.517     2.481
    49   1 H        0.925     0.032     2.557     2.500
    50   1 H        0.925     0.035     2.520     2.483
    51   1 H        0.925     0.033     2.551     2.498
    52   1 H        0.926     0.044     2.400     2.423
    53   1 H        0.935     0.244     0.899     1.483
    54   1 H        0.926     0.044     2.396     2.421
    55   1 H        0.926     0.044     2.395     2.420
    56   1 H        0.933     0.244     0.901     1.484
    57   1 H        0.926     0.044     2.401     2.423
    58   1 H        0.924     0.037     2.488     2.467
    59   1 H        0.924     0.044     2.396     2.420
    60   1 H        0.925     0.039     2.458     2.452
    61   1 H        0.925     0.036     2.504     2.474
    62   1 H        0.925     0.034     2.527     2.486
    63   1 H        0.924     0.036     2.501     2.473
    64   1 H        0.924     0.044     2.400     2.423
    65   1 H        0.925     0.039     2.466     2.456
    66   1 H        0.925     0.036     2.507     2.476
    67   1 H        0.925     0.036     2.501     2.473
    68   1 H        0.924     0.035     2.518     2.481
    69   1 H        0.924     0.031     2.571     2.508
    70   1 H        0.925     0.033     2.551     2.498
    71   1 H        0.925     0.035     2.521     2.483
    72   1 H        0.925     0.033     2.550     2.497
    73   1 H        0.924     0.031     2.572     2.508
    74   1 H        0.924     0.035     2.518     2.481
    75   1 H        0.925     0.035     2.521     2.483
    76   1 H        0.925     0.033     2.550     2.497
    77   1 H        0.925     0.033     2.550     2.497
    78   1 H        0.924     0.036     2.502     2.474
    79   1 H        0.924     0.044     2.400     2.423
    80   1 H        0.925     0.036     2.508     2.477
    81   1 H        0.925     0.036     2.500     2.472
    82   1 H        0.925     0.039     2.466     2.456
    83   1 H        0.924     0.044     2.395     2.420
    84   1 H        0.924     0.037     2.488     2.467
    85   1 H        0.925     0.036     2.505     2.475
    86   1 H        0.925     0.034     2.527     2.486
    87   1 H        0.925     0.039     2.458     2.452

molecular dipole:
                 x           y           z       tot (Debye)
 q only:       -0.000       0.014       0.004
   full:        0.000       0.006       0.003       0.016

 projected vibrational frequencies (cm⁻¹)
eigval :       -0.00    -0.00    -0.00    -0.00     0.00     0.00
eigval :       14.07    24.07    33.11    37.38    42.48    47.55
eigval :       50.14    53.63    56.60    57.32    58.12    59.47
eigval :       61.20    66.03    77.95    81.91   108.85   109.62
eigval :      116.49   131.54   146.96   148.34   160.58   166.22
eigval :      182.37   183.11   185.47   188.94   190.49   191.12
eigval :      191.97   194.92   200.89   206.81   210.88   211.53
eigval :      218.81   231.58   240.71   242.79   255.22   262.79
eigval :      277.99   287.22   287.91   292.77   299.37   305.84
eigval :      308.01   316.93   336.41   342.31   350.89   410.26
eigval :      421.61   424.90   429.42   441.06   464.78   483.68
eigval :      503.59   504.14   505.45   512.31   516.60   543.68
eigval :      552.85   590.39   599.02   599.11   631.90   636.60
eigval :      648.49   651.88   654.06   654.55   667.52   674.75
eigval :      679.01   707.32   715.62   732.60   745.85   756.97
eigval :      768.79   776.84   782.88   784.87   788.73   810.38
eigval :      811.25   812.29   813.54   815.51   819.65   834.00
eigval :      840.04   841.41   843.75   920.16   925.72   939.44
eigval :      958.30   986.65   987.27   998.61  1000.89  1007.97
eigval :     1009.71  1021.37  1022.85  1032.87  1035.91  1041.61
eigval :     1044.04  1073.66  1074.36  1074.79  1075.72  1076.20
eigval :     1076.43  1076.64  1077.10  1101.48  1102.44  1105.48
eigval :     1107.01  1110.72  1112.95  1119.45  1120.05  1135.52
eigval :     1144.19  1146.29  1162.26  1165.59  1168.45  1228.30
eigval :     1230.16  1231.12  1238.26  1242.20  1243.10  1243.12
eigval :     1243.37  1267.79  1280.08  1286.50  1289.83  1303.03
eigval :     1307.64  1310.47  1312.55  1313.96  1314.79  1315.54
eigval :     1315.97  1317.31  1324.32  1346.69  1355.27  1379.88
eigval :     1381.32  1395.49  1395.64  1401.97  1402.65  1403.24
eigval :     1404.04  1405.37  1405.82  1406.60  1407.28  1414.09
eigval :     1472.88  1473.34  1477.36  1478.34  1481.50  1482.93
eigval :     1485.54  1491.81  1492.01  1492.50  1492.81  1493.11
eigval :     1493.67  1493.76  1493.94  1494.31  1494.37  1495.02
eigval :     1499.28  1501.20  1501.89  1503.40  1504.34  1505.21
eigval :     1505.56  1506.15  1506.63  1506.75  1510.01  1512.73
eigval :     1555.08  1559.19  1561.66  1607.29  1611.01  2955.85
eigval :     2956.52  2956.90  2957.22  2965.54  2966.62  2971.32
eigval :     2972.66  2983.26  2984.16  2987.16  2988.19  2989.67
eigval :     2990.36  2994.47  2994.89  3022.33  3022.61  3023.00
eigval :     3023.24  3026.38  3026.69  3026.84  3027.17  3028.23
eigval :     3028.35  3029.05  3029.28  3030.21  3030.65  3031.75
eigval :     3031.76  3033.96  3034.64  3034.85  3035.47  3037.70
eigval :     3037.89  3038.99  3039.21  3057.96  3069.79  3107.87
eigval :     3108.60  3109.24  3110.80

   temp. (K)  partition function   enthalpy   heat capacity  entropy
                                   cal/mol     cal/K/mol   cal/K/mol   J/K/mol
 298.15  VIB  0.490E+20            25970.222    152.663    164.889
         ROT  0.509E+08              888.752      2.981     38.244
         INT  0.249E+28            26858.974    155.644    203.133
         TR   0.191E+29             1481.254      4.968     45.622
         TOT                       28340.2279   160.6125   248.7553  1040.7921

       T/K    H(0)-H(T)+PV         H(T)/Eh          T*S/Eh         G(T)/Eh
   ------------------------------------------------------------------------
    298.15    0.451630E-01    0.774998E+00    0.118192E+00    0.656806E+00
   ------------------------------------------------------------------------

         :::::::::::::::::::::::::::::::::::::::::::::::::::::
         ::                  THERMODYNAMIC                  ::
         :::::::::::::::::::::::::::::::::::::::::::::::::::::
         :: total free energy        -116.285923484043 Eh   ::
         ::.................................................::
         :: total energy             -116.942729369241 Eh   ::
         :: zero point energy           0.729834513991 Eh   ::
         :: G(RRHO) w/o ZPVE           -0.073028628793 Eh   ::
         :: G(RRHO) contrib.            0.656805885198 Eh   ::
         :::::::::::::::::::::::::::::::::::::::::::::::::::::

           -------------------------------------------------
          | TOTAL ENERGY             -116.942729369241 Eh   |
          | TOTAL ENTHALPY           -116.167731827326 Eh   |
          | TOTAL FREE ENERGY        -116.285923484043 Eh   |
          | GRADIENT NORM               0.000115474657 Eh/α |
          | HOMO-LUMO GAP               1.188520238281 eV   |
           -------------------------------------------------

 * finished run on 2025/07/18 at 06:48:55.698
