   * xtb version 6.7.1 (edcfbbe) compiled by 'albert@albert-system' on 2024-07-22

   ID    Z sym.   atoms
    1    6 C      1-9, 11-13, 15-17, 19-21, 23-40
    2    7 N      10, 14, 18, 22
    3   78 Pt     41
    4    1 H      42-87

          program call               : xtb data2507/toluene/PtOEP/PtOEP.xyz --gfn 2 --gbsa toluene --ohess vtight --parallel 40 --molden --ceasefiles --namespace data2507/toluene/PtOEP/PtOEP_toluene_S0_preOpt
      * Solvation model:               GBSA
        Solvent                        toluene
        Solvent mass                       9.2140E+01 g/mol
          :  Hamiltonian                  GFN2-xTB          :
 * total energy  :  -116.4918898 Eh     change       -0.1803372E-08 Eh
 * total energy  :  -116.7797711 Eh     change       -0.2878813E+00 Eh
 * total energy  :  -116.8307557 Eh     change       -0.5098455E-01 Eh
 * total energy  :  -116.8557524 Eh     change       -0.2499676E-01 Eh
 * total energy  :  -116.8684829 Eh     change       -0.1273043E-01 Eh
 * total energy  :  -116.8772134 Eh     change       -0.8730516E-02 Eh
 * total energy  :  -116.8853535 Eh     change       -0.8140091E-02 Eh
 * total energy  :  -116.8932279 Eh     change       -0.7874458E-02 Eh
 * total energy  :  -116.8986408 Eh     change       -0.5412887E-02 Eh
 * total energy  :  -116.9032521 Eh     change       -0.4611294E-02 Eh
 * total energy  :  -116.9630975 Eh     change       -0.5454216E-06 Eh
 * total energy  :  -116.9630981 Eh     change       -0.5178250E-06 Eh
 * total energy  :  -116.9630986 Eh     change       -0.5010388E-06 Eh
 * total energy  :  -116.9630990 Eh     change       -0.4800692E-06 Eh
 * total energy  :  -116.9630995 Eh     change       -0.4694878E-06 Eh
 * total energy  :  -116.9631000 Eh     change       -0.4560435E-06 Eh
 * total energy  :  -116.9631004 Eh     change       -0.4515810E-06 Eh
 * total energy  :  -116.9631009 Eh     change       -0.4447657E-06 Eh
 * total energy  :  -116.9631009 Eh     change       -0.4646239E-08 Eh
   *** GEOMETRY OPTIMIZATION CONVERGED AFTER 260 ITERATIONS ***

 final structure:
================
87
 xtb: 6.7.1 (edcfbbe)
C           -2.73060358953334        5.50936290516906        1.55530070567530
C           -2.73251419681436        4.93916724097722        0.13407714598716
C           -2.51390508845829        3.46026327162663        0.13349689777562
C           -3.48016925766119        2.46579782972525        0.07407348929640
C           -4.95255686104647        2.64195137730207       -0.11380532435208
C           -5.35007964032267        2.49889648888251       -1.58572642146651
C           -2.79333843284403        1.23312704217557        0.13509065139523
C           -3.42400529990315       -0.03661819141805        0.15984438007639
C           -2.82824751801961       -1.25038080016081        0.15963880386825
N           -1.41384793840849       -1.45504522292389       -0.03605229148453
C           -1.18982028194205       -2.84368217128040        0.28296287730121
C            0.03445779282267       -3.39989859401370        0.42392299677802
C            1.28634102758495       -2.73458200699922        0.44904890608489
N            1.46063980536031       -1.37975592290190        0.49694734499135
C            2.80581759562681       -1.16182526845567        0.60596976708837
C            3.43218944475347        0.11017290266794        0.63879555483066
C            2.83432184279974        1.32213519124247        0.67519761763642
N            1.41438178225387        1.51975061181805        0.83539181177870
C            1.19739512695173        2.91449721908534        0.53867802846052
C           -0.02113337793665        3.46981203335308        0.35451286430746
C           -1.27101902307655        2.80504193533935        0.27855158056125
N           -1.44965399054790        1.44980031553308        0.26492054813994
C            2.48181551304294        3.55854608377887        0.40706395180165
C            2.64106099552427        5.02181049270893        0.15478958185780
C            2.45874889397194        5.36927325004331       -1.32538754735494
C            3.45600662465771        2.61104667321028        0.48974265739313
C            4.93154155412444        2.79412973238745        0.35034847452835
C            5.40665619709122        2.52505615950262       -1.08014043483968
C            3.49894208819192       -2.39301840533805        0.61420666735795
C            4.98103298852868       -2.56438148110214        0.71211090325145
C            5.65156072472656       -2.50244576516810       -0.66311338063957
C            2.53544616586304       -3.38901603718222        0.53396117690163
C            2.74958021203707       -4.86665453382979        0.47062143799436
C            2.62953593913006       -5.39836148319100       -0.96022260494124
C           -2.46918550353598       -3.47697738256706        0.49222703963082
C           -2.62313698320985       -4.93723051713510        0.76276780737911
C           -2.52988206173354       -5.75528707426825       -0.52838905024363
C           -3.44338505284115       -2.52930290786944        0.42023236174353
C           -4.91527758402940       -2.70825800843383        0.59717438363929
C           -5.63823844775493       -2.76373480237561       -0.75157046717285
Pt           0.00316967555587        0.03342471874531        0.38969178360768
H           -3.51818398135146        5.04726930770953        2.14720574502228
H           -2.89577719267800        6.58502207711788        1.53593098390060
H           -1.77888035699656        5.31093460715935        2.04394238058595
H           -3.69009856976352        5.16306921034514       -0.33997751371517
H           -1.95407429373796        5.43287332916261       -0.45403084405120
H           -5.49716923820407        1.90364055318598        0.48073497339242
H           -5.24835257970060        3.63032982697036        0.24315120053265
H           -5.06584518371760        1.51835563810953       -1.96187071227647
H           -6.42474037777503        2.62176782744899       -1.70658995954593
H           -4.84404535372028        3.25161076785771       -2.18699415439542
H           -4.49890355804216       -0.01586983573238        0.24875026296395
H           -1.18546597367017       -1.29635349486997       -1.02727026879996
H            0.07478357313619       -4.46334932539332        0.60024005973047
H            4.50840983002147        0.09669155187127        0.57028054574079
H            1.16403010892448        1.34525340973225        1.81926995027575
H           -0.05567337065278        4.53622644827125        0.19593329080076
H            3.63502020139585        5.33929136360508        0.47470723782680
H            1.90595628337197        5.57228382764671        0.74679155456713
H            2.56050614088935        6.44182519799953       -1.47517185561070
H            1.47652123129173        5.05895810615582       -1.67345947371801
H            3.20768777227211        4.86246114075349       -1.92865247909881
H            5.44517978107078        2.11435408791135        1.03419484714311
H            5.19932135261822        3.81487786880081        0.62850773775850
H            6.48853423989623        2.61861884558717       -1.14147420846862
H            5.12317498114667        1.52347042482690       -1.39397602576068
H            4.95791666639846        3.23601417374782       -1.76913259125265
H            5.40356883157400       -1.78899391007572        1.35624177075313
H            5.20629696438884       -3.52902820666443        1.17316325061051
H            5.44308136292821       -1.55101819978141       -1.14756344434049
H            6.72976732128602       -2.61693142389084       -0.56803870901080
H            5.27408922953535       -3.29727806775974       -1.30232298637607
H            2.01969994676316       -5.37725259086408        1.10568475359308
H            3.74289441639562       -5.10536234465375        0.85590299270686
H            2.78588426421249       -6.47519999530622       -0.98222404745442
H            1.64428632896526       -5.17983508974687       -1.36641629626115
H            3.37120213671542       -4.92747925908002       -1.60176561420115
H           -3.58850385493418       -5.12480599229507        1.23462297169596
H           -1.84365771601262       -5.26254532247193        1.45516059676723
H           -3.32190010190198       -5.46813318236460       -1.21609896730375
H           -1.57383245577311       -5.58824080877707       -1.01882937573365
H           -2.62854347849770       -6.81613950072497       -0.31045314681568
H           -5.11028205876638       -3.63161518668807        1.14419101288691
H           -5.31304969984656       -1.88016395374639        1.18765384304320
H           -6.70897852377708       -2.87925318963112       -0.60030833227177
H           -5.27913841194364       -3.60529169675814       -1.33931105575295
H           -5.46335649472929       -1.85166991342956       -1.31728157668173

          :  Hamiltonian                  GFN2-xTB          :
         :: gradient norm              0.000054183334 Eh/a0 ::
         :: HOMO-LUMO gap              0.816059332110 eV    ::
         :: SCC energy              -118.771438389338 Eh    ::
         :: -> dispersion             -0.115640919568 Eh    ::
         :: -> Gsolv                  -0.041830696668 Eh    ::
         :: repulsion energy           1.808337522612 Eh    ::

    * Orbital Energies and Occupations

         #    Occupation            Energy/Eh            Energy/eV
      -------------------------------------------------------------
         1        2.0000           -0.6797862             -18.4979
       ...           ...                  ...                  ...
        98        2.0000           -0.4093999             -11.1403
        99        2.0000           -0.4081852             -11.1073
       100        2.0000           -0.3981919             -10.8354
       101        2.0000           -0.3935701             -10.7096
       102        2.0000           -0.3797274             -10.3329
       103        2.0000           -0.3696727             -10.0593
       104        2.0000           -0.3692984             -10.0491
       105        2.0000           -0.3685243             -10.0281
       106        2.0000           -0.3643175              -9.9136
       107        2.0000           -0.3624831              -9.8637
       108        2.0000           -0.3535194              -9.6198
       109        2.0000           -0.3486609              -9.4875
       110        2.0000           -0.3106849              -8.4542 (HOMO)
       111        0.0000           -0.2806952              -7.6381 (LUMO)
       112                         -0.2439210              -6.6374
       113                         -0.2413493              -6.5674
       114                         -0.2140563              -5.8248
       115                         -0.1786177              -4.8604
       116                         -0.1612942              -4.3890
       117                         -0.1485110              -4.0412
       118                         -0.1210869              -3.2949
       119                         -0.1039382              -2.8283
       120                         -0.0984993              -2.6803
       121                         -0.0948732              -2.5816
       ...                                ...                  ...
       215                          1.2763189              34.7304
      -------------------------------------------------------------
                  HL-Gap            0.0299896 Eh            0.8161 eV

     #   Z          covCN         q      C6AA      α(0)
     1   6 C        3.752    -0.097    22.405     6.750
     2   6 C        3.802    -0.051    21.497     6.601
     3   6 C        3.073    -0.046    29.072     8.840
     4   6 C        3.074    -0.046    29.070     8.840
     5   6 C        3.802    -0.051    21.496     6.601
     6   6 C        3.753    -0.096    22.396     6.749
     7   6 C        3.129     0.036    26.995     8.507
     8   6 C        2.897    -0.066    29.651     8.928
     9   6 C        3.007     0.030    27.309     8.572
    10   7 N        3.520    -0.058    22.348     7.021
    11   6 C        3.007     0.030    27.310     8.572
    12   6 C        2.897    -0.066    29.652     8.928
    13   6 C        3.130     0.036    26.990     8.506
    14   7 N        2.727    -0.135    23.920     7.264
    15   6 C        3.129     0.036    26.998     8.507
    16   6 C        2.897    -0.067    29.656     8.929
    17   6 C        3.007     0.030    27.316     8.573
    18   7 N        3.521    -0.058    22.364     7.024
    19   6 C        3.007     0.030    27.312     8.573
    20   6 C        2.897    -0.066    29.644     8.927
    21   6 C        3.129     0.036    26.986     8.505
    22   7 N        2.727    -0.135    23.928     7.265
    23   6 C        3.028    -0.023    28.552     8.765
    24   6 C        3.803    -0.055    21.553     6.609
    25   6 C        3.753    -0.099    22.452     6.757
    26   6 C        3.028    -0.023    28.553     8.765
    27   6 C        3.803    -0.055    21.553     6.609
    28   6 C        3.753    -0.099    22.441     6.755
    29   6 C        3.073    -0.046    29.074     8.841
    30   6 C        3.802    -0.051    21.483     6.599
    31   6 C        3.752    -0.094    22.363     6.744
    32   6 C        3.073    -0.046    29.072     8.840
    33   6 C        3.802    -0.051    21.481     6.599
    34   6 C        3.752    -0.095    22.367     6.744
    35   6 C        3.028    -0.022    28.535     8.762
    36   6 C        3.803    -0.055    21.567     6.612
    37   6 C        3.753    -0.100    22.463     6.759
    38   6 C        3.028    -0.023    28.537     8.762
    39   6 C        3.803    -0.055    21.566     6.612
    40   6 C        3.753    -0.100    22.465     6.759
    41  78 Pt       3.405    -0.150   359.735    35.738
    42   1 H        0.925     0.030     2.580     2.512
    43   1 H        0.925     0.031     2.578     2.511
    44   1 H        0.925     0.031     2.579     2.511
    45   1 H        0.924     0.030     2.582     2.513
    46   1 H        0.924     0.025     2.656     2.549
    47   1 H        0.924     0.025     2.656     2.549
    48   1 H        0.924     0.030     2.584     2.514
    49   1 H        0.925     0.030     2.587     2.515
    50   1 H        0.925     0.031     2.576     2.510
    51   1 H        0.925     0.031     2.579     2.511
    52   1 H        0.926     0.049     2.331     2.388
    53   1 H        0.882     0.228     0.971     1.543
    54   1 H        0.926     0.050     2.323     2.384
    55   1 H        0.926     0.050     2.315     2.379
    56   1 H        0.888     0.228     0.970     1.541
    57   1 H        0.926     0.050     2.319     2.382
    58   1 H        0.924     0.043     2.404     2.425
    59   1 H        0.924     0.038     2.473     2.459
    60   1 H        0.925     0.039     2.464     2.455
    61   1 H        0.925     0.037     2.491     2.468
    62   1 H        0.925     0.037     2.487     2.466
    63   1 H        0.924     0.038     2.474     2.460
    64   1 H        0.924     0.043     2.406     2.426
    65   1 H        0.925     0.039     2.463     2.454
    66   1 H        0.925     0.036     2.501     2.473
    67   1 H        0.925     0.037     2.485     2.465
    68   1 H        0.924     0.025     2.662     2.552
    69   1 H        0.924     0.027     2.626     2.534
    70   1 H        0.925     0.031     2.577     2.510
    71   1 H        0.925     0.030     2.589     2.516
    72   1 H        0.925     0.031     2.572     2.508
    73   1 H        0.924     0.024     2.667     2.554
    74   1 H        0.924     0.029     2.597     2.520
    75   1 H        0.925     0.030     2.581     2.512
    76   1 H        0.925     0.030     2.587     2.515
    77   1 H        0.925     0.030     2.590     2.517
    78   1 H        0.924     0.043     2.404     2.425
    79   1 H        0.924     0.040     2.448     2.447
    80   1 H        0.925     0.037     2.492     2.469
    81   1 H        0.925     0.036     2.507     2.476
    82   1 H        0.925     0.040     2.450     2.448
    83   1 H        0.924     0.043     2.406     2.426
    84   1 H        0.924     0.040     2.450     2.448
    85   1 H        0.925     0.040     2.450     2.448
    86   1 H        0.925     0.037     2.489     2.467
    87   1 H        0.925     0.036     2.506     2.475

molecular dipole:
                 x           y           z       tot (Debye)
 q only:       -0.033      -0.015      -0.066
   full:       -0.031      -0.019      -0.086       0.237

 projected vibrational frequencies (cm⁻¹)
eigval :       -0.00    -0.00     0.00     0.00     0.00     0.00
eigval :       17.21    25.02    37.62    39.97    42.43    46.37
eigval :       50.78    52.48    56.20    59.40    62.45    66.80
eigval :       75.06    82.31    85.40    98.08   114.95   115.91
eigval :      122.34   131.81   147.51   149.10   156.45   163.28
eigval :      171.11   181.31   183.73   186.16   189.51   191.97
eigval :      193.43   197.71   199.37   204.60   209.47   215.90
eigval :      222.85   233.09   238.49   242.19   264.48   271.00
eigval :      283.07   283.88   285.62   300.46   304.13   316.59
eigval :      320.46   324.32   336.17   340.29   349.70   413.45
eigval :      430.01   436.46   449.37   463.96   477.24   484.77
eigval :      496.67   505.16   509.52   513.01   524.67   572.37
eigval :      574.33   584.95   585.54   601.84   637.78   647.41
eigval :      653.33   656.89   659.48   662.56   665.77   669.15
eigval :      676.74   708.05   723.16   729.62   747.78   760.93
eigval :      764.36   808.95   810.15   810.71   812.15   813.78
eigval :      816.38   822.12   823.74   830.45   834.78   835.95
eigval :      838.32   903.98   910.64   922.12   929.73   935.37
eigval :      954.34   983.39   984.82   997.82   998.27  1012.10
eigval :     1016.46  1019.47  1021.78  1041.01  1042.36  1042.74
eigval :     1045.59  1075.51  1075.97  1076.28  1076.52  1076.79
eigval :     1076.86  1077.51  1078.21  1087.43  1089.41  1100.96
eigval :     1106.64  1112.99  1115.47  1132.22  1137.08  1145.00
eigval :     1149.29  1160.03  1171.21  1178.33  1179.90  1228.48
eigval :     1230.18  1235.11  1238.28  1241.70  1242.95  1244.06
eigval :     1244.74  1277.14  1278.12  1281.89  1291.04  1297.07
eigval :     1303.18  1304.39  1308.87  1315.15  1316.41  1318.16
eigval :     1319.70  1321.06  1322.82  1343.35  1349.75  1359.72
eigval :     1367.36  1379.62  1397.92  1400.64  1401.39  1402.09
eigval :     1403.09  1405.14  1405.72  1406.68  1407.36  1459.41
eigval :     1468.62  1471.28  1472.47  1477.04  1478.47  1488.25
eigval :     1488.36  1489.63  1491.01  1492.42  1493.36  1494.08
eigval :     1494.56  1495.25  1495.53  1496.62  1497.90  1498.46
eigval :     1499.31  1499.68  1502.55  1503.19  1504.64  1505.46
eigval :     1506.02  1507.97  1508.68  1549.49  1550.28  1560.85
eigval :     1585.76  1613.70  1620.10  1647.85  1651.48  2943.18
eigval :     2949.64  2950.32  2953.65  2964.03  2965.26  2968.15
eigval :     2970.02  2971.51  2977.01  2979.08  2983.42  2984.74
eigval :     2985.73  2989.47  2992.87  3017.96  3018.52  3019.07
eigval :     3019.47  3024.97  3025.51  3026.12  3028.80  3030.14
eigval :     3031.06  3031.63  3032.35  3033.11  3033.32  3033.85
eigval :     3034.35  3034.71  3037.17  3037.68  3038.65  3040.49
eigval :     3041.08  3045.06  3045.37  3070.88  3089.36  3099.58
eigval :     3101.20  3102.52  3105.97

   temp. (K)  partition function   enthalpy   heat capacity  entropy
                                   cal/mol     cal/K/mol   cal/K/mol   J/K/mol
 298.15  VIB  0.123E+20            25698.216    152.270    162.511
         ROT  0.506E+08              888.752      2.981     38.233
         INT  0.621E+27            26586.968    155.250    200.744
         TR   0.191E+29             1481.254      4.968     45.622
         TOT                       28068.2219   160.2186   246.3665  1030.7975

       T/K    H(0)-H(T)+PV         H(T)/Eh          T*S/Eh         G(T)/Eh
   ------------------------------------------------------------------------
    298.15    0.447296E-01    0.776781E+00    0.117057E+00    0.659725E+00
   ------------------------------------------------------------------------

         :::::::::::::::::::::::::::::::::::::::::::::::::::::
         ::                  THERMODYNAMIC                  ::
         :::::::::::::::::::::::::::::::::::::::::::::::::::::
         :: total free energy        -116.303376279179 Eh   ::
         ::.................................................::
         :: total energy             -116.963100867169 Eh   ::
         :: zero point energy           0.732051705203 Eh   ::
         :: G(RRHO) w/o ZPVE           -0.072327117213 Eh   ::
         :: G(RRHO) contrib.            0.659724587990 Eh   ::
         :::::::::::::::::::::::::::::::::::::::::::::::::::::

           -------------------------------------------------
          | TOTAL ENERGY             -116.963100867169 Eh   |
          | TOTAL ENTHALPY           -116.186319603243 Eh   |
          | TOTAL FREE ENERGY        -116.303376279179 Eh   |
          | GRADIENT NORM               0.000054187272 Eh/α |
          | HOMO-LUMO GAP               0.816059308551 eV   |
           -------------------------------------------------

 * finished run on 2025/07/18 at 05:25:07.267
