   * xtb version 6.7.1 (edcfbbe) compiled by 'albert@albert-system' on 2024-07-22

   ID    Z sym.   atoms
    1    6 C      1-9, 11-13, 15-17, 19-21, 23-40
    2    7 N      10, 14, 18, 22
    3   78 Pt     41
    4    1 H      42-87

          program call               : xtb data2507/toluene/PtOEP/PtOEP_toluene_S0_crest.xyz --gfn 2 --gbsa toluene --ohess vtight --parallel 40 --molden --ceasefiles --namespace data2507/toluene/PtOEP/PtOEP_toluene_S0_finalOpt
      * Solvation model:               GBSA
        Solvent                        toluene
        Solvent mass                       9.2140E+01 g/mol
          :  Hamiltonian                  GFN2-xTB          :
 * total energy  :  -116.9641697 Eh     change       -0.4404271E-08 Eh
 * total energy  :  -116.9642547 Eh     change       -0.8498161E-04 Eh
 * total energy  :  -116.9643089 Eh     change       -0.5412441E-04 Eh
 * total energy  :  -116.9643220 Eh     change       -0.1319492E-04 Eh
 * total energy  :  -116.9643315 Eh     change       -0.9499710E-05 Eh
 * total energy  :  -116.9643416 Eh     change       -0.1004289E-04 Eh
 * total energy  :  -116.9643505 Eh     change       -0.8928108E-05 Eh
 * total energy  :  -116.9643625 Eh     change       -0.1197349E-04 Eh
 * total energy  :  -116.9643756 Eh     change       -0.1309652E-04 Eh
 * total energy  :  -116.9643854 Eh     change       -0.9760688E-05 Eh
 * total energy  :  -116.9644138 Eh     change       -0.4975022E-06 Eh
 * total energy  :  -116.9644143 Eh     change       -0.5150488E-06 Eh
 * total energy  :  -116.9644146 Eh     change       -0.3144745E-06 Eh
 * total energy  :  -116.9644148 Eh     change       -0.1577513E-06 Eh
 * total energy  :  -116.9644149 Eh     change       -0.1329397E-06 Eh
 * total energy  :  -116.9644151 Eh     change       -0.1795938E-06 Eh
 * total energy  :  -116.9644153 Eh     change       -0.2249993E-06 Eh
 * total energy  :  -116.9644154 Eh     change       -0.1569596E-06 Eh
 * total energy  :  -116.9644155 Eh     change       -0.9310300E-07 Eh
   *** GEOMETRY OPTIMIZATION CONVERGED AFTER 41 ITERATIONS ***

 final structure:
================
87
 xtb: 6.7.1 (edcfbbe)
C            1.83389630205764        5.76528347429497        1.49371693561736
C            1.43725633945785        5.42877249546491        0.05352364468534
C            0.56900054217913        4.21337042482872       -0.00870505543462
C           -0.81795186569915        4.17282857061985       -0.03963812479532
C           -1.75562804282075        5.33402353553339       -0.12417986609903
C           -2.16830598798587        5.61977285586865       -1.57084512334901
C           -1.18026879127629        2.80796752316111       -0.06289619047068
C           -2.51633358385798        2.33320369107632       -0.05292099699773
C           -2.93433574949949        1.04947648921856       -0.12764661199798
N           -2.06302797329780       -0.06945209873651       -0.39296696559533
C           -2.86432442869331       -1.23835825480182       -0.12442338347129
C           -2.37214583936570       -2.49529389942442       -0.04906044698933
C           -1.01082108315970       -2.89009119663702       -0.05925852436791
N            0.05925129685216       -2.04104892041117       -0.00592646362585
C            1.17846507011835       -2.82470060253712        0.03664715455494
C            2.51378618239473       -2.34921253359420        0.04447400149273
C            2.93085841803366       -1.06648966754848        0.13505319783280
N            2.05868409316044        0.05313826917996        0.39384156366203
C            2.86465691666465        1.22130569251592        0.13366647326127
C            2.37152192065255        2.47687438558029        0.04274658994165
C            1.00984214774504        2.87234409848704        0.03682519908706
N           -0.06143184484118        2.02401226117550       -0.00720443657425
C            4.22514813740422        0.79577825813215       -0.08743689992892
C            5.36132024429101        1.74148943254880       -0.30182892356181
C            5.85305467898415        2.32924085066932        1.02425676790447
C            4.26602405230896       -0.56433726149368       -0.07725031211609
C            5.44789289257364       -1.44149347750459       -0.33376445847111
C            5.54692289826394       -1.82793754687840       -1.81244296892114
C            0.81808371825837       -4.18984963809195       -0.00844639365973
C            1.76105164548214       -5.34843751876911        0.04993747747947
C            2.21114557447431       -5.63891176761908        1.48449567835441
C           -0.56876542464077       -4.23146156057947       -0.03659268454333
C           -1.44111313838367       -5.44299586420668       -0.11444609305721
C           -1.89220812433872       -5.72378868086876       -1.55064723658947
C           -4.22245938975003       -0.81579771290836        0.11184995934265
C           -5.34186656437824       -1.76284773906253        0.39774690452699
C           -5.36888619386858       -2.16181302567126        1.87619189728031
C           -4.26286018367426        0.54439930252308        0.11795804654009
C           -5.44926205713095        1.42142299397703        0.35126628599077
C           -6.00347727137935        1.96849298338338       -0.96758089625883
Pt          -0.00154622327780       -0.00819195004946       -0.00303426290849
H            2.46600192748094        6.65095060026387        1.51968422083305
H            2.37633151042327        4.93571631493918        1.94225342775320
H            0.94654317045780        5.95372153027352        2.09475879199317
H            0.90270950711426        6.27725051434999       -0.37806735738624
H            2.34054775338359        5.27470398589844       -0.54282070008873
H           -2.64955526021485        5.13798772269430        0.47391449571121
H           -1.27287048416921        6.22028143221011        0.29222430415471
H           -1.29260498424589        5.85245155264100       -2.17346642677899
H           -2.65636401348769        4.74988270945996       -2.00530122366183
H           -2.85452683061369        6.46344723859226       -1.61403020726243
H           -3.27314487779849        3.08876811288793        0.08912167803899
H           -1.80171586923986       -0.06289006139043       -1.38879378644920
H           -3.08343735625755       -3.29379125697174        0.09352024547377
H            3.27305427365241       -3.10292657861091       -0.09448954818855
H            1.79046699327358        0.04608545338796        1.38806120625322
H            3.08352266707800        3.27489408676398       -0.09855526262069
H            5.04070016288891        2.55115743472844       -0.96076315879039
H            6.18463153336278        1.22032316275914       -0.79100923006048
H            6.20859035151535        1.53758460622563        1.68035444333453
H            5.04845629608423        2.85685556317299        1.53077644468091
H            6.66916788013934        3.02612044023936        0.84805403027145
H            5.36905465335037       -2.34611852703865        0.27295181472929
H            6.35871994257956       -0.91948820088811       -0.03693117772749
H            6.41415986215779       -2.46297583208403       -1.97909218920219
H            4.65514016260600       -2.36473036227260       -2.12685019821053
H            5.64239625567912       -0.93781136020236       -2.43016164563608
H            1.27103151751612       -6.23461801041947       -0.35805148671390
H            2.63908471636307       -5.14717453061300       -0.56989431912667
H            2.71673556607818       -4.77310416330412        1.90722329166607
H            1.35061871248584       -5.86788743153124        2.10996475464824
H            2.89286486959666       -6.48707789072785        1.50705460611934
H           -2.32151883185985       -5.31081984249855        0.52061898249509
H           -0.89337487543576       -6.30797716438174        0.26439975883695
H           -1.02803467027945       -5.88190545986509       -2.19284456495764
H           -2.51956250033540       -6.61247961334586       -1.58727154798544
H           -2.45717143030169       -4.88104850894594       -1.94376633817092
H           -5.22797914516971       -2.65804421847299       -0.21739320529539
H           -6.29138876103932       -1.29533725840252        0.13338445977900
H           -6.18437005396557       -2.85637359166426        2.06502639842009
H           -4.43234106314410       -2.63613319494864        2.15988692076185
H           -5.50708723027647       -1.28309810337613        2.50211323562477
H           -6.22902153767370        0.85520931989613        0.86134170812490
H           -5.16410112038301        2.25364195669914        0.99825610590026
H           -6.85747837214110        2.61469295604244       -0.77833873783725
H           -6.32220961184390        1.15176502833759       -1.61176334435544
H           -5.24360398832990        2.54144362664645       -1.49357505086881

          :  Hamiltonian                  GFN2-xTB          :
         :: gradient norm              0.000029923549 Eh/a0 ::
         :: HOMO-LUMO gap              0.812021186601 eV    ::
         :: SCC energy              -118.773042398783 Eh    ::
         :: -> dispersion             -0.114903667933 Eh    ::
         :: -> Gsolv                  -0.042718305604 Eh    ::
         :: repulsion energy           1.808626855231 Eh    ::

    * Orbital Energies and Occupations

         #    Occupation            Energy/Eh            Energy/eV
      -------------------------------------------------------------
         1        2.0000           -0.6796365             -18.4939
       ...           ...                  ...                  ...
        98        2.0000           -0.4088790             -11.1262
        99        2.0000           -0.4076369             -11.0924
       100        2.0000           -0.3977624             -10.8237
       101        2.0000           -0.3933260             -10.7029
       102        2.0000           -0.3795268             -10.3275
       103        2.0000           -0.3693730             -10.0512
       104        2.0000           -0.3691039             -10.0438
       105        2.0000           -0.3682819             -10.0215
       106        2.0000           -0.3640755              -9.9070
       107        2.0000           -0.3620200              -9.8511
       108        2.0000           -0.3536288              -9.6227
       109        2.0000           -0.3484206              -9.4810
       110        2.0000           -0.3105061              -8.4493 (HOMO)
       111        0.0000           -0.2806649              -7.6373 (LUMO)
       112                         -0.2438763              -6.6362
       113                         -0.2413602              -6.5677
       114                         -0.2137939              -5.8176
       115                         -0.1784816              -4.8567
       116                         -0.1612293              -4.3873
       117                         -0.1485288              -4.0417
       118                         -0.1208735              -3.2891
       119                         -0.1039072              -2.8275
       120                         -0.0985437              -2.6815
       121                         -0.0947990              -2.5796
       ...                                ...                  ...
       215                          1.2742865              34.6751
      -------------------------------------------------------------
                  HL-Gap            0.0298412 Eh            0.8120 eV

     #   Z          covCN         q      C6AA      α(0)
     1   6 C        3.752    -0.096    22.394     6.748
     2   6 C        3.802    -0.051    21.496     6.601
     3   6 C        3.074    -0.046    29.072     8.840
     4   6 C        3.074    -0.046    29.072     8.840
     5   6 C        3.802    -0.051    21.496     6.601
     6   6 C        3.753    -0.096    22.394     6.748
     7   6 C        3.129     0.036    26.993     8.506
     8   6 C        2.897    -0.066    29.649     8.928
     9   6 C        3.007     0.030    27.307     8.572
    10   7 N        3.521    -0.058    22.354     7.022
    11   6 C        3.007     0.030    27.307     8.572
    12   6 C        2.897    -0.066    29.644     8.927
    13   6 C        3.130     0.036    26.984     8.504
    14   7 N        2.727    -0.135    23.931     7.266
    15   6 C        3.130     0.036    26.983     8.504
    16   6 C        2.897    -0.066    29.641     8.927
    17   6 C        3.007     0.030    27.310     8.572
    18   7 N        3.520    -0.058    22.362     7.023
    19   6 C        3.006     0.030    27.308     8.572
    20   6 C        2.897    -0.066    29.647     8.928
    21   6 C        3.129     0.036    26.991     8.506
    22   7 N        2.727    -0.135    23.930     7.265
    23   6 C        3.029    -0.023    28.537     8.762
    24   6 C        3.803    -0.056    21.583     6.614
    25   6 C        3.753    -0.101    22.490     6.763
    26   6 C        3.028    -0.023    28.552     8.765
    27   6 C        3.803    -0.056    21.572     6.612
    28   6 C        3.753    -0.101    22.481     6.761
    29   6 C        3.074    -0.046    29.071     8.840
    30   6 C        3.802    -0.051    21.497     6.601
    31   6 C        3.752    -0.097    22.406     6.750
    32   6 C        3.073    -0.046    29.072     8.840
    33   6 C        3.802    -0.051    21.497     6.601
    34   6 C        3.752    -0.097    22.406     6.750
    35   6 C        3.029    -0.023    28.549     8.764
    36   6 C        3.803    -0.056    21.572     6.612
    37   6 C        3.753    -0.101    22.482     6.761
    38   6 C        3.029    -0.022    28.536     8.762
    39   6 C        3.803    -0.056    21.582     6.614
    40   6 C        3.753    -0.101    22.491     6.763
    41  78 Pt       3.403    -0.151   359.755    35.739
    42   1 H        0.925     0.031     2.577     2.510
    43   1 H        0.925     0.030     2.588     2.516
    44   1 H        0.925     0.030     2.581     2.512
    45   1 H        0.924     0.030     2.583     2.513
    46   1 H        0.924     0.025     2.659     2.550
    47   1 H        0.924     0.025     2.658     2.550
    48   1 H        0.924     0.030     2.583     2.513
    49   1 H        0.925     0.030     2.581     2.512
    50   1 H        0.925     0.030     2.588     2.516
    51   1 H        0.925     0.031     2.577     2.510
    52   1 H        0.926     0.049     2.333     2.388
    53   1 H        0.884     0.228     0.972     1.543
    54   1 H        0.926     0.050     2.325     2.385
    55   1 H        0.926     0.049     2.327     2.385
    56   1 H        0.885     0.228     0.971     1.542
    57   1 H        0.926     0.049     2.332     2.388
    58   1 H        0.924     0.040     2.443     2.444
    59   1 H        0.924     0.045     2.378     2.411
    60   1 H        0.925     0.036     2.499     2.472
    61   1 H        0.925     0.036     2.504     2.475
    62   1 H        0.925     0.040     2.447     2.446
    63   1 H        0.924     0.039     2.465     2.455
    64   1 H        0.924     0.045     2.385     2.415
    65   1 H        0.925     0.040     2.455     2.450
    66   1 H        0.925     0.037     2.492     2.468
    67   1 H        0.925     0.037     2.485     2.465
    68   1 H        0.924     0.030     2.584     2.514
    69   1 H        0.924     0.025     2.655     2.548
    70   1 H        0.925     0.031     2.579     2.511
    71   1 H        0.925     0.031     2.579     2.511
    72   1 H        0.925     0.031     2.578     2.511
    73   1 H        0.924     0.025     2.654     2.548
    74   1 H        0.924     0.030     2.583     2.513
    75   1 H        0.925     0.030     2.581     2.512
    76   1 H        0.925     0.031     2.578     2.511
    77   1 H        0.925     0.031     2.578     2.511
    78   1 H        0.924     0.039     2.463     2.454
    79   1 H        0.924     0.045     2.385     2.415
    80   1 H        0.925     0.040     2.455     2.450
    81   1 H        0.925     0.037     2.489     2.467
    82   1 H        0.925     0.037     2.486     2.466
    83   1 H        0.924     0.045     2.379     2.412
    84   1 H        0.924     0.040     2.443     2.444
    85   1 H        0.925     0.040     2.447     2.446
    86   1 H        0.925     0.036     2.498     2.472
    87   1 H        0.925     0.036     2.503     2.474

molecular dipole:
                 x           y           z       tot (Debye)
 q only:       -0.004      -0.003       0.019
   full:       -0.003       0.001       0.015       0.040

 projected vibrational frequencies (cm⁻¹)
eigval :       -0.00    -0.00     0.00     0.00     0.00     0.00
eigval :       13.16    23.00    32.52    37.09    39.90    41.98
eigval :       49.72    50.36    51.26    54.20    55.94    58.75
eigval :       61.04    70.33    82.32    84.25   108.59   111.80
eigval :      122.96   133.96   146.28   147.50   159.98   165.38
eigval :      180.19   181.04   182.42   185.66   187.89   191.25
eigval :      194.63   197.96   204.69   210.96   213.59   215.51
eigval :      223.59   235.13   237.82   244.62   262.20   264.83
eigval :      282.94   288.16   293.68   294.60   304.43   314.91
eigval :      316.68   322.56   338.37   350.09   350.20   417.43
eigval :      421.55   428.57   444.06   451.11   468.54   480.37
eigval :      504.82   511.10   514.37   522.99   525.98   566.94
eigval :      578.99   597.54   603.92   606.14   627.07   635.49
eigval :      648.65   651.07   660.52   661.55   664.37   669.64
eigval :      671.34   708.40   722.88   731.73   749.47   759.63
eigval :      764.76   808.95   810.09   811.01   811.26   814.16
eigval :      815.01   816.22   828.35   830.54   832.15   837.53
eigval :      841.02   900.74   907.43   922.11   929.93   934.28
eigval :      954.58   980.97   983.10   998.60   999.08  1011.75
eigval :     1014.63  1020.49  1022.17  1040.40  1040.98  1041.19
eigval :     1041.48  1075.04  1075.35  1075.77  1075.93  1076.77
eigval :     1077.28  1077.33  1077.70  1088.43  1089.10  1100.74
eigval :     1106.71  1112.63  1115.25  1132.29  1136.89  1145.75
eigval :     1149.06  1159.86  1171.49  1178.79  1180.59  1227.35
eigval :     1228.15  1234.61  1239.85  1240.41  1241.22  1244.79
eigval :     1245.21  1276.73  1277.18  1281.25  1290.83  1296.21
eigval :     1303.67  1305.84  1310.75  1314.14  1315.30  1315.89
eigval :     1316.45  1317.31  1322.88  1344.43  1349.97  1359.62
eigval :     1367.79  1380.55  1399.11  1402.28  1403.10  1403.64
eigval :     1403.87  1404.70  1405.33  1406.29  1406.62  1460.08
eigval :     1469.73  1474.03  1474.64  1477.01  1478.70  1491.63
eigval :     1492.42  1492.94  1493.40  1493.61  1493.94  1494.38
eigval :     1494.84  1495.50  1496.20  1496.53  1498.38  1502.32
eigval :     1502.42  1503.32  1504.01  1504.15  1505.30  1506.22
eigval :     1506.32  1507.93  1508.59  1549.16  1550.32  1560.42
eigval :     1585.61  1614.07  1620.27  1648.50  1652.06  2947.36
eigval :     2948.91  2950.56  2950.70  2969.80  2970.22  2970.54
eigval :     2970.66  2979.13  2979.66  2982.83  2983.46  2990.12
eigval :     2990.92  2999.29  3000.06  3017.80  3017.93  3018.16
eigval :     3018.73  3024.33  3024.42  3024.82  3024.91  3028.85
eigval :     3029.72  3029.90  3030.16  3032.01  3032.36  3032.38
eigval :     3032.75  3032.92  3033.13  3033.17  3034.40  3039.77
eigval :     3040.50  3040.76  3043.27  3072.04  3087.88  3098.92
eigval :     3099.62  3099.67  3100.86

   temp. (K)  partition function   enthalpy   heat capacity  entropy
                                   cal/mol     cal/K/mol   cal/K/mol   J/K/mol
 298.15  VIB  0.573E+20            25805.773    151.266    163.783
         ROT  0.508E+08              888.752      2.981     38.241
         INT  0.291E+28            26694.525    154.246    202.024
         TR   0.191E+29             1481.254      4.968     45.622
         TOT                       28175.7789   159.2146   247.6464  1036.1524

       T/K    H(0)-H(T)+PV         H(T)/Eh          T*S/Eh         G(T)/Eh
   ------------------------------------------------------------------------
    298.15    0.449010E-01    0.776797E+00    0.117665E+00    0.659133E+00
   ------------------------------------------------------------------------

         :::::::::::::::::::::::::::::::::::::::::::::::::::::
         ::                  THERMODYNAMIC                  ::
         :::::::::::::::::::::::::::::::::::::::::::::::::::::
         :: total free energy        -116.305282892618 Eh   ::
         ::.................................................::
         :: total energy             -116.964415542972 Eh   ::
         :: zero point energy           0.731896474477 Eh   ::
         :: G(RRHO) w/o ZPVE           -0.072763824124 Eh   ::
         :: G(RRHO) contrib.            0.659132650354 Eh   ::
         :::::::::::::::::::::::::::::::::::::::::::::::::::::

           -------------------------------------------------
          | TOTAL ENERGY             -116.964415542972 Eh   |
          | TOTAL ENTHALPY           -116.187618106776 Eh   |
          | TOTAL FREE ENERGY        -116.305282892618 Eh   |
          | GRADIENT NORM               0.000029807504 Eh/α |
          | HOMO-LUMO GAP               0.812020706760 eV   |
           -------------------------------------------------

 * finished run on 2025/07/18 at 06:06:16.737
