   * xtb version 6.7.1 (edcfbbe) compiled by 'albert@albert-system' on 2024-07-22

   ID    Z sym.   atoms
    1    6 C      1-14, 16-30, 32-44
    2    7 N      15, 31
    3    1 H      45-72

          program call               : xtb data2507/toluene/DCz-OTP/DCz-OTP.xyz --gfn 2 --gbsa toluene --ohess vtight --parallel 40 --molden --ceasefiles --namespace data2507/toluene/DCz-OTP/DCz-OTP_toluene_S0_preOpt
      * Solvation model:               GBSA
        Solvent                        toluene
        Solvent mass                       9.2140E+01 g/mol
          :  Hamiltonian                  GFN2-xTB          :
 * total energy  :  -110.1539822 Eh     change       -0.8728023E-09 Eh
 * total energy  :  -110.1673280 Eh     change       -0.1334577E-01 Eh
 * total energy  :  -110.1702019 Eh     change       -0.2873865E-02 Eh
 * total energy  :  -110.1707615 Eh     change       -0.5596204E-03 Eh
 * total energy  :  -110.1712165 Eh     change       -0.4549725E-03 Eh
 * total energy  :  -110.1714928 Eh     change       -0.2763036E-03 Eh
 * total energy  :  -110.1717933 Eh     change       -0.3005426E-03 Eh
 * total energy  :  -110.1720399 Eh     change       -0.2466263E-03 Eh
 * total energy  :  -110.1722089 Eh     change       -0.1689339E-03 Eh
 * total energy  :  -110.1723358 Eh     change       -0.1269502E-03 Eh
 * total energy  :  -110.1730571 Eh     change       -0.1643418E-06 Eh
 * total energy  :  -110.1730572 Eh     change       -0.1154627E-06 Eh
 * total energy  :  -110.1730573 Eh     change       -0.1305228E-06 Eh
 * total energy  :  -110.1730575 Eh     change       -0.1806010E-06 Eh
 * total energy  :  -110.1730578 Eh     change       -0.2338160E-06 Eh
 * total energy  :  -110.1730580 Eh     change       -0.2574805E-06 Eh
 * total energy  :  -110.1730583 Eh     change       -0.2530609E-06 Eh
 * total energy  :  -110.1730585 Eh     change       -0.2653690E-06 Eh
 * total energy  :  -110.1730585 Eh     change       -0.2603187E-08 Eh
   *** GEOMETRY OPTIMIZATION CONVERGED AFTER 94 ITERATIONS ***

 final structure:
================
72
 xtb: 6.7.1 (edcfbbe)
C            1.35036190678019        0.68990012003886        3.37273568855055
C            1.24318754031451        1.93915332065662        2.78661798203255
C            1.52411712529856        2.10854112789381        1.43279134830503
C            1.42511115710444        3.43534423370572        0.79773930347818
C            2.02189684413386        4.53437690042912        1.40918612244456
C            1.99787490438336        5.78129530815560        0.81204239751631
C            1.37750683239094        5.94607519202365       -0.41536505632068
C            0.77559572301853        4.86370799364116       -1.03130037496516
C            0.78322681673411        3.60754660052770       -0.43528942955657
C            0.08958897176518        2.48636256013309       -1.10266100522343
C            0.48151386003872        2.07186063738215       -2.37215652522207
C           -0.15078041752524        1.00229707596362       -2.98076151313620
C           -1.19352928290692        0.35255855307619       -2.34643728438905
C           -1.62603501985106        0.79094540480892       -1.09712774910818
N           -2.71952008955827        0.16552814959408       -0.47833273359895
C           -3.92651573749714       -0.12296578182124       -1.08640222011063
C           -4.37749675793105        0.20101324210777       -2.35885753289994
C           -5.65803596914459       -0.18245298350804       -2.70919729009239
C           -6.48320443136180       -0.86565145361697       -1.81779746104913
C           -6.05041703920346       -1.16916696353850       -0.54237879584996
C           -4.76682896273214       -0.79306235384315       -0.16713692316670
C           -4.02064123554231       -0.91329793646229        1.05386342152247
C           -4.29892024328310       -1.48070797425254        2.29090429400606
C           -3.33232563135987       -1.42953246956054        3.27564744262412
C           -2.09887453667988       -0.82806848047185        3.03512133457183
C           -1.79753644980195       -0.26028017508620        1.81153785560547
C           -2.76828003155762       -0.29846356617533        0.82119452037674
C           -0.97513297188610        1.85060345117397       -0.47565981537852
C            1.92434482305279        1.00568295274623        0.68598499085405
C            2.02475525936163       -0.24907990001151        1.27255023363308
N            2.41735372347449       -1.34914976569892        0.49208139719550
C            3.54721134789737       -1.41483186460850       -0.29717561420629
C            4.56405251093552       -0.48477330107458       -0.46364512707604
C            5.61190795241697       -0.81694508787629       -1.30098796938844
C            5.65965999328187       -2.04724230395804       -1.95426638267593
C            4.66036574966557       -2.98375027484175       -1.77826910564499
C            3.59492637857709       -2.67267930469323       -0.94269031347074
C            2.42152949527381       -3.38878952127888       -0.52614404002298
C            1.90593564382636       -4.64242514301719       -0.83094682490882
C            0.70642850120074       -5.02178952379298       -0.26158857244854
C            0.01641364527963       -4.16457122190174        0.59388600227714
C            0.51081441468505       -2.91529920167064        0.91622368081677
C            1.72433367082699       -2.53535562173338        0.36068062072320
C            1.73696069982524       -0.40847031727643        2.62511545376779
H            1.13130628899183        0.57092872660800        4.42368034758162
H            0.92261711552882        2.78581316467087        3.37538754985773
H            2.52813131628859        4.39914706196396        2.35419927825639
H            2.46931064037225        6.62174706371422        1.30015048888624
H            1.36031642270604        6.91581326981423       -0.89076124831718
H            0.27771521271118        4.98853857888077       -1.98238889607564
H            1.29992771519281        2.57417632732324       -2.86731110529619
H            0.17635354017651        0.66518770389155       -3.95344571705590
H           -1.67155626333110       -0.49784491805991       -2.80878054893499
H           -3.75514363502907        0.74684607414016       -3.05176870685541
H           -6.02974770614930        0.05730498068941       -3.69496232719665
H           -7.47740997300679       -1.15023728986727       -2.13006594797291
H           -6.69568686639392       -1.68277664921075        0.15485089122408
H           -5.25261254428832       -1.95331387186818        2.47358349052292
H           -3.52903208583793       -1.86368875778336        4.24509844410746
H           -1.35759731778015       -0.80814997363987        3.82052236105070
H           -0.83411481158553        0.19070016176854        1.63338295359141
H           -1.31342082298200        2.19902550081238        0.48887668510119
H            2.15835054898398        1.11703309416387       -0.36139571087226
H            4.54347941345548        0.46494422443911        0.04979552157276
H            6.41467899678504       -0.10905041299201       -1.44896570516499
H            6.49585595424747       -2.26969022654279       -2.60104575441875
H            4.70480703449173       -3.94204016372509       -2.27431464194459
H            2.43333269352089       -5.30194041023044       -1.50427563085717
H            0.28923130927945       -5.99279727051817       -0.48571572221661
H           -0.92799619546056       -4.48042009635318        1.01330966574481
H           -0.03970990663609       -2.25572750214110        1.56895587543228
H            1.82571324202087       -1.38351872227661        3.08007767985192

          :  Hamiltonian                  GFN2-xTB          :
         :: gradient norm              0.000038684668 Eh/a0 ::
         :: HOMO-LUMO gap              2.974355363813 eV    ::
         :: SCC energy              -112.288386988236 Eh    ::
         :: -> dispersion             -0.106829588616 Eh    ::
         :: -> Gsolv                  -0.042081172510 Eh    ::
         :: repulsion energy           2.115328457880 Eh    ::

    * Orbital Energies and Occupations

         #    Occupation            Energy/Eh            Energy/eV
      -------------------------------------------------------------
         1        2.0000           -0.6750647             -18.3694
       ...           ...                  ...                  ...
        91        2.0000           -0.4164880             -11.3332
        92        2.0000           -0.4139413             -11.2639
        93        2.0000           -0.4128668             -11.2347
        94        2.0000           -0.4100752             -11.1587
        95        2.0000           -0.4091169             -11.1326
        96        2.0000           -0.4045085             -11.0072
        97        2.0000           -0.4038484             -10.9893
        98        2.0000           -0.4001215             -10.8879
        99        2.0000           -0.3886090             -10.5746
       100        2.0000           -0.3780541             -10.2874
       101        2.0000           -0.3771672             -10.2632
       102        2.0000           -0.3618350              -9.8460
       103        2.0000           -0.3611717              -9.8280 (HOMO)
       104                         -0.2518662              -6.8536 (LUMO)
       105                         -0.2455970              -6.6830
       106                         -0.2442326              -6.6459
       107                         -0.2398342              -6.5262
       108                         -0.2336920              -6.3591
       109                         -0.2311027              -6.2886
       110                         -0.2214871              -6.0270
       111                         -0.2205047              -6.0002
       112                         -0.2169114              -5.9025
       113                         -0.2070659              -5.6346
       114                         -0.1890703              -5.1449
       ...                                ...                  ...
       204                          0.7460388              20.3007
      -------------------------------------------------------------
                  HL-Gap            0.1093056 Eh            2.9744 eV

     #   Z          covCN         q      C6AA      α(0)
     1   6 C        2.918    -0.027    28.683     8.782
     2   6 C        2.923    -0.038    28.944     8.823
     3   6 C        2.976     0.014    27.691     8.632
     4   6 C        2.980     0.006    27.884     8.662
     5   6 C        2.925    -0.034    28.846     8.808
     6   6 C        2.918    -0.031    28.784     8.798
     7   6 C        2.918    -0.031    28.769     8.796
     8   6 C        2.924    -0.033    28.834     8.806
     9   6 C        2.981     0.007    27.864     8.659
    10   6 C        2.977     0.016    27.657     8.627
    11   6 C        2.924    -0.039    28.958     8.825
    12   6 C        2.918    -0.029    28.724     8.789
    13   6 C        2.923    -0.045    29.124     8.850
    14   6 C        2.911     0.064    26.563     8.451
    15   7 N        2.801    -0.048    22.160     6.992
    16   6 C        3.076     0.048    26.845     8.495
    17   6 C        2.910    -0.052    29.287     8.874
    18   6 C        2.923    -0.035    28.878     8.813
    19   6 C        2.919    -0.043    29.064     8.841
    20   6 C        2.912    -0.035    28.873     8.811
    21   6 C        3.067    -0.019    28.405     8.739
    22   6 C        3.067    -0.019    28.400     8.739
    23   6 C        2.912    -0.035    28.872     8.811
    24   6 C        2.919    -0.043    29.060     8.840
    25   6 C        2.924    -0.035    28.870     8.811
    26   6 C        2.910    -0.052    29.287     8.874
    27   6 C        3.075     0.049    26.830     8.493
    28   6 C        2.927    -0.047    29.170     8.857
    29   6 C        2.929    -0.047    29.163     8.856
    30   6 C        2.911     0.064    26.570     8.452
    31   7 N        2.803    -0.050    22.207     6.999
    32   6 C        3.076     0.048    26.843     8.494
    33   6 C        2.909    -0.052    29.289     8.874
    34   6 C        2.924    -0.035    28.881     8.813
    35   6 C        2.919    -0.043    29.073     8.842
    36   6 C        2.912    -0.035    28.876     8.812
    37   6 C        3.067    -0.019    28.414     8.741
    38   6 C        3.067    -0.019    28.423     8.742
    39   6 C        2.912    -0.035    28.883     8.813
    40   6 C        2.919    -0.043    29.068     8.841
    41   6 C        2.924    -0.035    28.867     8.811
    42   6 C        2.910    -0.053    29.315     8.878
    43   6 C        3.076     0.049    26.830     8.492
    44   6 C        2.921    -0.043    29.069     8.842
    45   1 H        0.926     0.040     2.451     2.448
    46   1 H        0.926     0.040     2.446     2.446
    47   1 H        0.926     0.037     2.495     2.470
    48   1 H        0.926     0.035     2.516     2.481
    49   1 H        0.926     0.035     2.515     2.480
    50   1 H        0.926     0.035     2.520     2.482
    51   1 H        0.926     0.038     2.481     2.463
    52   1 H        0.926     0.039     2.460     2.453
    53   1 H        0.926     0.040     2.451     2.448
    54   1 H        0.926     0.030     2.587     2.515
    55   1 H        0.926     0.030     2.587     2.515
    56   1 H        0.926     0.028     2.618     2.530
    57   1 H        0.926     0.030     2.585     2.514
    58   1 H        0.926     0.030     2.588     2.516
    59   1 H        0.926     0.028     2.617     2.530
    60   1 H        0.926     0.029     2.598     2.521
    61   1 H        0.926     0.027     2.623     2.533
    62   1 H        0.926     0.038     2.471     2.458
    63   1 H        0.926     0.039     2.462     2.454
    64   1 H        0.926     0.028     2.611     2.527
    65   1 H        0.926     0.029     2.595     2.519
    66   1 H        0.926     0.027     2.625     2.534
    67   1 H        0.926     0.029     2.594     2.519
    68   1 H        0.926     0.030     2.592     2.518
    69   1 H        0.926     0.027     2.633     2.537
    70   1 H        0.926     0.027     2.625     2.534
    71   1 H        0.926     0.030     2.581     2.513
    72   1 H        0.926     0.040     2.445     2.445

molecular dipole:
                 x           y           z       tot (Debye)
 q only:        0.327       1.023       0.125
   full:        0.340       1.054       0.110       2.828

 projected vibrational frequencies (cm⁻¹)
eigval :       -0.00    -0.00    -0.00     0.00     0.00     0.00
eigval :        7.22    12.09    24.24    32.96    38.70    43.95
eigval :       55.88    67.17    74.76    86.65    88.82   104.34
eigval :      111.53   114.82   142.42   150.48   162.95   171.04
eigval :      202.55   214.89   230.07   237.00   253.00   262.85
eigval :      270.34   273.48   276.94   299.88   310.41   325.90
eigval :      353.33   363.42   384.39   389.64   398.62   400.22
eigval :      422.01   425.43   430.39   435.44   438.92   446.25
eigval :      505.15   511.26   518.12   519.16   529.81   531.04
eigval :      540.24   542.89   557.35   564.11   586.29   587.88
eigval :      592.63   594.83   610.20   613.79   626.32   639.10
eigval :      670.85   672.15   675.55   678.92   682.19   700.22
eigval :      707.85   710.72   712.51   753.55   755.20   767.39
eigval :      770.63   779.31   779.65   781.67   782.46   793.09
eigval :      801.85   808.13   866.09   869.58   872.27   876.61
eigval :      887.39   893.64   894.18   896.13   897.33   900.38
eigval :      901.73   902.93   906.76   907.42   909.97   920.11
eigval :      921.03   922.52   923.36   927.96   930.61   931.13
eigval :      931.97   935.57   947.67   998.73  1000.30  1010.78
eigval :     1011.76  1036.12  1069.03  1070.42  1072.87  1075.21
eigval :     1086.07  1100.78  1116.87  1117.49  1125.52  1128.51
eigval :     1144.34  1150.24  1151.90  1173.88  1174.18  1178.41
eigval :     1179.05  1179.77  1180.37  1180.63  1189.67  1190.42
eigval :     1232.18  1235.52  1235.90  1238.30  1246.73  1256.70
eigval :     1259.61  1277.28  1287.35  1299.72  1300.26  1302.55
eigval :     1303.75  1309.07  1312.76  1315.56  1354.30  1355.02
eigval :     1357.85  1358.65  1362.28  1363.06  1406.58  1417.79
eigval :     1425.21  1427.04  1427.22  1435.58  1452.63  1461.91
eigval :     1472.04  1474.29  1478.03  1486.77  1486.97  1493.18
eigval :     1566.13  1570.07  1571.22  1573.87  1575.54  1586.56
eigval :     1587.40  1588.03  1589.10  1592.08  1597.48  1597.79
eigval :     1613.28  1613.55  3069.70  3070.46  3071.40  3071.46
eigval :     3071.95  3073.85  3075.06  3075.39  3076.19  3076.54
eigval :     3077.02  3079.89  3080.91  3082.52  3084.44  3085.40
eigval :     3086.80  3087.29  3088.93  3089.87  3090.66  3090.81
eigval :     3092.67  3094.82  3095.74  3099.65  3104.07  3109.56

   temp. (K)  partition function   enthalpy   heat capacity  entropy
                                   cal/mol     cal/K/mol   cal/K/mol   J/K/mol
 298.15  VIB  0.284E+15            19332.827    127.271    118.776
         ROT  0.449E+08              888.752      2.981     37.998
         INT  0.128E+23            20221.579    130.252    156.775
         TR   0.128E+29             1481.254      4.968     44.837
         TOT                       21702.8331   135.2204   201.6111   843.5407

       T/K    H(0)-H(T)+PV         H(T)/Eh          T*S/Eh         G(T)/Eh
   ------------------------------------------------------------------------
    298.15    0.345857E-01    0.592149E+00    0.957919E-01    0.496357E+00
   ------------------------------------------------------------------------

         :::::::::::::::::::::::::::::::::::::::::::::::::::::
         ::                  THERMODYNAMIC                  ::
         :::::::::::::::::::::::::::::::::::::::::::::::::::::
         :: total free energy        -109.676701620883 Eh   ::
         ::.................................................::
         :: total energy             -110.173058529920 Eh   ::
         :: zero point energy           0.557563163650 Eh   ::
         :: G(RRHO) w/o ZPVE           -0.061206254613 Eh   ::
         :: G(RRHO) contrib.            0.496356909037 Eh   ::
         :::::::::::::::::::::::::::::::::::::::::::::::::::::

           -------------------------------------------------
          | TOTAL ENERGY             -110.173058529920 Eh   |
          | TOTAL ENTHALPY           -109.580909700210 Eh   |
          | TOTAL FREE ENERGY        -109.676701620883 Eh   |
          | GRADIENT NORM               0.000038682818 Eh/α |
          | HOMO-LUMO GAP               2.974355465895 eV   |
           -------------------------------------------------

 * finished run on 2025/09/08 at 23:52:03.117
