   * xtb version 6.7.1 (edcfbbe) compiled by 'albert@albert-system' on 2024-07-22

   ID    Z sym.   atoms
    1    6 C      1-14, 16-30, 32-44
    2    7 N      15, 31
    3    1 H      45-72

          program call               : xtb data2507/toluene/DCz-OTP/DCz-OTP_toluene_T1_crest.xyz --gfn 2 --uhf 2 --gbsa toluene --ohess vtight --parallel 40 --molden --ceasefiles --namespace data2507/toluene/DCz-OTP/DCz-OTP_toluene_T1_finalOpt
      * Solvation model:               GBSA
        Solvent                        toluene
        Solvent mass                       9.2140E+01 g/mol
          :  Hamiltonian                  GFN2-xTB          :
 * total energy  :  -110.0663193 Eh     change       -0.1753567E-07 Eh
 * total energy  :  -110.0663785 Eh     change       -0.5927391E-04 Eh
 * total energy  :  -110.0664581 Eh     change       -0.7951643E-04 Eh
 * total energy  :  -110.0664882 Eh     change       -0.3018839E-04 Eh
 * total energy  :  -110.0665582 Eh     change       -0.6999140E-04 Eh
 * total energy  :  -110.0665718 Eh     change       -0.1355459E-04 Eh
 * total energy  :  -110.0665808 Eh     change       -0.9004009E-05 Eh
 * total energy  :  -110.0665850 Eh     change       -0.4162295E-05 Eh
 * total energy  :  -110.0665882 Eh     change       -0.3296832E-05 Eh
 * total energy  :  -110.0665912 Eh     change       -0.2941760E-05 Eh
 * total energy  :  -110.0666046 Eh     change       -0.1477551E-05 Eh
 * total energy  :  -110.0666055 Eh     change       -0.9724329E-06 Eh
 * total energy  :  -110.0666060 Eh     change       -0.5193137E-06 Eh
 * total energy  :  -110.0666062 Eh     change       -0.1099717E-06 Eh
 * total energy  :  -110.0666064 Eh     change       -0.2100128E-06 Eh
 * total energy  :  -110.0666066 Eh     change       -0.2154056E-06 Eh
 * total energy  :  -110.0666069 Eh     change       -0.3688845E-06 Eh
 * total energy  :  -110.0666071 Eh     change       -0.1478046E-06 Eh
 * total energy  :  -110.0666072 Eh     change       -0.6043604E-07 Eh
   *** GEOMETRY OPTIMIZATION CONVERGED AFTER 26 ITERATIONS ***

 final structure:
================
72
 xtb: 6.7.1 (edcfbbe)
C            1.47222933232810       -0.30619879851997        3.55632529576906
C            2.61428723602674       -0.03013035682103        2.85197499728653
C            2.74629063836487       -0.38694669185410        1.47960171128757
C            3.91407192206234       -0.05435170326307        0.73387002676473
C            5.16180282141554        0.05445532850304        1.39111875714274
C            6.34340228758332        0.04183611281046        0.71028417921460
C            6.34378032646546       -0.05568379262082       -0.70498708643907
C            5.16259526845310       -0.06607218112624       -1.38658873818951
C            3.91465731363426        0.04503851998128       -0.73014756068583
C            2.74801357487931        0.37987927283576       -1.47668574059406
C            2.61621341115080        0.02313569456060       -2.84908561992962
C            1.47521022651881        0.30150400058097       -3.55424957226442
C            0.40329197418867        0.96066038115142       -2.95453130673913
C            0.50290643192614        1.32801126078123       -1.60605412879767
N           -0.58056740259451        1.99434894407046       -1.00793928094257
C           -0.53000454181179        3.18010379733613       -0.30404152913672
C            0.56078519587200        3.97828252218130        0.01457194200224
C            0.32434812401023        5.14883274416618        0.71150691082537
C           -0.96391341362973        5.52912686068294        1.08028441398261
C           -2.05689732650471        4.75124704365579        0.74605965313897
C           -1.84465276061004        3.57140666773399        0.04692294768106
C           -2.72477997038487        2.56362503406244       -0.47954568224826
C           -4.10254858066906        2.40002557671277       -0.47538993305305
C           -4.63889931961492        1.28851877055597       -1.09762896972591
C           -3.81766612170846        0.33403021158669       -1.69304156181140
C           -2.44349679981519        0.47121183661955       -1.70283636945045
C           -1.89988048813484        1.60818007393464       -1.11820555235673
C            1.64775944449872        1.06020356729828       -0.88752930463894
C            1.64502500140982       -1.06491394333612        0.88960829895955
C            0.49904650138665       -1.33019635202165        1.60725688309184
N           -0.58561286003163       -1.99373845051758        1.00815832405746
C           -0.53752624550173       -3.17951696313964        0.30415926204461
C            0.55142204932703       -3.98069205056967       -0.01322669619609
C            0.31255305358276       -5.15054049358587       -0.71051042668119
C           -0.97633132343868       -5.52721555399435       -1.08084013949681
C           -2.06752926783874       -4.74627750748006       -0.74791934000529
C           -1.85284221816330       -3.56708489303608       -0.04843727482047
C           -2.73076634740425       -2.55684773590503        0.47700731020368
C           -4.10805173907164       -2.38926503180150        0.47106521968271
C           -4.64200706245716       -1.27631702064640        1.09279170236237
C           -3.81881898815353       -0.32432286312757        1.68949450193858
C           -2.44506540013684       -0.46546485260884        1.70106270553953
C           -1.90396294590933       -1.60386172485145        1.11688281206134
C            0.39928433640233       -0.96288597893861        2.95572890664177
H            1.39521810914894       -0.01086205174789        4.59290648294619
H            3.40593761896552        0.51950497512298        3.33592564040599
H            5.18746655412109        0.04780347309382        2.47029167283784
H            7.28304532251209        0.06937477565931        1.24184821399461
H            7.28371829200167       -0.08494968420344       -1.23593674102372
H            5.18895396049915       -0.05940740026977       -2.46574550741185
H            3.40702936388972       -0.52827263991844       -3.33239272663091
H            1.39825662829823        0.00613922772888       -4.59082760167147
H           -0.47549773518012        1.21947537440477       -3.52304992170015
H            1.56161115302145        3.70519988154697       -0.28274980642549
H            1.15797397416775        5.78435152977522        0.97231216489747
H           -1.10748975576591        6.45014656932551        1.62586589016608
H           -3.05696730983973        5.05524639252871        1.01675974376266
H           -4.73957796929049        3.12925505991988        0.00241992045296
H           -5.70937180478770        1.14836136833970       -1.11516624731812
H           -4.26354580093931       -0.53531686528621       -2.15249018121222
H           -1.81504426650804       -0.28383971440392       -2.14991839943797
H            1.72109802060132        1.40267050704933        0.13173551752321
H            1.71835273343951       -1.40753518211460       -0.12960365997761
H            1.55264746129620       -3.71037071583367        0.28528583761028
H            1.14469036565356       -5.78842664249871       -0.97027938386603
H           -1.12183582902569       -6.44781077079452       -1.62662975289953
H           -3.06809667407434       -5.04736575954451       -1.01999959934166
H           -4.74656956989272       -3.11660145859275       -0.00764199147215
H           -5.71209204594682       -1.13308422196286        1.10897304751168
H           -4.26279616458282        0.54622820738287        2.14850560670463
H           -1.81501091841358        0.28768049970639        2.14910777182795
H           -0.48053425116874       -1.21977815474045        3.52352616427329

          :  Hamiltonian                  GFN2-xTB          :
         :: gradient norm              0.000045456603 Eh/a0 ::
         :: HOMO-LUMO gap              0.614980281528 eV    ::
         :: SCC energy              -112.159214724966 Eh    ::
         :: -> dispersion             -0.110745227619 Eh    ::
         :: -> Gsolv                  -0.039532000486 Eh    ::
         :: repulsion energy           2.092607485492 Eh    ::

    * Orbital Energies and Occupations

         #    Occupation            Energy/Eh            Energy/eV
      -------------------------------------------------------------
         1        2.0000           -0.6791333             -18.4802
       ...           ...                  ...                  ...
        92        2.0000           -0.4153204             -11.3014
        93        2.0000           -0.4113021             -11.1921
        94        2.0000           -0.4093350             -11.1386
        95        2.0000           -0.4067933             -11.0694
        96        2.0000           -0.4031275             -10.9697
        97        2.0000           -0.4022598             -10.9460
        98        2.0000           -0.3887738             -10.5791
        99        2.0000           -0.3815217             -10.3817
       100        2.0000           -0.3814638             -10.3802
       101        1.9783           -0.3651768              -9.9370
       102        1.9321           -0.3640456              -9.9062
       103        1.0896           -0.3593537              -9.7785
       104        1.0000           -0.2709020              -7.3716 (HOMO)
       105        0.0000           -0.2483023              -6.7567 (LUMO)
       106        0.0000           -0.2479726              -6.7477
       107                         -0.2387937              -6.4979
       108                         -0.2302796              -6.2662
       109                         -0.2256952              -6.1415
       110                         -0.2248680              -6.1190
       111                         -0.2197130              -5.9787
       112                         -0.1995809              -5.4309
       113                         -0.1975452              -5.3755
       114                         -0.1894097              -5.1541
       115                         -0.1882732              -5.1232
       ...                                ...                  ...
       204                          0.7421876              20.1960
      -------------------------------------------------------------
                  HL-Gap            0.0225997 Eh            0.6150 eV

     #   Z          covCN         q      C6AA      α(0)
     1   6 C        2.911    -0.033    28.824     8.804
     2   6 C        2.919    -0.040    28.988     8.829
     3   6 C        2.968     0.008    27.848     8.656
     4   6 C        2.968    -0.006    28.157     8.704
     5   6 C        2.916    -0.036    28.905     8.816
     6   6 C        2.912    -0.039    28.978     8.827
     7   6 C        2.912    -0.039    28.978     8.827
     8   6 C        2.916    -0.036    28.904     8.816
     9   6 C        2.968    -0.006    28.157     8.704
    10   6 C        2.968     0.008    27.848     8.656
    11   6 C        2.919    -0.040    28.988     8.829
    12   6 C        2.911    -0.033    28.824     8.804
    13   6 C        2.920    -0.051    29.271     8.872
    14   6 C        2.905     0.060    26.652     8.465
    15   7 N        2.803    -0.037    21.958     6.960
    16   6 C        3.073     0.049    26.833     8.493
    17   6 C        2.909    -0.048    29.190     8.859
    18   6 C        2.923    -0.034    28.841     8.807
    19   6 C        2.919    -0.039    28.981     8.828
    20   6 C        2.912    -0.033    28.823     8.803
    21   6 C        3.068    -0.016    28.345     8.730
    22   6 C        3.066    -0.016    28.343     8.730
    23   6 C        2.912    -0.032    28.806     8.801
    24   6 C        2.920    -0.037    28.926     8.820
    25   6 C        2.923    -0.032    28.801     8.801
    26   6 C        2.910    -0.046    29.147     8.853
    27   6 C        3.077     0.050    26.802     8.488
    28   6 C        2.922    -0.054    29.349     8.884
    29   6 C        2.922    -0.054    29.349     8.884
    30   6 C        2.905     0.060    26.652     8.465
    31   7 N        2.803    -0.037    21.958     6.960
    32   6 C        3.073     0.049    26.833     8.493
    33   6 C        2.909    -0.048    29.190     8.859
    34   6 C        2.923    -0.034    28.841     8.807
    35   6 C        2.919    -0.039    28.981     8.828
    36   6 C        2.912    -0.033    28.823     8.803
    37   6 C        3.068    -0.016    28.345     8.730
    38   6 C        3.066    -0.016    28.343     8.730
    39   6 C        2.912    -0.032    28.806     8.801
    40   6 C        2.920    -0.037    28.926     8.820
    41   6 C        2.923    -0.032    28.801     8.801
    42   6 C        2.910    -0.046    29.147     8.853
    43   6 C        3.077     0.050    26.802     8.488
    44   6 C        2.920    -0.051    29.271     8.872
    45   1 H        0.926     0.034     2.532     2.488
    46   1 H        0.926     0.036     2.507     2.476
    47   1 H        0.926     0.030     2.589     2.516
    48   1 H        0.926     0.024     2.668     2.554
    49   1 H        0.926     0.024     2.668     2.554
    50   1 H        0.926     0.030     2.589     2.516
    51   1 H        0.926     0.036     2.507     2.476
    52   1 H        0.926     0.034     2.532     2.488
    53   1 H        0.926     0.035     2.515     2.480
    54   1 H        0.926     0.034     2.535     2.490
    55   1 H        0.926     0.034     2.537     2.491
    56   1 H        0.926     0.033     2.548     2.496
    57   1 H        0.926     0.035     2.513     2.479
    58   1 H        0.926     0.036     2.503     2.474
    59   1 H        0.926     0.034     2.528     2.486
    60   1 H        0.926     0.033     2.542     2.493
    61   1 H        0.926     0.031     2.575     2.509
    62   1 H        0.926     0.037     2.489     2.467
    63   1 H        0.926     0.037     2.489     2.467
    64   1 H        0.926     0.034     2.535     2.490
    65   1 H        0.926     0.034     2.537     2.491
    66   1 H        0.926     0.033     2.548     2.496
    67   1 H        0.926     0.035     2.513     2.479
    68   1 H        0.926     0.036     2.503     2.474
    69   1 H        0.926     0.034     2.528     2.486
    70   1 H        0.926     0.033     2.542     2.493
    71   1 H        0.926     0.031     2.575     2.509
    72   1 H        0.926     0.035     2.515     2.480

molecular dipole:
                 x           y           z       tot (Debye)
 q only:       -0.584       0.001      -0.000
   full:       -0.467       0.001      -0.000       1.186

 projected vibrational frequencies (cm⁻¹)
eigval :       -0.00    -0.00    -0.00    -0.00     0.00     0.00
eigval :       12.57    22.54    28.00    30.75    40.80    57.43
eigval :       63.63    69.02    73.42    88.53    90.32   110.98
eigval :      114.25   122.64   144.97   152.58   158.88   178.95
eigval :      205.98   215.00   222.30   238.15   251.68   259.82
eigval :      273.32   274.54   279.57   295.90   313.37   323.11
eigval :      361.75   372.13   380.33   384.48   398.88   399.04
eigval :      421.88   423.28   425.33   428.99   436.79   437.61
eigval :      462.98   477.97   511.51   516.05   518.28   525.25
eigval :      539.56   540.57   548.67   548.88   572.97   576.47
eigval :      583.94   585.07   603.85   606.30   608.43   613.30
eigval :      644.31   646.52   661.62   674.90   675.35   678.01
eigval :      695.55   710.71   711.00   726.76   749.34   753.78
eigval :      757.70   759.45   766.94   768.41   769.31   778.67
eigval :      778.92   787.86   832.17   836.11   838.58   844.66
eigval :      864.85   873.27   873.91   875.49   882.92   888.82
eigval :      893.36   895.15   895.57   901.80   902.51   903.26
eigval :      903.90   911.27   911.42   919.29   919.81   921.49
eigval :      921.93   922.64   927.61   932.30   977.27  1006.81
eigval :     1010.08  1011.60  1036.25  1058.59  1068.10  1068.29
eigval :     1071.29  1071.93  1110.91  1112.68  1123.61  1127.42
eigval :     1142.78  1145.61  1146.33  1169.05  1171.73  1173.91
eigval :     1176.26  1177.71  1178.50  1180.66  1181.93  1192.85
eigval :     1199.60  1231.07  1231.54  1234.06  1235.30  1253.98
eigval :     1254.53  1270.17  1278.45  1291.82  1292.13  1295.46
eigval :     1295.79  1321.26  1322.42  1339.06  1345.25  1345.42
eigval :     1351.90  1353.47  1354.74  1359.36  1359.51  1378.19
eigval :     1388.68  1415.25  1415.68  1418.26  1418.83  1429.80
eigval :     1436.51  1446.43  1465.62  1465.97  1478.59  1483.13
eigval :     1483.68  1484.28  1486.89  1507.72  1552.13  1565.38
eigval :     1568.07  1570.05  1582.47  1583.22  1585.64  1586.72
eigval :     1602.93  1605.06  3070.47  3071.47  3071.76  3073.66
eigval :     3073.80  3075.97  3076.99  3077.41  3079.18  3079.44
eigval :     3081.30  3081.50  3084.09  3087.33  3087.65  3088.13
eigval :     3088.39  3090.06  3094.83  3095.09  3095.48  3097.03
eigval :     3099.70  3100.15  3103.69  3105.03  3108.03  3110.99

   temp. (K)  partition function   enthalpy   heat capacity  entropy
                                   cal/mol     cal/K/mol   cal/K/mol   J/K/mol
 298.15  VIB  0.570E+14            19506.315    129.929    118.280
         ROT  0.195E+08              888.752      2.981     36.337
         INT  0.111E+22            20395.067    132.910    154.617
         TR   0.128E+29             1481.254      4.968     44.837
         TOT                       21876.3212   137.8785   199.4534   834.5129

       T/K    H(0)-H(T)+PV         H(T)/Eh          T*S/Eh         G(T)/Eh
   ------------------------------------------------------------------------
    298.15    0.348621E-01    0.587944E+00    0.947667E-01    0.493178E+00
   ------------------------------------------------------------------------

         :::::::::::::::::::::::::::::::::::::::::::::::::::::
         ::                  THERMODYNAMIC                  ::
         :::::::::::::::::::::::::::::::::::::::::::::::::::::
         :: total free energy        -109.573429730136 Eh   ::
         ::.................................................::
         :: total energy             -110.066607239352 Eh   ::
         :: zero point energy           0.553082109241 Eh   ::
         :: G(RRHO) w/o ZPVE           -0.059904600025 Eh   ::
         :: G(RRHO) contrib.            0.493177509216 Eh   ::
         :::::::::::::::::::::::::::::::::::::::::::::::::::::

           -------------------------------------------------
          | TOTAL ENERGY             -110.066607239352 Eh   |
          | TOTAL ENTHALPY           -109.478662993133 Eh   |
          | TOTAL FREE ENERGY        -109.573429730136 Eh   |
          | GRADIENT NORM               0.000044676276 Eh/α |
          | HOMO-LUMO GAP               0.614969777448 eV   |
           -------------------------------------------------

 * finished run on 2025/09/09 at 00:00:45.440
