   * xtb version 6.7.1 (edcfbbe) compiled by 'albert@albert-system' on 2024-07-22

   ID    Z sym.   atoms
    1    6 C      1-14, 16-30, 32-44
    2    7 N      15, 31
    3    1 H      45-72

          program call               : xtb data2507/toluene/DCz-OTP/DCz-OTP_toluene_S0_finalOpt.xtbopt.xyz --gfn 2 --uhf 2 --gbsa toluene --ohess vtight --parallel 40 --molden --ceasefiles --namespace data2507/toluene/DCz-OTP/DCz-OTP_toluene_T1_preOpt
      * Solvation model:               GBSA
        Solvent                        toluene
        Solvent mass                       9.2140E+01 g/mol
          :  Hamiltonian                  GFN2-xTB          :
 * total energy  :  -110.0587069 Eh     change       -0.3408360E-08 Eh
 * total energy  :  -110.0600662 Eh     change       -0.1359369E-02 Eh
 * total energy  :  -110.0604384 Eh     change       -0.3721811E-03 Eh
 * total energy  :  -110.0605392 Eh     change       -0.1007785E-03 Eh
 * total energy  :  -110.0606740 Eh     change       -0.1347574E-03 Eh
 * total energy  :  -110.0607793 Eh     change       -0.1053304E-03 Eh
 * total energy  :  -110.0608982 Eh     change       -0.1188862E-03 Eh
 * total energy  :  -110.0609876 Eh     change       -0.8947255E-04 Eh
 * total energy  :  -110.0610463 Eh     change       -0.5860527E-04 Eh
 * total energy  :  -110.0611233 Eh     change       -0.7707141E-04 Eh
 * total energy  :  -110.0646375 Eh     change       -0.1264462E-05 Eh
 * total energy  :  -110.0646387 Eh     change       -0.1159536E-05 Eh
 * total energy  :  -110.0646398 Eh     change       -0.1163901E-05 Eh
 * total energy  :  -110.0646412 Eh     change       -0.1334546E-05 Eh
 * total energy  :  -110.0646428 Eh     change       -0.1659844E-05 Eh
 * total energy  :  -110.0646449 Eh     change       -0.2075532E-05 Eh
 * total energy  :  -110.0646471 Eh     change       -0.2212050E-05 Eh
 * total energy  :  -110.0646493 Eh     change       -0.2177826E-05 Eh
 * total energy  :  -110.0646493 Eh     change       -0.5022940E-08 Eh
   *** GEOMETRY OPTIMIZATION CONVERGED AFTER 94 ITERATIONS ***

 final structure:
================
72
 xtb: 6.7.1 (edcfbbe)
C            1.83708502647169        1.04184680047439        3.29009099208069
C            2.41355594160717        1.81093126203939        2.31374204064056
C            2.52080411555150        1.34613850907398        0.96525923097323
C            3.07173125683858        2.13519598105646       -0.07452009423478
C            4.01334182859396        3.16796902323443        0.18857283624465
C            4.88077867215680        3.58874611192905       -0.77230480022126
C            4.83457242121611        3.03680931829849       -2.08108791288977
C            3.83906019054045        2.15598200507149       -2.41439546681748
C            2.86109697786928        1.78094025195062       -1.48346597696878
C            1.63048500591521        1.18135337639652       -1.90600087357113
C            1.57360185899533        0.23459464852657       -2.95567266756195
C            0.39175920885426       -0.39295509268717       -3.26990820738882
C           -0.78912209827315       -0.06355530187666       -2.61342997563581
C           -0.77563739173750        0.94558459161480       -1.63966375407336
N           -1.98908695158748        1.35645508845152       -1.06367463377667
C           -3.14906870644098        1.61356933724757       -1.76960478098308
C           -3.37275688293247        1.61376813786875       -3.14082745992932
C           -4.63839253677354        1.93853066169854       -3.59170164319173
C           -5.66334558503814        2.26965316738568       -2.70817259670535
C           -5.43943306466761        2.30598274310451       -1.34477289358097
C           -4.17580299472458        1.98416917750819       -0.86948470182100
C           -3.59220543952400        1.96152836584874        0.44348464207201
C           -4.09040415778167        2.23297558554823        1.70990544646892
C           -3.23847293327289        2.12909933654487        2.79352945682695
C           -1.91019202301628        1.74801502392268        2.62154656807438
C           -1.39451222964259        1.46368929548809        1.37050159072616
C           -2.23881812670335        1.58264493392183        0.27529807160734
C            0.41766956770947        1.53201096339745       -1.27194978247390
C            2.04072799748997        0.02991197246381        0.71939571830599
C            1.48143501204357       -0.73870065029176        1.71187911663755
N            1.05905626455568       -2.04725189540447        1.41867681347297
C            1.80792671166923       -3.00547464478408        0.76850246009705
C            3.13158887459330       -2.96017778758999        0.35013968255170
C            3.65551254886937       -4.08535150695570       -0.25809187976223
C            2.89033100183511       -5.23490902109325       -0.44362808536672
C            1.57898336322619       -5.29425001301382       -0.00960031375061
C            1.03078224368044       -4.17708776739866        0.60466339079082
C           -0.25587827709309       -3.89476299982238        1.18112605192225
C           -1.42861141402580       -4.62570371689020        1.30765853200629
C           -2.52038492899863       -4.02785102289619        1.91031360863772
C           -2.45409521858561       -2.71574860220766        2.37384864555020
C           -1.29645285588862       -1.96881176964662        2.26174451602121
C           -0.19177912234029       -2.56873124649282        1.67215110567309
C            1.35950666692893       -0.24149251194303        3.02078300193306
H            1.75380367286952        1.43093694987669        4.29507590150498
H            2.74496488192990        2.80740414416491        2.55827700926713
H            4.10718947404560        3.55970205366418        1.18996446965623
H            5.62962598582523        4.33284765175668       -0.54310062240739
H            5.54659600235194        3.36770715749013       -2.82191226017417
H            3.73746037652318        1.83067762633068       -3.44025035303471
H            2.48373044278812       -0.04729410333924       -3.46307996872758
H            0.37549237884951       -1.15814530752925       -4.03275097718688
H           -1.70674097749384       -0.58352993154612       -2.83858113782726
H           -2.58113221944330        1.38500620702219       -3.83775024945805
H           -4.83467965159223        1.94188194376636       -4.65393792885133
H           -6.63979004778620        2.51538598642611       -3.09882880360771
H           -6.22704139920282        2.58534033023405       -0.66114583451814
H           -5.12229742337571        2.52195657772447        1.84189527552660
H           -3.60427290835345        2.34307046893026        3.78703020148816
H           -1.26436157414117        1.67096770742460        3.48416304356631
H           -0.36903820999709        1.15410124270596        1.25599640719516
H            0.42694521188494        2.32270613809530       -0.53734912941042
H            2.15104850829644       -0.40022111917661       -0.26261602341864
H            3.73659183528713       -2.07922839762044        0.50270462355727
H            4.68233735190347       -4.07373296555286       -0.59331922755970
H            3.33478271563191       -6.09339079707849       -0.92542120092159
H            0.99243165147605       -6.19133090429408       -0.13999626495332
H           -1.48586420308671       -5.63840848934781        0.93747679659401
H           -3.44225830507263       -4.58043032910683        2.01743150315911
H           -3.32694920184778       -2.26822927941795        2.82643579930199
H           -1.26117736739589       -0.94797539475642        2.60707391882412
H            0.94709437034002       -0.85979324369772        3.80155086886179

          :  Hamiltonian                  GFN2-xTB          :
         :: gradient norm              0.000061614409 Eh/a0 ::
         :: HOMO-LUMO gap              0.599341674077 eV    ::
         :: SCC energy              -112.156364625719 Eh    ::
         :: -> dispersion             -0.107542153481 Eh    ::
         :: -> Gsolv                  -0.041492541130 Eh    ::
         :: repulsion energy           2.091715344535 Eh    ::

    * Orbital Energies and Occupations

         #    Occupation            Energy/Eh            Energy/eV
      -------------------------------------------------------------
         1        2.0000           -0.6790172             -18.4770
       ...           ...                  ...                  ...
        92        2.0000           -0.4155065             -11.3065
        93        2.0000           -0.4104616             -11.1692
        94        2.0000           -0.4085361             -11.1168
        95        2.0000           -0.4078614             -11.0985
        96        2.0000           -0.4064069             -11.0589
        97        2.0000           -0.4020351             -10.9399
        98        2.0000           -0.3896309             -10.6024
        99        2.0000           -0.3817528             -10.3880
       100        2.0000           -0.3816709             -10.3858
       101        1.9684           -0.3653697              -9.9422
       102        1.9278           -0.3645427              -9.9197
       103        1.1038           -0.3600687              -9.7980
       104        1.0000           -0.2707057              -7.3663 (HOMO)
       105        0.0000           -0.2486808              -6.7669 (LUMO)
       106        0.0000           -0.2480646              -6.7502
       107                         -0.2386732              -6.4946
       108                         -0.2302159              -6.2645
       109                         -0.2256341              -6.1398
       110                         -0.2251189              -6.1258
       111                         -0.2225716              -6.0565
       112                         -0.2023003              -5.5049
       113                         -0.1982025              -5.3934
       114                         -0.1893242              -5.1518
       115                         -0.1888995              -5.1402
       ...                                ...                  ...
       204                          0.7419224              20.1887
      -------------------------------------------------------------
                  HL-Gap            0.0220249 Eh            0.5993 eV

     #   Z          covCN         q      C6AA      α(0)
     1   6 C        2.911    -0.031    28.773     8.796
     2   6 C        2.917    -0.040    28.985     8.828
     3   6 C        2.966     0.006    27.889     8.662
     4   6 C        2.970    -0.004    28.132     8.700
     5   6 C        2.912    -0.037    28.920     8.818
     6   6 C        2.912    -0.037    28.918     8.818
     7   6 C        2.913    -0.041    29.024     8.834
     8   6 C        2.913    -0.034    28.858     8.809
     9   6 C        2.974    -0.005    28.147     8.703
    10   6 C        2.972     0.012    27.738     8.639
    11   6 C        2.919    -0.040    28.992     8.830
    12   6 C        2.913    -0.031    28.776     8.796
    13   6 C        2.921    -0.050    29.254     8.870
    14   6 C        2.905     0.061    26.632     8.462
    15   7 N        2.800    -0.036    21.942     6.957
    16   6 C        3.076     0.049    26.830     8.493
    17   6 C        2.910    -0.048    29.194     8.860
    18   6 C        2.923    -0.034    28.845     8.808
    19   6 C        2.920    -0.039    28.975     8.827
    20   6 C        2.912    -0.033    28.823     8.804
    21   6 C        3.065    -0.016    28.344     8.730
    22   6 C        3.067    -0.016    28.343     8.730
    23   6 C        2.912    -0.033    28.823     8.804
    24   6 C        2.919    -0.039    28.974     8.827
    25   6 C        2.923    -0.033    28.824     8.804
    26   6 C        2.910    -0.049    29.215     8.863
    27   6 C        3.073     0.049    26.827     8.492
    28   6 C        2.925    -0.051    29.278     8.873
    29   6 C        2.924    -0.057    29.409     8.893
    30   6 C        2.905     0.059    26.670     8.468
    31   7 N        2.803    -0.037    21.957     6.959
    32   6 C        3.076     0.049    26.827     8.492
    33   6 C        2.909    -0.047    29.171     8.856
    34   6 C        2.923    -0.034    28.840     8.807
    35   6 C        2.920    -0.039    28.971     8.827
    36   6 C        2.912    -0.033    28.822     8.803
    37   6 C        3.066    -0.016    28.349     8.731
    38   6 C        3.066    -0.017    28.358     8.732
    39   6 C        2.912    -0.033    28.823     8.803
    40   6 C        2.920    -0.039    28.968     8.826
    41   6 C        2.923    -0.034    28.835     8.806
    42   6 C        2.910    -0.049    29.214     8.863
    43   6 C        3.076     0.050    26.807     8.489
    44   6 C        2.917    -0.052    29.280     8.873
    45   1 H        0.926     0.033     2.541     2.493
    46   1 H        0.926     0.034     2.529     2.487
    47   1 H        0.926     0.030     2.587     2.515
    48   1 H        0.926     0.026     2.650     2.545
    49   1 H        0.926     0.025     2.657     2.549
    50   1 H        0.926     0.029     2.604     2.523
    51   1 H        0.926     0.035     2.513     2.479
    52   1 H        0.926     0.035     2.520     2.482
    53   1 H        0.926     0.037     2.489     2.467
    54   1 H        0.926     0.035     2.512     2.478
    55   1 H        0.926     0.034     2.529     2.487
    56   1 H        0.926     0.033     2.548     2.496
    57   1 H        0.926     0.035     2.517     2.481
    58   1 H        0.926     0.035     2.520     2.482
    59   1 H        0.926     0.033     2.551     2.498
    60   1 H        0.926     0.032     2.560     2.502
    61   1 H        0.926     0.035     2.512     2.478
    62   1 H        0.926     0.035     2.515     2.480
    63   1 H        0.926     0.034     2.529     2.487
    64   1 H        0.926     0.033     2.542     2.493
    65   1 H        0.926     0.034     2.534     2.489
    66   1 H        0.926     0.033     2.546     2.495
    67   1 H        0.926     0.035     2.516     2.481
    68   1 H        0.926     0.035     2.519     2.482
    69   1 H        0.926     0.032     2.551     2.498
    70   1 H        0.926     0.033     2.547     2.496
    71   1 H        0.926     0.037     2.484     2.465
    72   1 H        0.926     0.035     2.523     2.484

molecular dipole:
                 x           y           z       tot (Debye)
 q only:       -0.352      -0.228       0.033
   full:       -0.254      -0.181       0.011       0.794

 projected vibrational frequencies (cm⁻¹)
eigval :       -0.00    -0.00    -0.00    -0.00     0.00     0.00
eigval :        8.92    13.66    28.04    33.15    41.41    48.97
eigval :       58.24    70.91    77.15    88.21    92.73   100.95
eigval :      111.42   124.13   138.71   149.16   158.36   182.91
eigval :      190.42   210.59   222.79   235.50   240.37   258.42
eigval :      270.23   274.80   286.83   290.37   312.79   322.35
eigval :      349.74   366.96   378.11   383.61   394.17   398.44
eigval :      414.48   420.89   423.26   427.82   435.09   438.61
eigval :      463.21   476.85   508.47   516.60   517.83   527.01
eigval :      538.29   540.05   541.45   552.49   567.57   579.30
eigval :      584.19   586.49   601.06   605.53   610.08   616.72
eigval :      636.14   646.95   658.23   673.16   674.03   678.16
eigval :      694.35   709.04   710.08   718.06   740.41   750.76
eigval :      754.48   764.81   766.10   768.50   774.52   774.78
eigval :      782.12   787.65   816.16   823.84   852.63   853.87
eigval :      858.44   866.14   874.51   876.39   881.68   886.87
eigval :      892.90   895.18   895.80   900.03   902.31   904.29
eigval :      904.54   907.64   910.52   916.94   919.38   919.64
eigval :      922.93   928.07   929.25   943.17   980.21  1005.75
eigval :     1010.45  1012.74  1036.98  1046.75  1068.22  1070.17
eigval :     1071.06  1073.88  1109.89  1112.63  1118.13  1123.25
eigval :     1142.21  1145.90  1148.35  1162.85  1170.38  1171.05
eigval :     1174.61  1175.64  1176.70  1178.02  1182.46  1187.74
eigval :     1202.26  1230.82  1232.93  1233.15  1237.04  1249.42
eigval :     1257.21  1268.64  1283.91  1290.75  1292.17  1294.79
eigval :     1297.06  1319.15  1323.74  1336.93  1340.67  1346.93
eigval :     1350.19  1352.17  1355.93  1358.30  1359.55  1374.26
eigval :     1387.85  1406.79  1417.23  1418.03  1420.47  1428.40
eigval :     1438.33  1450.16  1463.00  1464.98  1466.98  1481.70
eigval :     1482.83  1483.60  1490.10  1511.14  1544.89  1565.14
eigval :     1567.49  1570.32  1582.05  1582.81  1585.12  1586.69
eigval :     1602.40  1605.16  3064.23  3068.60  3069.65  3072.06
eigval :     3073.50  3073.85  3074.02  3074.29  3079.60  3080.08
eigval :     3080.92  3081.50  3082.00  3087.28  3088.26  3088.95
eigval :     3089.74  3090.06  3090.99  3093.41  3093.85  3094.85
eigval :     3100.38  3101.96  3105.12  3108.93  3114.91  3127.07

   temp. (K)  partition function   enthalpy   heat capacity  entropy
                                   cal/mol     cal/K/mol   cal/K/mol   J/K/mol
 298.15  VIB  0.175E+15            19624.444    130.030    119.823
         ROT  0.432E+08              888.752      2.981     37.919
         INT  0.755E+22            20513.196    133.011    157.742
         TR   0.128E+29             1481.254      4.968     44.837
         TOT                       21994.4502   137.9789   202.5786   847.5890

       T/K    H(0)-H(T)+PV         H(T)/Eh          T*S/Eh         G(T)/Eh
   ------------------------------------------------------------------------
    298.15    0.350504E-01    0.587620E+00    0.962516E-01    0.491368E+00
   ------------------------------------------------------------------------

         :::::::::::::::::::::::::::::::::::::::::::::::::::::
         ::                  THERMODYNAMIC                  ::
         :::::::::::::::::::::::::::::::::::::::::::::::::::::
         :: total free energy        -109.573280855063 Eh   ::
         ::.................................................::
         :: total energy             -110.064649278844 Eh   ::
         :: zero point energy           0.552569680359 Eh   ::
         :: G(RRHO) w/o ZPVE           -0.061201256578 Eh   ::
         :: G(RRHO) contrib.            0.491368423781 Eh   ::
         :::::::::::::::::::::::::::::::::::::::::::::::::::::

           -------------------------------------------------
          | TOTAL ENERGY             -110.064649278844 Eh   |
          | TOTAL ENTHALPY           -109.477029211010 Eh   |
          | TOTAL FREE ENERGY        -109.573280855063 Eh   |
          | GRADIENT NORM               0.000061430046 Eh/α |
          | HOMO-LUMO GAP               0.599328209845 eV   |
           -------------------------------------------------

 * finished run on 2025/09/08 at 23:56:10.271
