   * xtb version 6.7.1 (edcfbbe) compiled by 'albert@albert-system' on 2024-07-22

   ID    Z sym.   atoms
    1    6 C      1-14, 16-30, 32-44
    2    7 N      15, 31
    3    1 H      45-72

          program call               : xtb data2507/toluene/DCz-OTP/DCz-OTP_toluene_S0_crest.xyz --gfn 2 --gbsa toluene --ohess vtight --parallel 40 --molden --ceasefiles --namespace data2507/toluene/DCz-OTP/DCz-OTP_toluene_S0_finalOpt
      * Solvation model:               GBSA
        Solvent                        toluene
        Solvent mass                       9.2140E+01 g/mol
          :  Hamiltonian                  GFN2-xTB          :
 * total energy  :  -110.1702363 Eh     change       -0.1883834E-08 Eh
 * total energy  :  -110.1702827 Eh     change       -0.4641286E-04 Eh
 * total energy  :  -110.1703372 Eh     change       -0.5454947E-04 Eh
 * total energy  :  -110.1703643 Eh     change       -0.2706382E-04 Eh
 * total energy  :  -110.1704700 Eh     change       -0.1057045E-03 Eh
 * total energy  :  -110.1705225 Eh     change       -0.5251325E-04 Eh
 * total energy  :  -110.1705776 Eh     change       -0.5504638E-04 Eh
 * total energy  :  -110.1706381 Eh     change       -0.6055957E-04 Eh
 * total energy  :  -110.1707235 Eh     change       -0.8532933E-04 Eh
 * total energy  :  -110.1708254 Eh     change       -0.1019100E-03 Eh
 * total energy  :  -110.1730450 Eh     change       -0.1665865E-05 Eh
 * total energy  :  -110.1730474 Eh     change       -0.2406692E-05 Eh
 * total energy  :  -110.1730504 Eh     change       -0.2996626E-05 Eh
 * total energy  :  -110.1730529 Eh     change       -0.2570437E-05 Eh
 * total energy  :  -110.1730547 Eh     change       -0.1728332E-05 Eh
 * total energy  :  -110.1730560 Eh     change       -0.1313210E-05 Eh
 * total energy  :  -110.1730572 Eh     change       -0.1176415E-05 Eh
 * total energy  :  -110.1730583 Eh     change       -0.1167509E-05 Eh
 * total energy  :  -110.1730583 Eh     change       -0.6831499E-08 Eh
   *** GEOMETRY OPTIMIZATION CONVERGED AFTER 68 ITERATIONS ***

 final structure:
================
72
 xtb: 6.7.1 (edcfbbe)
C            1.74604290578006        1.11709648297246        3.14353879091100
C            2.38536349292982        1.83863262306170        2.15040164153146
C            2.62442790577281        1.26369411259387        0.90388825586210
C            3.30047544497528        2.02192461018003       -0.16465596794303
C            4.46201705734352        2.73255026973406        0.12496166448656
C            5.14563242631085        3.41373236947497       -0.86535736496447
C            4.67604898142947        3.39106057328330       -2.16817150642021
C            3.52065064116912        2.69255495349519       -2.46961395519351
C            2.81996365514382        2.01164473929346       -1.48095226687332
C            1.57092476641006        1.30306124704658       -1.83221095977073
C            1.59586071732085        0.23925071043588       -2.72930905923312
C            0.43569361592421       -0.46042902943680       -3.00968900407566
C           -0.76115832878947       -0.09474880460759       -2.42194497692731
C           -0.80788601338173        1.00483054990521       -1.56789012408796
N           -2.03392028376829        1.40671005841591       -1.01676942930642
C           -3.21847260392051        1.54109942970097       -1.71649997328128
C           -3.45771812766153        1.44431730387361       -3.08073646610321
C           -4.74566341490633        1.66544532390041       -3.52992498490056
C           -5.77910124380637        1.98394497265935       -2.65091717384165
C           -5.54300907533511        2.10863048973459       -1.29634042665889
C           -4.25506032567370        1.89429842246163       -0.82192324013816
C           -3.65755947369717        1.97690367749140        0.48117717112593
C           -4.15944944798724        2.26958072425803        1.74289034399215
C           -3.29341335852259        2.26341604977662        2.81827967995252
C           -1.94403094450065        1.96337415426235        2.64570130760712
C           -1.42251546517482        1.66485913569785        1.40083436196492
C           -2.28452901699640        1.68081930231671        0.31368757513909
C            0.36202104702597        1.69469052355564       -1.27036758859574
C            2.22070327882659       -0.04851060381358        0.68306523311958
C            1.55944518732998       -0.76479056239863        1.67191053647493
N            1.12220716613777       -2.07183573967362        1.39882536929761
C            1.89578148925594       -3.09109190032676        0.88353133633057
C            3.26010833620657       -3.12177458973689        0.62976364450139
C            3.79854950493617       -4.29495308742068        0.13670120178852
C            3.00659169336188       -5.41855534282563       -0.09350426972611
C            1.65195371707925       -5.39964980605815        0.17360269539142
C            1.08636549947575       -4.23116855284839        0.66840347856794
C           -0.24610211641150       -3.86369804136761        1.05950294248248
C           -1.46462686949995       -4.53130136833450        1.05570493303116
C           -2.59194232148073       -3.85613181684324        1.48048068506744
C           -2.51693474067512       -2.52904309606740        1.89976235868363
C           -1.31609301862532       -1.84625373971651        1.91965768875069
C           -0.17800292807668       -2.52287343020562        1.50490145565709
C            1.32345703646536       -0.18047900750103        2.91261159594175
H            1.57091441676216        1.57200899349191        4.10746724148992
H            2.68457713078167        2.85998216202005        2.33356084390973
H            4.84166025405360        2.72885420874021        1.13661728642118
H            6.04745380454006        3.95632573905040       -0.62214419697230
H            5.20773667874411        3.91692664060775       -2.94759414462102
H            3.14205041996327        2.68018513405381       -3.48185869677927
H            2.53248354673235       -0.05544088735773       -3.18018032944175
H            0.46519401732626       -1.30619598305737       -3.68096703231070
H           -1.66047205968535       -0.66017618872262       -2.61371201368809
H           -2.66236517755631        1.21774953462502       -3.77460548349379
H           -4.95511904254495        1.59402914670056       -4.58747799454059
H           -6.77349552885499        2.14595650743421       -3.04054577495808
H           -6.33902115950488        2.37505881816199       -0.61689639614768
H           -5.20722555714456        2.49498586524369        1.87553480771435
H           -3.66296627138714        2.49045943884805        3.80766322985194
H           -1.28878145574784        1.95821852546483        3.50442791611633
H           -0.37836884451476        1.42063527884205        1.28533674949223
H            0.33052854820851        2.55261673327563       -0.61547388252593
H            2.41042253915399       -0.52188331811428       -0.26728183011384
H            3.88360112431643       -2.26044904781324        0.81834263361989
H            4.85760457104240       -4.34386582696910       -0.07174191621998
H            3.46480164075846       -6.31718216612830       -0.48022082356447
H            1.04173026460792       -6.27485311189213        0.00618492463808
H           -1.52624402113418       -5.55628111478829        0.72087595429944
H           -3.54883796857199       -4.35762318384190        1.48292729815589
H           -3.41650941779511       -2.01905469885518        2.21345850715571
H           -1.27368560681814       -0.81473482026678        2.23306636876238
H            0.82066672381068       -0.74381998716558        3.68412388307521

          :  Hamiltonian                  GFN2-xTB          :
         :: gradient norm              0.000064346684 Eh/a0 ::
         :: HOMO-LUMO gap              2.971153256708 eV    ::
         :: SCC energy              -112.288253861443 Eh    ::
         :: -> dispersion             -0.107755915720 Eh    ::
         :: -> Gsolv                  -0.041955836211 Eh    ::
         :: repulsion energy           2.115195524692 Eh    ::

    * Orbital Energies and Occupations

         #    Occupation            Energy/Eh            Energy/eV
      -------------------------------------------------------------
         1        2.0000           -0.6750306             -18.3685
       ...           ...                  ...                  ...
        91        2.0000           -0.4163894             -11.3305
        92        2.0000           -0.4137881             -11.2597
        93        2.0000           -0.4129209             -11.2361
        94        2.0000           -0.4099619             -11.1556
        95        2.0000           -0.4086650             -11.1203
        96        2.0000           -0.4044712             -11.0062
        97        2.0000           -0.4037714             -10.9872
        98        2.0000           -0.4001366             -10.8883
        99        2.0000           -0.3885392             -10.5727
       100        2.0000           -0.3781073             -10.2888
       101        2.0000           -0.3771511             -10.2628
       102        2.0000           -0.3619021              -9.8479
       103        2.0000           -0.3610734              -9.8253 (HOMO)
       104                         -0.2518856              -6.8542 (LUMO)
       105                         -0.2457583              -6.6874
       106                         -0.2441358              -6.6433
       107                         -0.2395415              -6.5183
       108                         -0.2337561              -6.3608
       109                         -0.2309676              -6.2849
       110                         -0.2215854              -6.0296
       111                         -0.2204465              -5.9987
       112                         -0.2172855              -5.9126
       113                         -0.2068852              -5.6296
       114                         -0.1891514              -5.1471
       ...                                ...                  ...
       204                          0.7461101              20.3027
      -------------------------------------------------------------
                  HL-Gap            0.1091879 Eh            2.9712 eV

     #   Z          covCN         q      C6AA      α(0)
     1   6 C        2.918    -0.027    28.688     8.783
     2   6 C        2.923    -0.038    28.947     8.823
     3   6 C        2.976     0.014    27.698     8.633
     4   6 C        2.979     0.006    27.886     8.662
     5   6 C        2.924    -0.034    28.846     8.808
     6   6 C        2.918    -0.031    28.785     8.798
     7   6 C        2.918    -0.031    28.767     8.795
     8   6 C        2.924    -0.033    28.832     8.806
     9   6 C        2.981     0.007    27.862     8.659
    10   6 C        2.977     0.016    27.655     8.626
    11   6 C        2.924    -0.039    28.959     8.825
    12   6 C        2.918    -0.029    28.723     8.789
    13   6 C        2.923    -0.045    29.127     8.850
    14   6 C        2.911     0.064    26.561     8.451
    15   7 N        2.801    -0.048    22.158     6.991
    16   6 C        3.076     0.048    26.844     8.495
    17   6 C        2.910    -0.052    29.284     8.874
    18   6 C        2.923    -0.035    28.878     8.813
    19   6 C        2.919    -0.043    29.062     8.840
    20   6 C        2.912    -0.035    28.873     8.811
    21   6 C        3.067    -0.019    28.403     8.739
    22   6 C        3.068    -0.018    28.394     8.737
    23   6 C        2.912    -0.035    28.871     8.811
    24   6 C        2.919    -0.043    29.058     8.840
    25   6 C        2.924    -0.035    28.871     8.811
    26   6 C        2.910    -0.052    29.280     8.873
    27   6 C        3.074     0.049    26.827     8.492
    28   6 C        2.927    -0.048    29.181     8.859
    29   6 C        2.929    -0.047    29.169     8.857
    30   6 C        2.911     0.064    26.570     8.452
    31   7 N        2.803    -0.051    22.217     7.001
    32   6 C        3.077     0.048    26.841     8.494
    33   6 C        2.909    -0.052    29.286     8.874
    34   6 C        2.924    -0.035    28.881     8.813
    35   6 C        2.919    -0.043    29.074     8.842
    36   6 C        2.912    -0.035    28.876     8.812
    37   6 C        3.067    -0.019    28.415     8.741
    38   6 C        3.067    -0.019    28.423     8.742
    39   6 C        2.912    -0.036    28.883     8.813
    40   6 C        2.919    -0.043    29.068     8.841
    41   6 C        2.924    -0.035    28.863     8.810
    42   6 C        2.910    -0.053    29.317     8.878
    43   6 C        3.077     0.049    26.826     8.492
    44   6 C        2.921    -0.043    29.069     8.841
    45   1 H        0.926     0.040     2.451     2.448
    46   1 H        0.926     0.040     2.443     2.444
    47   1 H        0.926     0.037     2.491     2.468
    48   1 H        0.926     0.035     2.516     2.480
    49   1 H        0.926     0.035     2.515     2.480
    50   1 H        0.926     0.035     2.522     2.484
    51   1 H        0.926     0.037     2.487     2.466
    52   1 H        0.926     0.039     2.465     2.455
    53   1 H        0.926     0.039     2.456     2.451
    54   1 H        0.926     0.030     2.585     2.514
    55   1 H        0.926     0.030     2.586     2.515
    56   1 H        0.926     0.028     2.616     2.529
    57   1 H        0.926     0.030     2.583     2.514
    58   1 H        0.926     0.030     2.586     2.515
    59   1 H        0.926     0.028     2.615     2.529
    60   1 H        0.926     0.029     2.598     2.520
    61   1 H        0.926     0.028     2.619     2.530
    62   1 H        0.926     0.038     2.469     2.457
    63   1 H        0.926     0.039     2.459     2.452
    64   1 H        0.926     0.028     2.614     2.528
    65   1 H        0.926     0.029     2.595     2.519
    66   1 H        0.926     0.027     2.625     2.534
    67   1 H        0.926     0.029     2.595     2.519
    68   1 H        0.926     0.030     2.591     2.517
    69   1 H        0.926     0.027     2.633     2.538
    70   1 H        0.926     0.027     2.631     2.537
    71   1 H        0.926     0.030     2.587     2.515
    72   1 H        0.926     0.040     2.442     2.444

molecular dipole:
                 x           y           z       tot (Debye)
 q only:        0.898       0.609      -0.148
   full:        0.925       0.616      -0.171       2.858

 projected vibrational frequencies (cm⁻¹)
eigval :       -0.00    -0.00    -0.00    -0.00     0.00     0.00
eigval :        9.07    18.23    24.56    31.82    38.00    45.14
eigval :       57.58    67.20    74.51    87.21    90.80   104.73
eigval :      110.58   113.22   141.96   151.12   163.84   170.62
eigval :      202.20   213.94   230.34   236.53   254.98   263.19
eigval :      271.40   272.29   277.08   300.49   311.43   325.18
eigval :      352.89   363.49   383.88   390.88   398.89   399.28
eigval :      422.27   425.35   430.43   435.42   439.15   446.88
eigval :      504.68   512.70   518.10   519.02   529.56   531.69
eigval :      540.83   541.51   557.43   565.32   586.24   587.85
eigval :      592.50   595.13   610.28   613.61   626.32   638.83
eigval :      670.99   672.74   675.15   678.91   682.25   700.12
eigval :      709.01   710.69   713.49   753.54   755.10   769.32
eigval :      770.44   777.86   780.43   781.50   782.55   792.79
eigval :      800.45   804.91   868.49   869.46   873.02   877.08
eigval :      885.04   892.58   893.52   895.08   896.45   898.20
eigval :      900.87   904.05   905.45   906.16   909.74   918.91
eigval :      919.93   922.54   926.00   929.08   930.15   931.02
eigval :      931.45   934.91   947.66   998.62  1000.84  1010.66
eigval :     1011.59  1036.42  1068.46  1070.56  1071.70  1074.71
eigval :     1086.25  1100.20  1116.94  1117.74  1124.68  1129.39
eigval :     1144.20  1149.71  1151.79  1173.50  1174.23  1179.04
eigval :     1179.30  1179.70  1180.31  1180.77  1189.62  1191.06
eigval :     1231.36  1234.60  1235.66  1238.03  1245.83  1256.36
eigval :     1260.05  1276.87  1287.38  1299.27  1299.88  1302.59
eigval :     1303.65  1308.02  1312.50  1315.70  1354.19  1354.79
eigval :     1357.64  1358.21  1362.40  1362.90  1406.56  1417.53
eigval :     1425.11  1427.01  1427.10  1435.33  1452.78  1461.47
eigval :     1471.75  1474.10  1477.99  1486.68  1486.95  1492.45
eigval :     1565.83  1569.89  1571.05  1573.84  1575.24  1586.65
eigval :     1587.27  1588.12  1589.04  1592.16  1597.51  1597.57
eigval :     1613.30  1613.41  3069.71  3070.13  3070.41  3070.67
eigval :     3072.01  3073.34  3074.80  3075.28  3076.18  3076.41
eigval :     3076.47  3079.77  3080.40  3081.87  3084.48  3085.41
eigval :     3086.59  3087.53  3088.75  3090.02  3090.53  3091.28
eigval :     3092.28  3095.27  3096.98  3100.31  3109.18  3109.74

   temp. (K)  partition function   enthalpy   heat capacity  entropy
                                   cal/mol     cal/K/mol   cal/K/mol   J/K/mol
 298.15  VIB  0.149E+15            19318.003    127.323    118.135
         ROT  0.435E+08              888.752      2.981     37.931
         INT  0.648E+22            20206.755    130.304    156.067
         TR   0.128E+29             1481.254      4.968     44.837
         TOT                       21688.0092   135.2722   200.9034   840.5799

       T/K    H(0)-H(T)+PV         H(T)/Eh          T*S/Eh         G(T)/Eh
   ------------------------------------------------------------------------
    298.15    0.345620E-01    0.592116E+00    0.954557E-01    0.496661E+00
   ------------------------------------------------------------------------

         :::::::::::::::::::::::::::::::::::::::::::::::::::::
         ::                  THERMODYNAMIC                  ::
         :::::::::::::::::::::::::::::::::::::::::::::::::::::
         :: total free energy        -109.676397779407 Eh   ::
         ::.................................................::
         :: total energy             -110.173058336689 Eh   ::
         :: zero point energy           0.557554214397 Eh   ::
         :: G(RRHO) w/o ZPVE           -0.060893657115 Eh   ::
         :: G(RRHO) contrib.            0.496660557281 Eh   ::
         :::::::::::::::::::::::::::::::::::::::::::::::::::::

           -------------------------------------------------
          | TOTAL ENERGY             -110.173058336689 Eh   |
          | TOTAL ENTHALPY           -109.580942079706 Eh   |
          | TOTAL FREE ENERGY        -109.676397779407 Eh   |
          | GRADIENT NORM               0.000064346366 Eh/α |
          | HOMO-LUMO GAP               2.971153142152 eV   |
           -------------------------------------------------

 * finished run on 2025/09/08 at 23:55:59.579
