   * xtb version 6.7.1 (edcfbbe) compiled by 'albert@albert-system' on 2024-07-22

   ID    Z sym.   atoms
    1    6 C      1, 2, 4-9, 11-18, 20-26, 28-45, 47-63
    2    7 N      3, 19, 27, 46
    3   14 Si     10
    4    1 H      64-103

          program call               : xtb data2507/toluene/SiCz2Py2/SiCz2Py2_toluene_S0_finalOpt.xtbopt.xyz --gfn 2 --uhf 2 --gbsa toluene --ohess vtight --parallel 40 --molden --ceasefiles --namespace data2507/toluene/SiCz2Py2/SiCz2Py2_toluene_T1_preOpt
      * Solvation model:               GBSA
        Solvent                        toluene
        Solvent mass                       9.2140E+01 g/mol
          :  Hamiltonian                  GFN2-xTB          :
 * total energy  :  -157.9880963 Eh     change       -0.1836213E-08 Eh
 * total energy  :  -157.9896024 Eh     change       -0.1506108E-02 Eh
 * total energy  :  -157.9903212 Eh     change       -0.7187285E-03 Eh
 * total energy  :  -157.9906067 Eh     change       -0.2855762E-03 Eh
 * total energy  :  -157.9909108 Eh     change       -0.3040999E-03 Eh
 * total energy  :  -157.9911266 Eh     change       -0.2157849E-03 Eh
 * total energy  :  -157.9913087 Eh     change       -0.1821199E-03 Eh
 * total energy  :  -157.9914666 Eh     change       -0.1579008E-03 Eh
 * total energy  :  -157.9915951 Eh     change       -0.1285075E-03 Eh
 * total energy  :  -157.9916928 Eh     change       -0.9766454E-04 Eh
 * total energy  :  -157.9924462 Eh     change       -0.3849192E-06 Eh
 * total energy  :  -157.9924466 Eh     change       -0.3736271E-06 Eh
 * total energy  :  -157.9924469 Eh     change       -0.3482549E-06 Eh
 * total energy  :  -157.9924472 Eh     change       -0.3100907E-06 Eh
 * total energy  :  -157.9924475 Eh     change       -0.2785726E-06 Eh
 * total energy  :  -157.9924478 Eh     change       -0.2752173E-06 Eh
 * total energy  :  -157.9924480 Eh     change       -0.2253159E-06 Eh
 * total energy  :  -157.9924482 Eh     change       -0.1348719E-06 Eh
 * total energy  :  -157.9924482 Eh     change       -0.8366075E-07 Eh
   *** GEOMETRY OPTIMIZATION CONVERGED AFTER 67 ITERATIONS ***

 final structure:
================
103
 xtb: 6.7.1 (edcfbbe)
C           -0.34060189493505        6.16620648658932        6.57614901425012
C            0.96764238519234        6.50192736260231        6.95813243358214
N            2.00447945105035        5.94561419253979        6.33756458245207
C            1.85053776231775        5.14226321057543        5.33295326714266
C            0.57589429698082        4.78653400658845        4.78466390167571
C            0.44920899637083        3.88065219481548        3.70702575340113
C            1.53018877807328        3.60022276061389        2.81609576704434
C            1.37609143314660        2.77957849626035        1.73932758224084
C            0.14992936580526        2.13692968888130        1.45252953840582
Si          -0.00484317234335        1.00688195034342       -0.03003806965209
C           -0.17237913240043        1.97372513438751       -1.65574431423856
C            0.33359506365494        3.26537615493617       -1.78629323776102
C            0.19805405167414        3.97505631134815       -2.96161941782489
C           -0.45412875736045        3.41375928595649       -4.06177524483885
C           -0.59897360926032        4.15855094056872       -5.31307515618275
C           -0.50527243742940        3.53530039986163       -6.56178627687544
C           -0.65182268336734        4.28803990092378       -7.71201214233923
C           -0.88743226905336        5.64993995939953       -7.58772682759138
N           -0.98499194389261        6.25553238015748       -6.41277707141181
C           -0.84680519523275        5.53506766491966       -5.31812043390616
C           -0.96898619343622        2.12208308013416       -3.93504494856697
C           -0.83371073266213        1.42357023913034       -2.75319197340301
C           -1.53422291740501       -0.10172242586996        0.14140520118682
C           -1.43507348597608       -1.45183219224424        0.46233896407750
C           -2.55835963456225       -2.24414691244472        0.59993607989059
C           -3.82395751654994       -1.68985199093501        0.42692086291494
N           -4.97073538382034       -2.48526524107215        0.57377497577832
C           -6.00577938185255       -2.58515971341654       -0.33285577029707
C           -6.14731620551357       -1.99415298023056       -1.58167167834923
C           -7.28721880942133       -2.28520833408533       -2.30762589788548
C           -8.26201623838701       -3.14992624610721       -1.81467315139449
C           -8.11535397741892       -3.76014971962653       -0.58236983147247
C           -6.97965097743813       -3.48310174187382        0.16515452498969
C           -6.49854772871475       -3.93800872343856        1.44200206786162
C           -7.00659160323385       -4.80053605803260        2.40292513866496
C           -6.27700758112363       -5.00661832269905        3.55953337548222
C           -5.06449310527693       -4.35315628751803        3.76901866022203
C           -4.53827375976283       -3.48926590221381        2.82679235422820
C           -5.25419593636533       -3.29783760285504        1.65217791795355
C           -3.94229706802844       -0.33997128561095        0.10593433281398
C           -2.80743543133730        0.43343836639182       -0.03851549516918
C            1.54194193235696       -0.09395225708634       -0.14550231368449
C            2.11322092047239       -0.62300119360266        1.00934603658514
C            3.23866006411439       -1.42135246357130        0.95650976603218
C            3.83121150114419       -1.70231158035333       -0.27204782566704
N            4.98183717514999       -2.50318145945149       -0.33491912064602
C            5.15537544337278       -3.60569375574304       -1.14573576188706
C            4.26254245673592       -4.20584260451240       -2.02402766431352
C            4.68586590424647       -5.33283143746332       -2.70358084478348
C            5.96088429781942       -5.86082564175419       -2.51265664624348
C            6.84618508061806       -5.28083540091761       -1.62248969279926
C            6.44412471774771       -4.14841060013285       -0.92872624839518
C            7.07456515005313       -3.31667096836449        0.06118130203766
C            8.32528678861936       -3.32606697645933        0.66208110437111
C            8.62460159825861       -2.33883368368298        1.58317562356504
C            7.70000600713847       -1.34457004729448        1.89546489637069
C            6.44808922332473       -1.31405693708786        1.30996068867050
C            6.13351914450008       -2.31608737392180        0.40127408554262
C            3.27746456672814       -1.17648927556811       -1.43617692598396
C            2.14740151258209       -0.38488776363814       -1.36401148423544
C           -0.91686864265407        2.39122104779035        2.34019133971153
C           -0.78205547787513        3.21124729400732        3.42062631691591
C           -0.53350487653293        5.34867823607214        5.49881672870758
H           -1.17441746488207        6.61028888847889        7.09914362119106
H            1.18507729395331        7.21872908791752        7.73349284534227
H            2.75191822458742        4.66880981125619        4.96977121649202
H            2.48770543947157        4.07006117487595        2.98797511859592
H            2.21858686401768        2.59757307366344        1.08530117884737
H            0.84231926226550        3.71961220358044       -0.94834420482961
H            0.61970059616585        4.96707505735323       -3.04194219465980
H           -0.29781341593677        2.47657478240353       -6.62321507186618
H           -0.57871362223283        3.83250597203580       -8.68794857060503
H           -1.00374870958642        6.28727624197012       -8.45421405361771
H           -0.95776311606553        6.07933105658792       -4.38860111617432
H           -1.49920444614993        1.67542232958903       -4.76456116979147
H           -1.24737734392747        0.42765084761830       -2.67570813266930
H           -0.45824870735098       -1.89269549196064        0.59589877580548
H           -2.46393052130478       -3.29643223529738        0.82539593920458
H           -5.38985265242672       -1.33520998599588       -1.97798549484565
H           -7.42330418214190       -1.83498569383895       -3.27999839801332
H           -9.14020453112975       -3.35052813283230       -2.41045807821575
H           -8.86484305333902       -4.44150897497513       -0.20890930005407
H           -7.95377446474623       -5.29538062114810        2.24979214939629
H           -6.65409356304381       -5.67596437381299        4.31859663696849
H           -4.52515852758853       -4.52212849981092        4.68947383239820
H           -3.60696918642236       -2.97353878202365        3.00476041715820
H           -4.92340883895382        0.09675230289140       -0.01181992848265
H           -2.90925772670803        1.47834657707010       -0.29389508303893
H            1.66198379039353       -0.40553270905836        1.96677377299904
H            3.65676032412306       -1.84277062797861        1.85914405987012
H            3.26752629404766       -3.81257710580036       -2.16596267202123
H            4.01178733938266       -5.81695889732094       -3.39488030505084
H            6.25572115186999       -6.74151170389119       -3.06390315859406
H            7.82847073738961       -5.70014303819281       -1.46528178467930
H            9.04904446974403       -4.08649787332927        0.41039219408751
H            9.59201841567041       -2.32966488251197        2.06313534666642
H            7.96824084677577       -0.57811753615294        2.60763217623908
H            5.74426203019223       -0.53017564821526        1.54485305220298
H            3.74950253608974       -1.37509666904217       -2.38747537604833
H            1.73137706135755        0.02648055060772       -2.27203233237264
H           -1.86676785984238        1.90732111489390        2.15854363964766
H           -1.62408799397185        3.35827908013206        4.08045129192592
H           -1.53588352596652        5.16420501482812        5.14419169728900

          :  Hamiltonian                  GFN2-xTB          :
         :: gradient norm              0.000064933658 Eh/a0 ::
         :: HOMO-LUMO gap              0.170486166753 eV    ::
         :: SCC energy              -160.947790752361 Eh    ::
         :: -> dispersion             -0.144039478861 Eh    ::
         :: -> Gsolv                  -0.069255184874 Eh    ::
         :: repulsion energy           2.955342520552 Eh    ::

    * Orbital Energies and Occupations

         #    Occupation            Energy/Eh            Energy/eV
      -------------------------------------------------------------
         1        2.0000           -0.7505284             -20.4229
       ...           ...                  ...                  ...
       137        2.0000           -0.3965450             -10.7905
       138        2.0000           -0.3953598             -10.7583
       139        2.0000           -0.3898326             -10.6079
       140        2.0000           -0.3880453             -10.5592
       141        2.0000           -0.3849587             -10.4753
       142        2.0000           -0.3849135             -10.4740
       143        2.0000           -0.3846634             -10.4672
       144        1.9999           -0.3748857             -10.2012
       145        1.9666           -0.3692644             -10.0482
       146        1.8759           -0.3679255             -10.0118
       147        1.8471           -0.3676953             -10.0055
       148        1.3105           -0.3653107              -9.9406
       149        0.9644           -0.2659217              -7.2361 (HOMO)
       150        0.0356           -0.2596533              -7.0655 (LUMO)
       151        0.0000           -0.2525631              -6.8726
       152        0.0000           -0.2519266              -6.8553
       153                         -0.2452701              -6.6741
       154                         -0.2445119              -6.6535
       155                         -0.2415780              -6.5737
       156                         -0.2355117              -6.4086
       157                         -0.2302234              -6.2647
       158                         -0.2297006              -6.2505
       159                         -0.2285461              -6.2191
       160                         -0.2284556              -6.2166
       ...                                ...                  ...
       297                          0.7383411              20.0913
      -------------------------------------------------------------
                  HL-Gap            0.0062684 Eh            0.1706 eV

     #   Z          covCN         q      C6AA      α(0)
     1   6 C        2.906    -0.039    28.964     8.825
     2   6 C        2.892     0.022    27.524     8.602
     3   7 N        1.836    -0.187    25.864     7.537
     4   6 C        2.894     0.049    26.903     8.504
     5   6 C        2.964    -0.016    28.396     8.741
     6   6 C        2.966    -0.006    28.159     8.704
     7   6 C        2.914    -0.044    29.095     8.845
     8   6 C        2.928    -0.036    28.893     8.815
     9   6 C        2.861    -0.106    30.683     9.079
    10  14 Si       3.608     0.479    98.505    19.056
    11   6 C        2.861    -0.094    30.344     9.029
    12   6 C        2.933    -0.033    28.828     8.805
    13   6 C        2.921    -0.037    28.918     8.819
    14   6 C        2.975     0.003    27.962     8.674
    15   6 C        2.971    -0.002    28.074     8.691
    16   6 C        2.933    -0.020    28.513     8.757
    17   6 C        2.911    -0.041    29.007     8.831
    18   6 C        2.910     0.052    26.823     8.492
    19   7 N        1.835    -0.238    27.064     7.709
    20   6 C        2.914     0.055    26.756     8.482
    21   6 C        2.921    -0.036    28.905     8.817
    22   6 C        2.933    -0.034    28.841     8.807
    23   6 C        2.861    -0.094    30.356     9.031
    24   6 C        2.934    -0.032    28.786     8.799
    25   6 C        2.919    -0.043    29.061     8.840
    26   6 C        2.914     0.061    26.632     8.462
    27   7 N        2.802    -0.032    21.859     6.944
    28   6 C        3.075     0.048    26.852     8.496
    29   6 C        2.909    -0.048    29.180     8.858
    30   6 C        2.923    -0.033    28.826     8.805
    31   6 C        2.920    -0.038    28.948     8.823
    32   6 C        2.912    -0.032    28.800     8.800
    33   6 C        3.066    -0.015    28.328     8.727
    34   6 C        3.066    -0.015    28.328     8.728
    35   6 C        2.912    -0.032    28.800     8.800
    36   6 C        2.920    -0.038    28.945     8.823
    37   6 C        2.923    -0.033    28.823     8.804
    38   6 C        2.909    -0.047    29.179     8.858
    39   6 C        3.075     0.048    26.851     8.496
    40   6 C        2.919    -0.043    29.057     8.840
    41   6 C        2.939    -0.030    28.755     8.795
    42   6 C        2.861    -0.093    30.329     9.027
    43   6 C        2.937    -0.030    28.748     8.793
    44   6 C        2.919    -0.042    29.049     8.838
    45   6 C        2.914     0.062    26.619     8.460
    46   7 N        2.802    -0.032    21.852     6.943
    47   6 C        3.075     0.048    26.852     8.496
    48   6 C        2.909    -0.048    29.180     8.858
    49   6 C        2.923    -0.033    28.824     8.804
    50   6 C        2.920    -0.038    28.946     8.823
    51   6 C        2.912    -0.032    28.798     8.800
    52   6 C        3.066    -0.015    28.325     8.727
    53   6 C        3.066    -0.015    28.326     8.727
    54   6 C        2.912    -0.032    28.798     8.800
    55   6 C        2.920    -0.038    28.942     8.822
    56   6 C        2.923    -0.033    28.820     8.804
    57   6 C        2.909    -0.047    29.175     8.857
    58   6 C        3.075     0.048    26.851     8.496
    59   6 C        2.919    -0.042    29.046     8.838
    60   6 C        2.934    -0.031    28.767     8.796
    61   6 C        2.923    -0.037    28.912     8.818
    62   6 C        2.914    -0.043    29.068     8.841
    63   6 C        2.925    -0.035    28.871     8.812
    64   1 H        0.926     0.034     2.524     2.484
    65   1 H        0.926     0.032     2.556     2.500
    66   1 H        0.926     0.041     2.435     2.440
    67   1 H        0.926     0.018     2.756     2.596
    68   1 H        0.925     0.011     2.880     2.654
    69   1 H        0.926     0.024     2.676     2.558
    70   1 H        0.926     0.026     2.648     2.545
    71   1 H        0.926     0.040     2.444     2.445
    72   1 H        0.926     0.039     2.460     2.453
    73   1 H        0.925     0.034     2.531     2.488
    74   1 H        0.925     0.035     2.520     2.482
    75   1 H        0.926     0.029     2.606     2.524
    76   1 H        0.926     0.024     2.677     2.558
    77   1 H        0.926     0.033     2.544     2.494
    78   1 H        0.926     0.041     2.440     2.443
    79   1 H        0.926     0.035     2.510     2.477
    80   1 H        0.926     0.035     2.515     2.480
    81   1 H        0.926     0.034     2.533     2.489
    82   1 H        0.926     0.036     2.500     2.472
    83   1 H        0.926     0.036     2.500     2.472
    84   1 H        0.926     0.034     2.530     2.488
    85   1 H        0.926     0.035     2.510     2.477
    86   1 H        0.926     0.036     2.500     2.473
    87   1 H        0.926     0.039     2.458     2.452
    88   1 H        0.926     0.030     2.592     2.518
    89   1 H        0.926     0.033     2.541     2.493
    90   1 H        0.926     0.041     2.437     2.441
    91   1 H        0.926     0.036     2.497     2.471
    92   1 H        0.926     0.036     2.508     2.476
    93   1 H        0.926     0.034     2.531     2.488
    94   1 H        0.926     0.036     2.500     2.472
    95   1 H        0.926     0.036     2.496     2.471
    96   1 H        0.926     0.034     2.529     2.487
    97   1 H        0.926     0.035     2.513     2.479
    98   1 H        0.926     0.036     2.509     2.477
    99   1 H        0.926     0.040     2.444     2.445
   100   1 H        0.926     0.033     2.539     2.492
   101   1 H        0.925     0.016     2.790     2.612
   102   1 H        0.926     0.020     2.733     2.585
   103   1 H        0.926     0.036     2.505     2.475

molecular dipole:
                 x           y           z       tot (Debye)
 q only:       -0.204      -2.850      -0.627
   full:       -0.360      -3.113      -0.766       8.200

 projected vibrational frequencies (cm⁻¹)
eigval :       -0.00    -0.00    -0.00     0.00     0.00     0.00
eigval :        6.33     8.42     9.04    11.66    11.81    13.86
eigval :       15.28    25.40    29.90    36.98    39.20    43.16
eigval :       46.79    55.73    57.63    66.35    69.72    72.92
eigval :       80.31    82.44    88.79   103.15   103.66   108.67
eigval :      127.48   134.01   138.82   142.69   143.23   153.93
eigval :      162.12   164.91   187.94   192.51   206.98   217.09
eigval :      240.24   253.46   256.79   270.99   271.45   274.80
eigval :      284.33   293.26   314.94   324.51   338.06   343.75
eigval :      358.59   361.51   366.74   368.51   370.89   372.91
eigval :      386.34   386.80   387.42   396.17   401.78   402.56
eigval :      419.39   421.77   422.80   433.97   435.41   447.45
eigval :      468.14   478.96   479.93   498.21   505.88   515.96
eigval :      516.35   517.95   530.39   538.25   538.41   538.63
eigval :      539.10   564.58   576.38   580.38   580.63   590.35
eigval :      593.31   593.87   603.06   607.13   612.76   613.01
eigval :      622.96   633.25   655.90   657.94   661.23   669.19
eigval :      674.05   674.27   677.75   679.29   684.17   685.19
eigval :      708.71   709.16   727.60   736.84   742.26   756.74
eigval :      757.80   767.71   768.15   768.76   769.46   773.23
eigval :      778.10   778.46   785.33   796.27   806.31   807.75
eigval :      808.91   810.54   866.31   866.85   870.57   870.91
eigval :      871.32   879.13   881.24   883.13   894.33   895.99
eigval :      896.94   897.01   902.11   902.85   903.32   903.48
eigval :      903.91   912.73   917.19   919.63   920.40   920.58
eigval :      920.90   921.14   922.03   927.29   928.96   930.09
eigval :      930.77   930.99   934.80   937.31   955.10   966.11
eigval :      991.86  1006.72  1010.44  1010.45  1012.37  1012.78
eigval :     1064.35  1067.46  1067.67  1070.08  1070.81  1076.05
eigval :     1086.94  1094.58  1114.84  1115.24  1121.96  1133.49
eigval :     1134.81  1136.13  1138.29  1140.51  1142.67  1145.67
eigval :     1145.83  1146.62  1148.05  1158.67  1173.86  1174.17
eigval :     1178.56  1179.13  1182.14  1182.93  1188.03  1200.40
eigval :     1204.80  1206.03  1212.84  1224.93  1231.62  1231.80
eigval :     1239.59  1240.46  1246.47  1261.81  1263.86  1269.39
eigval :     1270.76  1275.28  1276.80  1286.77  1291.57  1292.01
eigval :     1293.19  1294.06  1307.38  1308.41  1309.57  1311.57
eigval :     1314.87  1321.81  1347.36  1347.59  1350.83  1352.67
eigval :     1358.76  1359.38  1372.12  1377.77  1380.75  1390.81
eigval :     1391.86  1400.51  1405.86  1415.82  1416.12  1421.48
eigval :     1422.48  1434.69  1457.38  1462.41  1464.35  1464.70
eigval :     1477.85  1478.02  1479.66  1482.26  1482.70  1498.52
eigval :     1507.97  1524.07  1533.09  1548.74  1550.61  1566.15
eigval :     1566.94  1567.01  1574.56  1577.30  1581.33  1582.80
eigval :     1584.16  1584.31  1585.34  1601.60  1605.60  3047.37
eigval :     3047.57  3055.92  3056.39  3056.72  3057.51  3066.58
eigval :     3069.48  3070.40  3070.57  3070.77  3072.18  3072.67
eigval :     3074.34  3075.15  3075.27  3075.95  3076.23  3077.03
eigval :     3077.51  3079.14  3080.99  3081.54  3082.37  3082.39
eigval :     3083.14  3083.53  3084.13  3085.83  3086.12  3086.90
eigval :     3089.05  3089.07  3090.01  3090.21  3091.56  3094.40
eigval :     3094.94  3095.55  3096.23

   temp. (K)  partition function   enthalpy   heat capacity  entropy
                                   cal/mol     cal/K/mol   cal/K/mol   J/K/mol
 298.15  VIB  0.891E+27            31129.333    190.467    198.823
         ROT  0.266E+09              888.752      2.981     41.534
         INT  0.237E+36            32018.086    193.448    240.356
         TR   0.228E+29             1481.254      4.968     45.973
         TOT                       33499.3396   198.4161   286.3292  1198.0015

       T/K    H(0)-H(T)+PV         H(T)/Eh          T*S/Eh         G(T)/Eh
   ------------------------------------------------------------------------
    298.15    0.533846E-01    0.836181E+00    0.136044E+00    0.700137E+00
   ------------------------------------------------------------------------

         :::::::::::::::::::::::::::::::::::::::::::::::::::::
         ::                  THERMODYNAMIC                  ::
         :::::::::::::::::::::::::::::::::::::::::::::::::::::
         :: total free energy        -157.292311204534 Eh   ::
         ::.................................................::
         :: total energy             -157.992448240655 Eh   ::
         :: zero point energy           0.782796693126 Eh   ::
         :: G(RRHO) w/o ZPVE           -0.082659657006 Eh   ::
         :: G(RRHO) contrib.            0.700137036121 Eh   ::
         :::::::::::::::::::::::::::::::::::::::::::::::::::::

           -------------------------------------------------
          | TOTAL ENERGY             -157.992448240655 Eh   |
          | TOTAL ENTHALPY           -157.156266951817 Eh   |
          | TOTAL FREE ENERGY        -157.292311204534 Eh   |
          | GRADIENT NORM               0.000061155752 Eh/α |
          | HOMO-LUMO GAP               0.170572032260 eV   |
           -------------------------------------------------

 * finished run on 2025/08/30 at 08:11:12.308
