   * xtb version 6.7.1 (edcfbbe) compiled by 'albert@albert-system' on 2024-07-22

   ID    Z sym.   atoms
    1    6 C      1, 2, 4-9, 11-18, 20-26, 28-45, 47-63
    2    7 N      3, 19, 27, 46
    3   14 Si     10
    4    1 H      64-103

          program call               : xtb data2507/toluene/SiCz2Py2/SiCz2Py2.xyz --gfn 2 --gbsa toluene --ohess vtight --parallel 40 --molden --ceasefiles --namespace data2507/toluene/SiCz2Py2/SiCz2Py2_toluene_S0_preOpt
      * Solvation model:               GBSA
        Solvent                        toluene
        Solvent mass                       9.2140E+01 g/mol
          :  Hamiltonian                  GFN2-xTB          :
 * total energy  :  -158.0693907 Eh     change       -0.2364970E-08 Eh
 * total energy  :  -158.0897196 Eh     change       -0.2032889E-01 Eh
 * total energy  :  -158.0936324 Eh     change       -0.3912813E-02 Eh
 * total energy  :  -158.0941860 Eh     change       -0.5535361E-03 Eh
 * total energy  :  -158.0946834 Eh     change       -0.4973771E-03 Eh
 * total energy  :  -158.0949836 Eh     change       -0.3001991E-03 Eh
 * total energy  :  -158.0952612 Eh     change       -0.2776380E-03 Eh
 * total energy  :  -158.0954355 Eh     change       -0.1743246E-03 Eh
 * total energy  :  -158.0955528 Eh     change       -0.1173172E-03 Eh
 * total energy  :  -158.0956346 Eh     change       -0.8172746E-04 Eh
 * total energy  :  -158.0959204 Eh     change       -0.6650324E-06 Eh
 * total energy  :  -158.0959211 Eh     change       -0.7698258E-06 Eh
 * total energy  :  -158.0959218 Eh     change       -0.6367724E-06 Eh
 * total energy  :  -158.0959222 Eh     change       -0.4497713E-06 Eh
 * total energy  :  -158.0959227 Eh     change       -0.4450527E-06 Eh
 * total energy  :  -158.0959232 Eh     change       -0.5047428E-06 Eh
 * total energy  :  -158.0959235 Eh     change       -0.3208801E-06 Eh
 * total energy  :  -158.0959237 Eh     change       -0.2300702E-06 Eh
 * total energy  :  -158.0959238 Eh     change       -0.2492982E-07 Eh
   *** GEOMETRY OPTIMIZATION CONVERGED AFTER 83 ITERATIONS ***

 final structure:
================
103
 xtb: 6.7.1 (edcfbbe)
C            0.79878599172620        8.01677945109336        4.04760890252345
C            0.11709705782360        7.87781627795105        5.24757943079726
N           -0.53677332925726        6.77686116672328        5.58299611663868
C           -0.54197652399770        5.76887282451834        4.73079173356368
C            0.10021493265440        5.79118527167717        3.49099595563330
C            0.05531943601090        4.63419853081596        2.58867448417805
C            1.19608870788617        4.22581185614002        1.89971294356037
C            1.15274553827801        3.12986882387952        1.06081779121709
C           -0.02444237092160        2.40966917313355        0.87049789536283
Si          -0.05965437729144        0.91959387833320       -0.30169853683247
C           -0.17777789442075        1.50312293991913       -2.10195578365396
C            0.16179136111822        2.80099461294516       -2.47281032546358
C            0.08714517660543        3.21453542622599       -3.78876608403709
C           -0.32767539658834        2.33304553164519       -4.78523870484347
C           -0.41015822576672        2.76728700392604       -6.18492710184415
C           -0.00734381713978        1.94364431138657       -7.23592890305672
C           -0.10653181472286        2.40596151906613       -8.53658087343876
C           -0.60628085747763        3.68255666471426       -8.74749485279597
N           -1.00007338516520        4.47504241123582       -7.76302871796739
C           -0.90450007173996        4.02845089186618       -6.52465136079831
C           -0.66938840938128        1.03128217911487       -4.42222812546660
C           -0.59776090693677        0.62984190329995       -3.10292742730225
C           -1.56832275969836       -0.16184477585736        0.08184949710111
C           -2.82713851828653        0.19483203783719       -0.39645352834026
C           -3.94645762929215       -0.56271760899480       -0.11346562401316
C           -3.83107903602276       -1.70421586998249        0.67557468008814
N           -4.96462555841706       -2.47652416328359        0.97114738442517
C           -6.15908730937013       -1.99866430466556        1.47286519388019
C           -6.50639165321427       -0.70943578402829        1.85276424585641
C           -7.77624189618741       -0.50465901694727        2.35783003410353
C           -8.68392554870474       -1.55357720404090        2.49262462136977
C           -8.33661857790606       -2.84220727626249        2.13860648562021
C           -7.06530460049195       -3.07330620112558        1.62850945701232
C           -6.37555269874975       -4.25467500543195        1.19054417683244
C           -6.73880888540903       -5.59185793504471        1.09103229887000
C           -5.81747753726697       -6.49318818567201        0.59577854236524
C           -4.55215673454659       -6.07328431580218        0.18976658175895
C           -4.16779631485875       -4.74887635885237        0.27845618970435
C           -5.08123604676572       -3.84146607652619        0.79726619385522
C           -2.58077741853054       -2.07305841021173        1.16352248030133
C           -1.46900122372645       -1.31027287291823        0.86147050406312
C            1.54192680292118       -0.06309769438891       -0.04752459636782
C            2.03367368263863       -0.28641987936068        1.23664712683877
C            3.19660551823179       -1.00055953923107        1.44864943589866
C            3.90886438647206       -1.50473464403071        0.36380953287035
N            5.09610772605051       -2.22411593349843        0.56888059393176
C            5.39145714828943       -3.46380762887920        0.03776296801198
C            4.60961011363430       -4.29700131514873       -0.75046813640472
C            5.14319264799263       -5.51376410284132       -1.13034139944196
C            6.42073652323883       -5.90443427817311       -0.73325395582645
C            7.19422494388771       -5.09009249335620        0.07000284368605
C            6.68006118860819       -3.86124946850452        0.46442621880371
C            7.18294999977759       -2.79699699412969        1.28772699724374
C            8.37957791752519       -2.59479102859046        1.96378464517700
C            8.55583088869801       -1.41520366252130        2.65960483856134
C            7.56198636197361       -0.43831898744291        2.67671224283804
C            6.36333710958812       -0.61634544426698        2.01260142658549
C            6.17168542651096       -1.80889347925644        1.32850526791602
C            3.43490790824476       -1.28473891387459       -0.92628951926619
C            2.26409352887404       -0.57727592099989       -1.12033591465662
C           -1.15956120983121        2.82586566381440        1.56002131944317
C           -1.12490160730215        3.91576428839078        2.40822020074763
C            0.78871273813793        6.95722990069744        3.15744335454603
H            1.31908674169213        8.93330434879701        3.81517859021186
H            0.08818480891472        8.67781420524929        5.97605168622868
H           -1.07515343132529        4.88585778529047        5.06065872824419
H            2.12563934326744        4.75852172516022        2.04314020478223
H            2.05107527354266        2.81991126494057        0.54558816456516
H            0.48717170247566        3.49937379467574       -1.71558405920758
H            0.37059585522576        4.22305484806504       -4.05446851184529
H            0.39620067396923        0.96210953261818       -7.03173602817414
H            0.20208267613940        1.79278177504820       -9.36935730559430
H           -0.69873238625920        4.09523529050040       -9.74379925869593
H           -1.25817271861753        4.70764678717705       -5.75898322153156
H           -1.01435914963653        0.33936507741632       -5.17754434205145
H           -0.87804620451011       -0.38036285123464       -2.83982665180795
H           -2.92876681610478        1.07675959266444       -1.01247745082593
H           -4.91211827944709       -0.28425322641256       -0.50980089797230
H           -5.80561287164859        0.10738870116524        1.76821753165842
H           -8.07123385820649        0.49047740365301        2.65800210409425
H           -9.66838437096834       -1.35271435255609        2.88937020821976
H           -9.03475334512946       -3.65740727686118        2.25785167063163
H           -7.72452002031269       -5.91480862415729        1.39146010033114
H           -6.07942827770891       -7.53788002013802        0.51244965441950
H           -3.85732355809678       -6.79924636595244       -0.20716163513413
H           -3.19054569927990       -4.43235284146183       -0.05362977461510
H           -2.49080305140687       -2.94962366455228        1.78838513832992
H           -0.50395895039158       -1.61056473822686        1.24210884339069
H            1.49341974024675        0.10661550264334        2.08598823231040
H            3.55466318815250       -1.18180101892097        2.45165937850651
H            3.61283515649829       -4.01055340002909       -1.05039685212112
H            4.55576329657385       -6.17878296669846       -1.74684021501977
H            6.80345133169500       -6.86266702944685       -1.05322220635639
H            8.17825468073847       -5.39949859603747        0.38963777362671
H            9.15590998003307       -3.34506656628086        1.93836392262082
H            9.47880357487178       -1.23906719332150        3.19260443751598
H            7.73425128553184        0.48050364918786        3.21845776630402
H            5.60636078252527        0.15344954232652        2.01935931616293
H            3.99708595812975       -1.65794549845620       -1.76994550879937
H            1.91025427623552       -0.40752363319210       -2.12656059762876
H           -2.08486281304958        2.28315132605324        1.43197551387474
H           -2.02230101873122        4.22868356758672        2.92286817000209
H            1.29205487636190        7.03567237752384        2.20424401940975

          :  Hamiltonian                  GFN2-xTB          :
         :: gradient norm              0.000123769590 Eh/a0 ::
         :: HOMO-LUMO gap              2.655614163990 eV    ::
         :: SCC energy              -161.064237406695 Eh    ::
         :: -> dispersion             -0.144023976387 Eh    ::
         :: -> Gsolv                  -0.069478658480 Eh    ::
         :: repulsion energy           2.968313652584 Eh    ::

    * Orbital Energies and Occupations

         #    Occupation            Energy/Eh            Energy/eV
      -------------------------------------------------------------
         1        2.0000           -0.7600145             -20.6810
       ...           ...                  ...                  ...
       136        2.0000           -0.4056417             -11.0381
       137        2.0000           -0.4051726             -11.0253
       138        2.0000           -0.4014888             -10.9251
       139        2.0000           -0.3988604             -10.8535
       140        2.0000           -0.3931630             -10.6985
       141        2.0000           -0.3902329             -10.6188
       142        2.0000           -0.3901559             -10.6167
       143        2.0000           -0.3787997             -10.3077
       144        2.0000           -0.3784230             -10.2974
       145        2.0000           -0.3711263             -10.0989
       146        2.0000           -0.3708550             -10.0915
       147        2.0000           -0.3624875              -9.8638
       148        2.0000           -0.3619789              -9.8499 (HOMO)
       149                         -0.2643868              -7.1943 (LUMO)
       150                         -0.2619863              -7.1290
       151                         -0.2506422              -6.8203
       152                         -0.2488222              -6.7708
       153                         -0.2486067              -6.7649
       154                         -0.2472450              -6.7279
       155                         -0.2426543              -6.6030
       156                         -0.2398460              -6.5265
       157                         -0.2299878              -6.2583
       158                         -0.2294920              -6.2448
       159                         -0.2263200              -6.1585
       ...                                ...                  ...
       297                          0.7444965              20.2588
      -------------------------------------------------------------
                  HL-Gap            0.0975921 Eh            2.6556 eV

     #   Z          covCN         q      C6AA      α(0)
     1   6 C        2.911    -0.040    28.994     8.829
     2   6 C        2.913     0.058    26.708     8.474
     3   7 N        1.835    -0.241    27.142     7.720
     4   6 C        2.917     0.056    26.736     8.479
     5   6 C        2.972     0.001    28.003     8.680
     6   6 C        2.976     0.008    27.838     8.655
     7   6 C        2.921    -0.034    28.848     8.808
     8   6 C        2.936    -0.032    28.787     8.799
     9   6 C        2.862    -0.092    30.302     9.023
    10  14 Si       3.610     0.492    98.142    19.019
    11   6 C        2.862    -0.092    30.299     9.022
    12   6 C        2.933    -0.032    28.797     8.801
    13   6 C        2.922    -0.034    28.858     8.809
    14   6 C        2.976     0.008    27.840     8.655
    15   6 C        2.972     0.001    28.004     8.680
    16   6 C        2.933    -0.017    28.431     8.745
    17   6 C        2.911    -0.040    28.995     8.830
    18   6 C        2.912     0.058    26.709     8.474
    19   7 N        1.835    -0.241    27.147     7.721
    20   6 C        2.917     0.056    26.737     8.479
    21   6 C        2.921    -0.034    28.849     8.808
    22   6 C        2.936    -0.032    28.793     8.800
    23   6 C        2.862    -0.095    30.378     9.034
    24   6 C        2.938    -0.031    28.769     8.797
    25   6 C        2.919    -0.043    29.080     8.843
    26   6 C        2.913     0.064    26.558     8.451
    27   7 N        2.801    -0.047    22.148     6.990
    28   6 C        3.075     0.047    26.858     8.497
    29   6 C        2.910    -0.052    29.293     8.875
    30   6 C        2.924    -0.035    28.878     8.813
    31   6 C        2.920    -0.043    29.064     8.841
    32   6 C        2.912    -0.035    28.873     8.811
    33   6 C        3.067    -0.019    28.412     8.740
    34   6 C        3.067    -0.019    28.410     8.740
    35   6 C        2.912    -0.035    28.873     8.811
    36   6 C        2.919    -0.043    29.066     8.841
    37   6 C        2.924    -0.035    28.881     8.813
    38   6 C        2.909    -0.052    29.298     8.876
    39   6 C        3.075     0.047    26.858     8.497
    40   6 C        2.919    -0.043    29.075     8.842
    41   6 C        2.935    -0.032    28.794     8.800
    42   6 C        2.862    -0.095    30.374     9.034
    43   6 C        2.938    -0.031    28.768     8.797
    44   6 C        2.919    -0.043    29.077     8.843
    45   6 C        2.913     0.064    26.559     8.451
    46   7 N        2.802    -0.047    22.150     6.990
    47   6 C        3.076     0.047    26.858     8.497
    48   6 C        2.909    -0.052    29.298     8.876
    49   6 C        2.924    -0.035    28.880     8.813
    50   6 C        2.919    -0.043    29.067     8.841
    51   6 C        2.912    -0.035    28.873     8.811
    52   6 C        3.067    -0.019    28.412     8.740
    53   6 C        3.067    -0.019    28.412     8.740
    54   6 C        2.912    -0.035    28.873     8.811
    55   6 C        2.920    -0.043    29.066     8.841
    56   6 C        2.924    -0.035    28.879     8.813
    57   6 C        2.909    -0.052    29.297     8.875
    58   6 C        3.075     0.047    26.858     8.497
    59   6 C        2.919    -0.043    29.072     8.842
    60   6 C        2.935    -0.032    28.789     8.800
    61   6 C        2.933    -0.032    28.792     8.800
    62   6 C        2.922    -0.034    28.855     8.809
    63   6 C        2.933    -0.017    28.429     8.744
    64   1 H        0.926     0.042     2.427     2.436
    65   1 H        0.925     0.036     2.502     2.474
    66   1 H        0.925     0.037     2.493     2.469
    67   1 H        0.926     0.033     2.550     2.497
    68   1 H        0.926     0.027     2.627     2.534
    69   1 H        0.926     0.029     2.604     2.523
    70   1 H        0.926     0.031     2.571     2.508
    71   1 H        0.926     0.043     2.406     2.426
    72   1 H        0.926     0.042     2.428     2.437
    73   1 H        0.925     0.036     2.504     2.474
    74   1 H        0.925     0.037     2.492     2.469
    75   1 H        0.926     0.033     2.544     2.494
    76   1 H        0.926     0.028     2.611     2.527
    77   1 H        0.926     0.031     2.568     2.506
    78   1 H        0.926     0.039     2.463     2.454
    79   1 H        0.926     0.030     2.586     2.515
    80   1 H        0.926     0.030     2.588     2.516
    81   1 H        0.926     0.027     2.624     2.533
    82   1 H        0.926     0.030     2.592     2.518
    83   1 H        0.926     0.030     2.592     2.518
    84   1 H        0.926     0.027     2.625     2.534
    85   1 H        0.926     0.030     2.591     2.517
    86   1 H        0.926     0.030     2.583     2.513
    87   1 H        0.926     0.039     2.459     2.452
    88   1 H        0.926     0.033     2.538     2.492
    89   1 H        0.926     0.032     2.562     2.503
    90   1 H        0.926     0.039     2.460     2.453
    91   1 H        0.926     0.030     2.581     2.512
    92   1 H        0.926     0.030     2.590     2.517
    93   1 H        0.926     0.027     2.626     2.534
    94   1 H        0.926     0.029     2.594     2.519
    95   1 H        0.926     0.030     2.593     2.518
    96   1 H        0.926     0.027     2.626     2.534
    97   1 H        0.926     0.030     2.593     2.518
    98   1 H        0.926     0.030     2.586     2.515
    99   1 H        0.926     0.039     2.462     2.454
   100   1 H        0.926     0.033     2.544     2.494
   101   1 H        0.926     0.028     2.612     2.528
   102   1 H        0.926     0.031     2.572     2.508
   103   1 H        0.926     0.043     2.408     2.427

molecular dipole:
                 x           y           z       tot (Debye)
 q only:        0.425       0.038      -0.547
   full:        0.720      -0.182      -0.805       2.784

 projected vibrational frequencies (cm⁻¹)
eigval :       -0.00    -0.00    -0.00    -0.00     0.00     0.00
eigval :        6.24     9.18    12.03    12.36    13.79    14.99
eigval :       18.05    24.57    30.02    35.99    40.74    44.11
eigval :       46.84    58.64    60.88    70.03    71.44    73.96
eigval :       78.47    79.20    85.34   106.84   107.11   109.28
eigval :      131.50   136.77   143.32   145.15   151.52   156.08
eigval :      163.55   174.44   185.35   192.12   212.88   219.20
eigval :      251.97   258.85   272.33   273.65   275.02   278.05
eigval :      283.90   296.27   315.43   325.50   337.24   361.45
eigval :      362.68   365.39   368.34   369.22   371.14   374.34
eigval :      377.16   388.13   389.78   392.42   401.29   402.14
eigval :      423.87   425.55   435.67   437.37   475.79   477.19
eigval :      481.56   483.31   511.44   514.24   518.36   518.52
eigval :      523.36   534.88   535.15   537.74   538.93   541.82
eigval :      541.99   581.05   581.18   594.45   594.77   595.26
eigval :      597.24   606.25   606.40   612.72   613.90   639.44
eigval :      662.56   663.00   666.80   674.65   674.92   679.68
eigval :      680.97   681.24   682.21   692.35   692.75   708.80
eigval :      708.98   738.63   745.82   757.77   759.38   768.97
eigval :      769.71   775.95   778.15   779.16   780.86   782.14
eigval :      783.36   809.45   811.21   814.16   816.46   864.70
eigval :      866.81   872.19   873.41   876.44   878.90   883.10
eigval :      885.03   897.21   897.27   899.94   901.27   901.43
eigval :      902.80   903.99   904.87   911.18   912.99   919.13
eigval :      920.75   922.33   922.77   924.83   925.44   926.87
eigval :      927.32   929.11   930.42   931.42   931.90   933.18
eigval :      935.50   936.48   937.46   977.04   977.59  1008.22
eigval :     1008.85  1011.02  1011.07  1012.81  1014.16  1068.21
eigval :     1069.20  1071.72  1073.33  1082.33  1082.67  1093.84
eigval :     1095.03  1116.59  1116.75  1133.16  1135.68  1136.42
eigval :     1136.71  1142.97  1144.73  1145.72  1148.51  1150.64
eigval :     1150.90  1151.06  1151.92  1175.01  1175.19  1179.82
eigval :     1180.33  1182.77  1184.33  1193.62  1194.72  1205.44
eigval :     1206.86  1207.93  1210.67  1235.06  1235.64  1243.80
eigval :     1244.54  1264.48  1265.04  1270.09  1272.15  1274.16
eigval :     1274.97  1279.93  1281.00  1294.89  1295.43  1299.32
eigval :     1299.41  1300.77  1301.10  1307.25  1307.34  1308.47
eigval :     1309.11  1355.10  1355.17  1360.00  1360.05  1361.36
eigval :     1361.57  1379.83  1380.43  1391.94  1393.04  1402.79
eigval :     1403.32  1426.09  1426.77  1427.21  1427.63  1440.50
eigval :     1441.03  1473.96  1474.04  1484.46  1484.85  1486.89
eigval :     1487.02  1487.53  1487.72  1549.19  1549.58  1554.20
eigval :     1554.72  1561.84  1561.95  1570.10  1570.20  1572.98
eigval :     1573.04  1584.30  1585.58  1587.78  1588.06  1591.83
eigval :     1592.86  1596.88  1597.06  1612.99  1613.12  3048.70
eigval :     3049.08  3053.95  3054.33  3062.56  3063.78  3068.37
eigval :     3068.71  3069.93  3070.15  3070.19  3070.53  3070.89
eigval :     3071.14  3071.48  3071.67  3074.73  3074.88  3075.09
eigval :     3075.84  3076.18  3076.48  3076.59  3077.16  3080.34
eigval :     3080.98  3082.93  3083.65  3084.34  3084.56  3084.69
eigval :     3085.12  3086.98  3087.38  3090.07  3090.39  3090.56
eigval :     3090.96  3092.76  3093.31

   temp. (K)  partition function   enthalpy   heat capacity  entropy
                                   cal/mol     cal/K/mol   cal/K/mol   J/K/mol
 298.15  VIB  0.204E+27            30654.352    187.669    195.365
         ROT  0.266E+09              888.752      2.981     41.534
         INT  0.543E+35            31543.105    190.650    236.899
         TR   0.228E+29             1481.254      4.968     45.973
         TOT                       33024.3586   195.6184   282.8718  1183.5357

       T/K    H(0)-H(T)+PV         H(T)/Eh          T*S/Eh         G(T)/Eh
   ------------------------------------------------------------------------
    298.15    0.526277E-01    0.841468E+00    0.134402E+00    0.707067E+00
   ------------------------------------------------------------------------

         :::::::::::::::::::::::::::::::::::::::::::::::::::::
         ::                  THERMODYNAMIC                  ::
         :::::::::::::::::::::::::::::::::::::::::::::::::::::
         :: total free energy        -157.388857026199 Eh   ::
         ::.................................................::
         :: total energy             -158.095923755438 Eh   ::
         :: zero point energy           0.788840590169 Eh   ::
         :: G(RRHO) w/o ZPVE           -0.081773860931 Eh   ::
         :: G(RRHO) contrib.            0.707066729238 Eh   ::
         :::::::::::::::::::::::::::::::::::::::::::::::::::::

           -------------------------------------------------
          | TOTAL ENERGY             -158.095923755438 Eh   |
          | TOTAL ENTHALPY           -157.254455499915 Eh   |
          | TOTAL FREE ENERGY        -157.388857026199 Eh   |
          | GRADIENT NORM               0.000123756821 Eh/α |
          | HOMO-LUMO GAP               2.655615832402 eV   |
           -------------------------------------------------

 * finished run on 2025/08/30 at 07:59:18.045
