   * xtb version 6.7.1 (edcfbbe) compiled by 'albert@albert-system' on 2024-07-22

   ID    Z sym.   atoms
    1    6 C      1, 2, 4-9, 11-18, 20-26, 28-45, 47-63
    2    7 N      3, 19, 27, 46
    3   14 Si     10
    4    1 H      64-103

          program call               : xtb data2507/toluene/SiCz2Py2/SiCz2Py2_toluene_S0_crest.xyz --gfn 2 --gbsa toluene --ohess vtight --parallel 40 --molden --ceasefiles --namespace data2507/toluene/SiCz2Py2/SiCz2Py2_toluene_S0_finalOpt
      * Solvation model:               GBSA
        Solvent                        toluene
        Solvent mass                       9.2140E+01 g/mol
          :  Hamiltonian                  GFN2-xTB          :
 * total energy  :  -158.0958003 Eh     change       -0.3266990E-08 Eh
 * total energy  :  -158.0958576 Eh     change       -0.5728233E-04 Eh
 * total energy  :  -158.0958938 Eh     change       -0.3615032E-04 Eh
 * total energy  :  -158.0959075 Eh     change       -0.1371288E-04 Eh
 * total energy  :  -158.0959161 Eh     change       -0.8653906E-05 Eh
 * total energy  :  -158.0959213 Eh     change       -0.5139509E-05 Eh
 * total energy  :  -158.0959261 Eh     change       -0.4780924E-05 Eh
 * total energy  :  -158.0959320 Eh     change       -0.5895521E-05 Eh
 * total energy  :  -158.0959371 Eh     change       -0.5148632E-05 Eh
 * total energy  :  -158.0959387 Eh     change       -0.1565428E-05 Eh
 * total energy  :  -158.0959920 Eh     change       -0.2744715E-06 Eh
 * total energy  :  -158.0959922 Eh     change       -0.1828964E-06 Eh
 * total energy  :  -158.0959924 Eh     change       -0.1552279E-06 Eh
 * total energy  :  -158.0959925 Eh     change       -0.1450302E-06 Eh
 * total energy  :  -158.0959926 Eh     change       -0.1165370E-06 Eh
 * total energy  :  -158.0959928 Eh     change       -0.1217057E-06 Eh
 * total energy  :  -158.0959929 Eh     change       -0.1479048E-06 Eh
 * total energy  :  -158.0959931 Eh     change       -0.1994899E-06 Eh
 * total energy  :  -158.0959931 Eh     change       -0.2034881E-08 Eh
   *** GEOMETRY OPTIMIZATION CONVERGED AFTER 68 ITERATIONS ***

 final structure:
================
103
 xtb: 6.7.1 (edcfbbe)
C           -0.18372544295814        6.51575772351741        6.21946688344271
C            1.00781721932004        6.41149597896370        6.92183151813689
N            1.95922890368714        5.54754254051111        6.60469966188295
C            1.76307484762461        4.75423620377986        5.56808584724318
C            0.61112406284813        4.77070075553673        4.77901240706213
C            0.45611174308848        3.86300045672791        3.63586596709669
C            1.52387570288718        3.61146451508793        2.77587698012618
C            1.37055731040383        2.75749132298685        1.70176613185012
C            0.15684597240269        2.12186907470740        1.44809789662380
Si          -0.02048357028066        0.97138351960561       -0.04809067217343
C           -0.21385734560073        1.98808841209489       -1.63726323801113
C            0.15927536029569        3.32745203453594       -1.70139392490567
C            0.02739329939237        4.05409621895842       -2.86901119570690
C           -0.47855058276124        3.45569745582171       -4.02120303794176
C           -0.61777457413082        4.22084118461654       -5.26622476038770
C           -0.29202582891119        3.67147989217074       -6.50605526526176
C           -0.44330149759755        4.43789413859625       -7.64836621978954
C           -0.91575571598710        5.73522350616003       -7.51541067897659
N           -1.23520906240725        6.27090828626951       -6.34784189123614
C           -1.09084562761281        5.53463749597731       -5.26186449630210
C           -0.85587663699417        2.11503629548321       -3.96530643066203
C           -0.72819205745671        1.40010366766794       -2.79089646593161
C           -1.55315210163061       -0.12810263714464        0.14057075607709
C           -1.45255060666648       -1.47342401308257        0.48224569313449
C           -2.57552295053317       -2.26634394550608        0.62100483989249
C           -3.84124644755955       -1.71911886483770        0.43132555544822
N           -4.98683870537276       -2.51528340735080        0.58112555166535
C           -6.01835498088095       -2.62912887289371       -0.32976158639087
C           -6.15696297419080       -2.05470641846711       -1.58588474013082
C           -7.29177150062652       -2.35855893100237       -2.31357025213002
C           -8.26691760810879       -3.22061662200381       -1.81532980086697
C           -8.12356234522610       -3.81394712017401       -0.57678829908722
C           -6.99115164521209       -3.52399465234407        0.17383259069881
C           -6.51610091922228       -3.96317514358011        1.45624270443900
C           -7.02845990853811       -4.81776712104902        2.42428137468763
C           -6.30694619397377       -5.01123063474940        3.58556093101031
C           -5.09635524052618       -4.35307176015185        3.79454374514718
C           -4.56637177348887       -3.49834229153565        2.84688073445532
C           -5.27469925049115       -3.31891942005662        1.66660388429130
C           -3.95975099094725       -0.37426861029598        0.09050697668029
C           -2.82648225028295        0.40084032655097       -0.05833910880393
C            1.53754438777693       -0.10405663337165       -0.15048651705468
C            2.09457393697526       -0.64680065035015        1.00532227045323
C            3.22004153382184       -1.44560327825607        0.95584553994362
C            3.82853383262303       -1.71248367843325       -0.26768739503904
N            4.97990548225496       -2.51246342265433       -0.32588525258307
C            5.16629232016349       -3.60362039080993       -1.15090545397946
C            4.28706043579790       -4.19405428273153       -2.04825437839569
C            4.72106989101737       -5.31018881590737       -2.73777478172325
C            5.99536774165462       -5.83854775980354       -2.53939305781293
C            6.86639838846582       -5.26923830460843       -1.63175918471705
C            6.45305132661608       -4.14621833771066       -0.92620744680416
C            7.06979043384780       -3.32902706378803        0.08130399188669
C            8.31562148034515       -3.34575916661337        0.69586395518258
C            8.60472916451547       -2.37392754308433        1.63319263116442
C            7.67467828694185       -1.38564242084038        1.95048526691474
C            6.42926753319362       -1.34796055409473        1.35297016722199
C            6.12428747081836       -2.33526754439384        0.42615740922214
C            3.28786438586732       -1.17321136629425       -1.43141311499826
C            2.15521872832508       -0.38473420558254       -1.36547788382542
C           -0.90144781000084        2.37183012079044        2.31640940188207
C           -0.76031975536513        3.22912447284754        3.39056646946869
C           -0.38260788778953        5.68347209346311        5.13186940499481
H           -0.93294412736380        7.23472239703359        6.51356776282580
H            1.21692279008727        7.04286468374324        7.77573118883251
H            2.56306686083660        4.05362883277026        5.36341329864860
H            2.47051387316814        4.10557921185662        2.94293393948264
H            2.20941539475194        2.57537981956997        1.04487256131554
H            0.55710782442417        3.80883464007364       -0.81988616001330
H            0.33686514308151        5.08919683754019       -2.89903824649888
H            0.09285857799786        2.66345800995453       -6.56784808165384
H           -0.19506974731841        4.04127033559130       -8.62092517661754
H           -1.04638963384732        6.37931037086235       -8.37541215092031
H           -1.38391065437196        6.01289345084595       -4.33554397386968
H           -1.27167276624876        1.64080137845485       -4.84319075710486
H           -1.03677946166334        0.36457267578984       -2.76345121402785
H           -0.47605246236445       -1.91063619566847        0.63008528177730
H           -2.47972747587834       -3.31464757972929        0.86368344166314
H           -5.40023015904314       -1.39807456568507       -1.98806040574051
H           -7.42459565013563       -1.92093664226942       -3.29248548718752
H           -9.14150349575382       -3.43110481851506       -2.41350277428129
H           -8.87192770529061       -4.49391335553075       -0.19754814770173
H           -7.97425938007675       -5.31550237393519        2.26950853627028
H           -6.68651193435876       -5.67390502023097        4.34960757054814
H           -4.56158889370006       -4.51242273715899        4.71976797745613
H           -3.63587967470489       -2.98099232302441        3.02585363370087
H           -4.94110229307792        0.05682598365326       -0.04404330540174
H           -2.93078719539477        1.44102898241565       -0.33195248659999
H            1.63431651124240       -0.44157849812478        1.96121491905366
H            3.62845431527349       -1.87548978914449        1.85888673368558
H            3.29227975355454       -3.80211857525418       -2.19768429323514
H            4.05638827577516       -5.78646324429369       -3.44402192332536
H            6.29835849433587       -6.71104568997421       -3.09972521371812
H            7.84838736888079       -5.68755733695250       -1.46767129007921
H            9.04210512129635       -4.10244599834341        0.43924450176861
H            9.56716133754764       -2.37042537906857        2.12375138545428
H            7.93476007665174       -0.62965498959678        2.67722216666145
H            5.72234735625211       -0.56839327188335        1.59388301937018
H            3.76957203163298       -1.36374933957063       -2.37944443282347
H            1.74886155335893        0.03290426569729       -2.27482493769062
H           -1.84994282881668        1.88213641744965        2.15031592951962
H           -1.59198732210722        3.39387191102956        4.06098296598545
H           -1.28960810845212        5.74937097513654        4.54793072917064

          :  Hamiltonian                  GFN2-xTB          :
         :: gradient norm              0.000032976077 Eh/a0 ::
         :: HOMO-LUMO gap              2.659320855326 eV    ::
         :: SCC energy              -161.064302611644 Eh    ::
         :: -> dispersion             -0.143993971432 Eh    ::
         :: -> Gsolv                  -0.069488782000 Eh    ::
         :: repulsion energy           2.968309506622 Eh    ::

    * Orbital Energies and Occupations

         #    Occupation            Energy/Eh            Energy/eV
      -------------------------------------------------------------
         1        2.0000           -0.7600103             -20.6809
       ...           ...                  ...                  ...
       136        2.0000           -0.4055072             -11.0344
       137        2.0000           -0.4052731             -11.0280
       138        2.0000           -0.4015108             -10.9257
       139        2.0000           -0.3990593             -10.8590
       140        2.0000           -0.3932592             -10.7011
       141        2.0000           -0.3902965             -10.6205
       142        2.0000           -0.3899768             -10.6118
       143        2.0000           -0.3787211             -10.3055
       144        2.0000           -0.3784425             -10.2979
       145        2.0000           -0.3711412             -10.0993
       146        2.0000           -0.3708528             -10.0914
       147        2.0000           -0.3623243              -9.8593
       148        2.0000           -0.3620839              -9.8528 (HOMO)
       149                         -0.2643557              -7.1935 (LUMO)
       150                         -0.2617971              -7.1239
       151                         -0.2503860              -6.8134
       152                         -0.2487808              -6.7697
       153                         -0.2484879              -6.7617
       154                         -0.2474618              -6.7338
       155                         -0.2424798              -6.5982
       156                         -0.2401946              -6.5360
       157                         -0.2299713              -6.2578
       158                         -0.2293037              -6.2397
       159                         -0.2263630              -6.1597
       ...                                ...                  ...
       297                          0.7445106              20.2592
      -------------------------------------------------------------
                  HL-Gap            0.0977282 Eh            2.6593 eV

     #   Z          covCN         q      C6AA      α(0)
     1   6 C        2.911    -0.040    28.993     8.829
     2   6 C        2.912     0.058    26.708     8.474
     3   7 N        1.835    -0.241    27.146     7.721
     4   6 C        2.917     0.056    26.737     8.479
     5   6 C        2.972     0.001    28.005     8.680
     6   6 C        2.976     0.008    27.839     8.655
     7   6 C        2.921    -0.035    28.864     8.810
     8   6 C        2.937    -0.031    28.777     8.798
     9   6 C        2.862    -0.092    30.301     9.023
    10  14 Si       3.610     0.492    98.139    19.019
    11   6 C        2.862    -0.092    30.293     9.022
    12   6 C        2.933    -0.032    28.793     8.800
    13   6 C        2.922    -0.034    28.855     8.809
    14   6 C        2.976     0.008    27.838     8.655
    15   6 C        2.972     0.001    28.003     8.680
    16   6 C        2.933    -0.017    28.430     8.744
    17   6 C        2.911    -0.040    28.994     8.830
    18   6 C        2.913     0.058    26.709     8.474
    19   7 N        1.835    -0.241    27.144     7.721
    20   6 C        2.917     0.056    26.736     8.479
    21   6 C        2.921    -0.034    28.848     8.808
    22   6 C        2.936    -0.032    28.791     8.800
    23   6 C        2.862    -0.095    30.377     9.034
    24   6 C        2.935    -0.032    28.791     8.800
    25   6 C        2.919    -0.043    29.074     8.842
    26   6 C        2.913     0.064    26.559     8.451
    27   7 N        2.802    -0.047    22.148     6.990
    28   6 C        3.075     0.047    26.859     8.497
    29   6 C        2.909    -0.052    29.297     8.875
    30   6 C        2.924    -0.035    28.881     8.813
    31   6 C        2.919    -0.043    29.066     8.841
    32   6 C        2.912    -0.035    28.873     8.811
    33   6 C        3.067    -0.019    28.411     8.740
    34   6 C        3.067    -0.019    28.412     8.740
    35   6 C        2.912    -0.035    28.873     8.811
    36   6 C        2.919    -0.043    29.065     8.841
    37   6 C        2.924    -0.035    28.878     8.813
    38   6 C        2.909    -0.052    29.297     8.875
    39   6 C        3.075     0.047    26.859     8.497
    40   6 C        2.919    -0.044    29.083     8.843
    41   6 C        2.938    -0.031    28.768     8.797
    42   6 C        2.862    -0.095    30.381     9.035
    43   6 C        2.938    -0.031    28.768     8.797
    44   6 C        2.919    -0.043    29.077     8.843
    45   6 C        2.913     0.064    26.559     8.451
    46   7 N        2.802    -0.047    22.151     6.990
    47   6 C        3.075     0.047    26.858     8.497
    48   6 C        2.909    -0.052    29.298     8.876
    49   6 C        2.924    -0.035    28.881     8.813
    50   6 C        2.920    -0.043    29.067     8.841
    51   6 C        2.912    -0.035    28.874     8.811
    52   6 C        3.067    -0.019    28.412     8.740
    53   6 C        3.067    -0.019    28.413     8.740
    54   6 C        2.912    -0.035    28.874     8.811
    55   6 C        2.919    -0.043    29.065     8.841
    56   6 C        2.924    -0.035    28.878     8.813
    57   6 C        2.909    -0.052    29.296     8.875
    58   6 C        3.076     0.047    26.858     8.497
    59   6 C        2.919    -0.043    29.073     8.842
    60   6 C        2.935    -0.032    28.791     8.800
    61   6 C        2.933    -0.033    28.814     8.803
    62   6 C        2.922    -0.034    28.841     8.807
    63   6 C        2.933    -0.017    28.430     8.744
    64   1 H        0.926     0.042     2.427     2.436
    65   1 H        0.925     0.036     2.503     2.474
    66   1 H        0.925     0.037     2.492     2.469
    67   1 H        0.926     0.031     2.572     2.508
    68   1 H        0.926     0.027     2.628     2.535
    69   1 H        0.926     0.029     2.601     2.522
    70   1 H        0.926     0.031     2.571     2.508
    71   1 H        0.926     0.043     2.407     2.426
    72   1 H        0.926     0.042     2.427     2.436
    73   1 H        0.925     0.036     2.503     2.474
    74   1 H        0.925     0.037     2.493     2.469
    75   1 H        0.926     0.033     2.546     2.495
    76   1 H        0.926     0.028     2.619     2.531
    77   1 H        0.926     0.033     2.549     2.496
    78   1 H        0.926     0.039     2.462     2.453
    79   1 H        0.926     0.030     2.583     2.513
    80   1 H        0.926     0.030     2.592     2.518
    81   1 H        0.926     0.027     2.626     2.534
    82   1 H        0.926     0.030     2.593     2.518
    83   1 H        0.926     0.030     2.593     2.518
    84   1 H        0.926     0.027     2.625     2.534
    85   1 H        0.926     0.030     2.589     2.516
    86   1 H        0.926     0.030     2.579     2.511
    87   1 H        0.926     0.039     2.461     2.453
    88   1 H        0.926     0.032     2.562     2.503
    89   1 H        0.926     0.032     2.562     2.503
    90   1 H        0.926     0.039     2.459     2.452
    91   1 H        0.926     0.030     2.583     2.513
    92   1 H        0.926     0.030     2.591     2.517
    93   1 H        0.926     0.027     2.627     2.535
    94   1 H        0.926     0.029     2.594     2.519
    95   1 H        0.926     0.030     2.593     2.518
    96   1 H        0.926     0.027     2.624     2.533
    97   1 H        0.926     0.030     2.588     2.516
    98   1 H        0.926     0.030     2.584     2.514
    99   1 H        0.926     0.039     2.464     2.455
   100   1 H        0.926     0.033     2.547     2.496
   101   1 H        0.926     0.029     2.595     2.519
   102   1 H        0.926     0.033     2.549     2.497
   103   1 H        0.926     0.043     2.406     2.426

molecular dipole:
                 x           y           z       tot (Debye)
 q only:       -0.297       0.071      -0.345
   full:       -0.466      -0.165      -0.555       1.889

 projected vibrational frequencies (cm⁻¹)
eigval :       -0.00    -0.00    -0.00     0.00     0.00     0.00
eigval :        6.49     8.12     8.48    10.96    11.68    13.38
eigval :       14.20    20.85    29.68    36.94    38.82    43.79
eigval :       46.94    57.65    59.22    68.76    69.25    72.58
eigval :       76.57    79.16    81.11   103.42   104.06   108.53
eigval :      129.52   136.89   143.05   144.16   152.56   158.47
eigval :      162.24   165.93   187.10   193.39   213.76   217.34
eigval :      252.58   256.61   270.61   271.75   273.22   279.84
eigval :      283.31   297.55   313.32   327.63   337.70   359.74
eigval :      360.08   362.74   368.13   369.74   373.10   373.74
eigval :      376.59   387.94   388.92   392.45   400.85   401.58
eigval :      423.23   424.70   435.22   437.04   475.15   477.30
eigval :      481.23   482.91   511.65   514.26   518.30   518.69
eigval :      523.19   534.63   535.07   537.08   539.27   540.84
eigval :      541.40   581.03   581.13   594.46   594.69   595.43
eigval :      596.83   605.70   607.06   612.89   613.43   639.52
eigval :      662.60   663.45   666.61   673.78   674.32   678.80
eigval :      680.05   681.20   682.36   691.39   692.66   708.05
eigval :      708.43   738.75   745.83   757.62   759.29   767.93
eigval :      768.94   775.11   778.88   779.26   779.61   780.06
eigval :      783.41   809.24   811.45   814.09   817.86   866.73
eigval :      866.95   871.83   872.77   876.85   881.56   883.11
eigval :      885.06   897.15   897.28   900.86   900.95   902.15
eigval :      902.31   903.03   903.54   908.50   912.35   919.84
eigval :      920.51   920.64   921.47   923.17   927.70   928.30
eigval :      928.86   929.77   930.32   931.57   932.04   933.85
eigval :      936.01   937.45   938.80   976.95   977.48  1008.20
eigval :     1008.79  1010.84  1011.00  1013.22  1014.29  1068.41
eigval :     1069.46  1071.85  1072.75  1082.22  1082.73  1095.04
eigval :     1095.29  1116.65  1116.87  1134.97  1135.36  1136.09
eigval :     1137.18  1143.39  1144.04  1146.63  1148.86  1150.58
eigval :     1150.98  1151.56  1152.20  1175.23  1175.68  1180.31
eigval :     1181.01  1184.01  1185.10  1193.08  1194.38  1205.85
eigval :     1206.76  1207.85  1211.41  1234.75  1235.52  1243.73
eigval :     1244.22  1264.75  1266.25  1270.39  1272.62  1273.68
eigval :     1274.98  1279.44  1281.08  1295.26  1295.34  1299.03
eigval :     1299.41  1300.79  1301.01  1307.21  1307.28  1308.21
eigval :     1308.97  1355.12  1355.19  1360.01  1360.05  1361.39
eigval :     1361.54  1379.44  1380.20  1392.16  1393.29  1402.38
eigval :     1403.04  1426.10  1426.69  1427.06  1427.27  1440.89
eigval :     1441.11  1473.89  1474.10  1484.81  1484.99  1486.85
eigval :     1487.02  1487.10  1487.71  1549.09  1549.51  1554.40
eigval :     1554.91  1561.63  1561.81  1570.21  1570.34  1572.93
eigval :     1572.95  1584.48  1585.70  1587.73  1588.06  1591.34
eigval :     1592.43  1596.82  1596.93  1612.90  1613.05  3048.17
eigval :     3049.43  3054.14  3054.31  3063.87  3064.74  3067.27
eigval :     3069.50  3069.64  3069.87  3070.20  3070.31  3071.00
eigval :     3071.16  3071.96  3071.99  3074.76  3075.03  3075.84
eigval :     3076.01  3076.42  3076.90  3077.09  3077.09  3080.48
eigval :     3081.74  3083.72  3083.82  3084.39  3084.55  3084.95
eigval :     3085.16  3087.17  3087.60  3089.74  3090.46  3090.67
eigval :     3091.14  3093.03  3093.17

   temp. (K)  partition function   enthalpy   heat capacity  entropy
                                   cal/mol     cal/K/mol   cal/K/mol   J/K/mol
 298.15  VIB  0.907E+27            30726.795    187.527    197.023
         ROT  0.266E+09              888.752      2.981     41.534
         INT  0.242E+36            31615.548    190.508    238.557
         TR   0.228E+29             1481.254      4.968     45.973
         TOT                       33096.8017   195.4762   284.5300  1190.4736

       T/K    H(0)-H(T)+PV         H(T)/Eh          T*S/Eh         G(T)/Eh
   ------------------------------------------------------------------------
    298.15    0.527431E-01    0.841458E+00    0.135189E+00    0.706269E+00
   ------------------------------------------------------------------------

         :::::::::::::::::::::::::::::::::::::::::::::::::::::
         ::                  THERMODYNAMIC                  ::
         :::::::::::::::::::::::::::::::::::::::::::::::::::::
         :: total free energy        -157.389724113837 Eh   ::
         ::.................................................::
         :: total energy             -158.095993105037 Eh   ::
         :: zero point energy           0.788715270558 Eh   ::
         :: G(RRHO) w/o ZPVE           -0.082446279359 Eh   ::
         :: G(RRHO) contrib.            0.706268991199 Eh   ::
         :::::::::::::::::::::::::::::::::::::::::::::::::::::

           -------------------------------------------------
          | TOTAL ENERGY             -158.095993105037 Eh   |
          | TOTAL ENTHALPY           -157.254534723679 Eh   |
          | TOTAL FREE ENERGY        -157.389724113837 Eh   |
          | GRADIENT NORM               0.000032970988 Eh/α |
          | HOMO-LUMO GAP               2.659321026225 eV   |
           -------------------------------------------------

 * finished run on 2025/08/30 at 08:10:52.588
