   * xtb version 6.7.1 (edcfbbe) compiled by 'albert@albert-system' on 2024-07-22

   ID    Z sym.   atoms
    1    6 C      1, 2, 4-9, 11-18, 20-26, 28-45, 47-63
    2    7 N      3, 19, 27, 46
    3   14 Si     10
    4    1 H      64-103

          program call               : xtb data2507/toluene/SiCz2Py2/SiCz2Py2_toluene_T1_crest.xyz --gfn 2 --uhf 2 --gbsa toluene --ohess vtight --parallel 40 --molden --ceasefiles --namespace data2507/toluene/SiCz2Py2/SiCz2Py2_toluene_T1_finalOpt
      * Solvation model:               GBSA
        Solvent                        toluene
        Solvent mass                       9.2140E+01 g/mol
          :  Hamiltonian                  GFN2-xTB          :
 * total energy  :  -157.9922200 Eh     change       -0.1244436E-07 Eh
 * total energy  :  -157.9922840 Eh     change       -0.6396711E-04 Eh
 * total energy  :  -157.9923148 Eh     change       -0.3077633E-04 Eh
 * total energy  :  -157.9923234 Eh     change       -0.8629437E-05 Eh
 * total energy  :  -157.9923292 Eh     change       -0.5821659E-05 Eh
 * total energy  :  -157.9923345 Eh     change       -0.5266385E-05 Eh
 * total energy  :  -157.9923397 Eh     change       -0.5220771E-05 Eh
 * total energy  :  -157.9923453 Eh     change       -0.5536407E-05 Eh
 * total energy  :  -157.9923503 Eh     change       -0.4992173E-05 Eh
 * total energy  :  -157.9923559 Eh     change       -0.5655406E-05 Eh
 * total energy  :  -157.9924671 Eh     change       -0.2142891E-06 Eh
 * total energy  :  -157.9924674 Eh     change       -0.3128569E-06 Eh
 * total energy  :  -157.9924677 Eh     change       -0.2857973E-06 Eh
 * total energy  :  -157.9924680 Eh     change       -0.2824110E-06 Eh
 * total energy  :  -157.9924683 Eh     change       -0.3524620E-06 Eh
 * total energy  :  -157.9924687 Eh     change       -0.4218095E-06 Eh
 * total energy  :  -157.9924691 Eh     change       -0.3314403E-06 Eh
 * total energy  :  -157.9924693 Eh     change       -0.2278720E-06 Eh
 * total energy  :  -157.9924693 Eh     change       -0.3898694E-07 Eh
   *** GEOMETRY OPTIMIZATION CONVERGED AFTER 55 ITERATIONS ***

 final structure:
================
103
 xtb: 6.7.1 (edcfbbe)
C           -0.27113843500978        5.56795074500480        7.01417032512355
C            0.91848514479894        6.30537513927460        7.11789623165664
N            1.82375049332088        6.24541961656987        6.14541073420881
C            1.67617113590172        5.46856082631546        5.11923577684028
C            0.55564102654322        4.59578570047677        4.93494136344591
C            0.42053123726355        3.78237716299225        3.78644418857016
C            1.53736941477986        3.42666653851985        2.96998822684551
C            1.40932192817344        2.58389019325135        1.90710133905465
C            0.16094346809476        2.04131577118095        1.52475585479786
Si           0.02166529612618        0.96981678988604       -0.00317505380812
C           -0.02500356152965        1.98140784805853       -1.60804585196196
C            0.60515830483252        3.22176640190059       -1.69323354017137
C            0.56227799614204        3.97229020911232       -2.84971302605844
C           -0.11838699433155        3.50632424700891       -3.97707244588461
C           -0.16430806615168        4.29476879466212       -5.20883823351528
C           -0.10954561634753        3.69891746636471       -6.47310265602970
C           -0.15663633073125        4.49285041168946       -7.60372245782535
C           -0.25390615605224        5.86804906197317       -7.44493391281152
N           -0.31297728504586        6.44875418510432       -6.25502736653877
C           -0.27084769378018        5.68927244530911       -5.17909318134848
C           -0.75751108612075        2.26742267312936       -3.89615163311357
C           -0.71315827182885        1.52747348782566       -2.73277773623160
C           -1.56333278024477       -0.06978798844984        0.07594906983487
C           -1.54081478992095       -1.42942870521572        0.36969138109727
C           -2.70503624528518       -2.16974191897906        0.44068236262085
C           -3.93460021239377       -1.55247293990014        0.22642768102229
N           -5.12271922430746       -2.29465862065055        0.30683940091420
C           -6.12237067385062       -2.32566555222832       -0.64360107227452
C           -6.18347529706558       -1.70326960516819       -1.88370380693069
C           -7.30347198391465       -1.92614562761329       -2.66283204338237
C           -8.33719790185098       -2.75394496094643       -2.23038340758912
C           -8.27169442190212       -3.39459999607152       -1.00663280482734
C           -7.15737924017950       -3.18615543627368       -0.20647829999838
C           -6.75305854488656       -3.68908836068864        1.07892459226823
C           -7.34186098105733       -4.54486247946552        1.99896797099274
C           -6.67242586798471       -4.80921208721605        3.17979939531274
C           -5.43998839675266       -4.21986560672662        3.45334478584445
C           -4.83386528089890       -3.36383527701162        2.55287062916926
C           -5.48962504201192       -3.11443841303437        1.35424922222756
C           -3.97579618282805       -0.19196562715561       -0.06799861689596
C           -2.80081217074691        0.52938720834672       -0.14516176011798
C            1.52927033281290       -0.18707068784573       -0.07514841488782
C            1.99402067264739       -0.80907255448011        1.08108136486482
C            3.09319205427902       -1.64450202956863        1.05808413492874
C            3.76755981592637       -1.86933907731050       -0.13957535587566
N            4.89069951514357       -2.70972523949984       -0.17159511895126
C            5.08702091057342       -3.76128693058618       -1.04314720500566
C            4.24406735906496       -4.26384850431568       -2.02578398137915
C            4.67726826185934       -5.36011637496569       -2.74807030063218
C            5.91329669579670       -5.95266346250490       -2.49906279366480
C            6.74701106750717       -5.47083189026030       -1.50650424420269
C            6.33394108050698       -4.37100566241763       -0.76811665253481
C            6.91418339439809       -3.63633603588754        0.32390744486295
C            8.11119320025383       -3.74212387767296        1.01771230438757
C            8.37241171255865       -2.83597729468409        2.02916441319619
C            7.46393510138627       -1.82656610760555        2.34007855840611
C            6.26554298640325       -1.70042773506068        1.66254509195860
C            5.98672366426204       -2.62256552604110        0.66219229504781
C            3.32104148755959       -1.24982330898390       -1.30376115088262
C            2.21511203214463       -0.42274415770075       -1.26249245669484
C           -0.94766969447251        2.38825292842735        2.32523785087174
C           -0.83723694935636        3.22558759681274        3.39529361415985
C           -0.43812148551152        4.71279033542490        5.96181956312000
H           -1.00805621319404        5.63968227169418        7.80023480921916
H            1.15355178776547        6.91998928501254        7.97186439499171
H            2.41912245330078        5.57407182495690        4.34107279957332
H            2.51397939002320        3.81620291601379        3.21844322823789
H            2.28416558968407        2.32457869219598        1.32568456488935
H            1.13901069458648        3.60101744648079       -0.83365984374635
H            1.07928562386993        4.92042465724288       -2.89453315145518
H           -0.00996137307994        2.62654555447619       -6.56164779669182
H           -0.11098765575970        4.05826934970976       -8.59072769269279
H           -0.28701864190945        6.53672623065693       -8.29478579745660
H           -0.34438427368516        6.21725016606174       -4.23655325669213
H           -1.31104479165204        1.89612255943393       -4.74736108442185
H           -1.21966174698440        0.57318839261946       -2.69180098806530
H           -0.59245255328973       -1.91908832019422        0.53439964891425
H           -2.67014826570163       -3.22981326090092        0.64565052360292
H           -5.38086519953896       -1.07225411092427       -2.23397285168925
H           -7.37693707065038       -1.45054258711213       -3.62986136624479
H           -9.19737460061286       -2.90123497827983       -2.86661258842529
H           -9.06712100052287       -4.04720360067399       -0.67975911018949
H           -8.30447981311529       -4.98962714488940        1.79645102790118
H           -7.11269790728617       -5.47478485344240        3.90749873467469
H           -4.94888762844254       -4.43307151892934        4.39144413906022
H           -3.88740032653234       -2.89749148681048        2.78047156396674
H           -4.92942019485622        0.29317488957114       -0.21777589243509
H           -2.84244029996971        1.58304828697507       -0.38071022983122
H            1.48003810778684       -0.63519209435758        2.01545748530288
H            3.42767784439380       -2.13783079748740        1.95907515945078
H            3.27795886857753       -3.82118037911584       -2.21429685969038
H            4.04184251579148       -5.76837924301905       -3.52019567844945
H            6.21748219480579       -6.80661821164395       -3.08607003218150
H            7.69770345291428       -5.94087187387114       -1.30478561473294
H            8.82345159633071       -4.51387709266017        0.76761472744240
H            9.29732377466351       -2.90286849808444        2.58267512481027
H            7.70252650862246       -1.12393095521068        3.12496455528903
H            5.57594083486240       -0.90444440080075        1.89899731636923
H            3.85648699961529       -1.40490934450191       -2.22915621104755
H            1.88211301275895        0.06054074775689       -2.16939644651561
H           -1.91592895222674        1.97780458179635        2.07388182444627
H           -1.72122678096610        3.47630281926486        3.96237310397082
H           -1.30901841409026        4.07654888668223        5.92751065130036

          :  Hamiltonian                  GFN2-xTB          :
         :: gradient norm              0.000178076637 Eh/a0 ::
         :: HOMO-LUMO gap              0.176622169118 eV    ::
         :: SCC energy              -160.948013042824 Eh    ::
         :: -> dispersion             -0.144049107239 Eh    ::
         :: -> Gsolv                  -0.069193327782 Eh    ::
         :: repulsion energy           2.955543704255 Eh    ::

    * Orbital Energies and Occupations

         #    Occupation            Energy/Eh            Energy/eV
      -------------------------------------------------------------
         1        2.0000           -0.7506851             -20.4272
       ...           ...                  ...                  ...
       137        2.0000           -0.3966549             -10.7935
       138        2.0000           -0.3953553             -10.7582
       139        2.0000           -0.3896213             -10.6021
       140        2.0000           -0.3883611             -10.5678
       141        2.0000           -0.3849090             -10.4739
       142        2.0000           -0.3848799             -10.4731
       143        2.0000           -0.3845794             -10.4649
       144        1.9999           -0.3749488             -10.2029
       145        1.9654           -0.3691915             -10.0462
       146        1.8895           -0.3680098             -10.0141
       147        1.8663           -0.3678042             -10.0085
       148        1.2788           -0.3651258              -9.9356
       149        0.9682           -0.2660221              -7.2388 (HOMO)
       150        0.0317           -0.2595288              -7.0621 (LUMO)
       151        0.0000           -0.2526448              -6.8748
       152        0.0000           -0.2519186              -6.8551
       153                         -0.2451505              -6.6709
       154                         -0.2447076              -6.6588
       155                         -0.2415068              -6.5717
       156                         -0.2355156              -6.4087
       157                         -0.2304325              -6.2704
       158                         -0.2299441              -6.2571
       159                         -0.2285127              -6.2181
       160                         -0.2284391              -6.2161
       ...                                ...                  ...
       297                          0.7383279              20.0909
      -------------------------------------------------------------
                  HL-Gap            0.0064933 Eh            0.1767 eV

     #   Z          covCN         q      C6AA      α(0)
     1   6 C        2.906    -0.039    28.966     8.825
     2   6 C        2.892     0.022    27.523     8.601
     3   7 N        1.836    -0.187    25.861     7.536
     4   6 C        2.895     0.049    26.905     8.504
     5   6 C        2.964    -0.015    28.393     8.740
     6   6 C        2.966    -0.006    28.161     8.704
     7   6 C        2.914    -0.044    29.092     8.845
     8   6 C        2.928    -0.036    28.887     8.814
     9   6 C        2.861    -0.106    30.666     9.077
    10  14 Si       3.608     0.479    98.501    19.055
    11   6 C        2.861    -0.094    30.367     9.033
    12   6 C        2.934    -0.033    28.829     8.806
    13   6 C        2.921    -0.037    28.920     8.819
    14   6 C        2.975     0.002    27.967     8.675
    15   6 C        2.971    -0.002    28.074     8.691
    16   6 C        2.933    -0.020    28.514     8.757
    17   6 C        2.911    -0.041    29.008     8.832
    18   6 C        2.910     0.052    26.825     8.493
    19   7 N        1.835    -0.237    27.056     7.708
    20   6 C        2.914     0.055    26.758     8.482
    21   6 C        2.921    -0.036    28.908     8.817
    22   6 C        2.933    -0.034    28.843     8.808
    23   6 C        2.861    -0.093    30.338     9.028
    24   6 C        2.934    -0.032    28.786     8.799
    25   6 C        2.919    -0.043    29.060     8.840
    26   6 C        2.914     0.061    26.629     8.462
    27   7 N        2.802    -0.032    21.863     6.945
    28   6 C        3.074     0.048    26.853     8.496
    29   6 C        2.909    -0.048    29.182     8.858
    30   6 C        2.923    -0.033    28.827     8.805
    31   6 C        2.920    -0.038    28.950     8.823
    32   6 C        2.912    -0.032    28.801     8.800
    33   6 C        3.066    -0.015    28.329     8.728
    34   6 C        3.066    -0.015    28.329     8.728
    35   6 C        2.912    -0.032    28.801     8.800
    36   6 C        2.920    -0.038    28.948     8.823
    37   6 C        2.923    -0.033    28.824     8.804
    38   6 C        2.909    -0.048    29.182     8.858
    39   6 C        3.075     0.048    26.852     8.496
    40   6 C        2.919    -0.042    29.056     8.839
    41   6 C        2.939    -0.030    28.754     8.794
    42   6 C        2.861    -0.093    30.329     9.027
    43   6 C        2.937    -0.030    28.745     8.793
    44   6 C        2.919    -0.042    29.053     8.839
    45   6 C        2.914     0.062    26.613     8.459
    46   7 N        2.802    -0.032    21.856     6.943
    47   6 C        3.074     0.048    26.854     8.496
    48   6 C        2.909    -0.048    29.183     8.858
    49   6 C        2.923    -0.033    28.825     8.804
    50   6 C        2.920    -0.038    28.948     8.823
    51   6 C        2.912    -0.032    28.799     8.800
    52   6 C        3.066    -0.015    28.325     8.727
    53   6 C        3.066    -0.015    28.326     8.727
    54   6 C        2.912    -0.032    28.799     8.800
    55   6 C        2.920    -0.038    28.943     8.822
    56   6 C        2.923    -0.033    28.820     8.804
    57   6 C        2.909    -0.047    29.176     8.857
    58   6 C        3.074     0.048    26.852     8.496
    59   6 C        2.919    -0.042    29.045     8.838
    60   6 C        2.934    -0.031    28.765     8.796
    61   6 C        2.923    -0.037    28.911     8.818
    62   6 C        2.914    -0.043    29.065     8.841
    63   6 C        2.925    -0.035    28.872     8.812
    64   1 H        0.926     0.034     2.523     2.484
    65   1 H        0.926     0.032     2.556     2.500
    66   1 H        0.926     0.041     2.437     2.441
    67   1 H        0.926     0.019     2.747     2.592
    68   1 H        0.925     0.011     2.881     2.654
    69   1 H        0.926     0.023     2.695     2.567
    70   1 H        0.926     0.025     2.652     2.547
    71   1 H        0.926     0.040     2.444     2.445
    72   1 H        0.926     0.039     2.460     2.453
    73   1 H        0.925     0.034     2.531     2.488
    74   1 H        0.925     0.035     2.520     2.482
    75   1 H        0.926     0.028     2.611     2.527
    76   1 H        0.926     0.024     2.679     2.559
    77   1 H        0.926     0.034     2.533     2.489
    78   1 H        0.926     0.041     2.434     2.440
    79   1 H        0.926     0.035     2.512     2.478
    80   1 H        0.926     0.035     2.517     2.481
    81   1 H        0.926     0.034     2.534     2.489
    82   1 H        0.926     0.036     2.501     2.473
    83   1 H        0.926     0.036     2.501     2.473
    84   1 H        0.926     0.034     2.532     2.488
    85   1 H        0.926     0.035     2.511     2.478
    86   1 H        0.926     0.036     2.501     2.473
    87   1 H        0.926     0.040     2.455     2.450
    88   1 H        0.926     0.030     2.586     2.515
    89   1 H        0.926     0.034     2.531     2.488
    90   1 H        0.926     0.041     2.435     2.440
    91   1 H        0.926     0.036     2.497     2.471
    92   1 H        0.926     0.036     2.508     2.477
    93   1 H        0.926     0.034     2.531     2.488
    94   1 H        0.926     0.036     2.501     2.473
    95   1 H        0.926     0.036     2.497     2.471
    96   1 H        0.926     0.034     2.530     2.488
    97   1 H        0.926     0.035     2.514     2.480
    98   1 H        0.926     0.035     2.509     2.477
    99   1 H        0.926     0.040     2.444     2.445
   100   1 H        0.926     0.033     2.545     2.495
   101   1 H        0.925     0.017     2.777     2.606
   102   1 H        0.926     0.020     2.731     2.584
   103   1 H        0.926     0.036     2.503     2.474

molecular dipole:
                 x           y           z       tot (Debye)
 q only:       -0.306      -2.929      -0.595
   full:       -0.459      -3.276      -0.684       8.586

 projected vibrational frequencies (cm⁻¹)
eigval :       -0.00    -0.00     0.00     0.00     0.00     0.00
eigval :       -2.81     6.43     8.69     9.02    11.73    12.76
eigval :       13.59    16.44    30.45    37.28    40.02    43.82
eigval :       47.36    56.44    60.90    62.74    71.95    73.39
eigval :       80.66    81.99    90.83   102.03   103.44   109.28
eigval :      128.60   132.71   139.27   142.36   143.57   153.34
eigval :      163.66   171.26   188.80   190.33   204.67   218.16
eigval :      240.91   253.34   256.85   269.25   270.73   276.04
eigval :      283.74   295.04   317.53   321.13   337.43   345.80
eigval :      359.34   361.46   366.33   371.17   372.45   373.95
eigval :      386.03   386.48   387.19   396.11   400.95   402.45
eigval :      419.43   422.04   422.80   434.27   435.99   447.77
eigval :      467.44   479.46   480.68   498.47   504.57   516.10
eigval :      516.39   518.34   529.57   537.52   537.77   538.16
eigval :      538.72   564.95   577.11   580.36   580.74   590.14
eigval :      593.18   593.71   603.10   607.88   612.56   613.15
eigval :      622.25   632.96   655.56   657.75   661.09   669.59
eigval :      673.33   673.85   678.41   679.90   685.81   687.05
eigval :      708.05   708.16   728.76   736.89   741.98   756.87
eigval :      758.03   766.52   767.68   768.01   770.30   772.24
eigval :      777.77   778.08   784.51   794.89   805.35   807.05
eigval :      808.08   809.06   866.04   866.47   869.62   871.17
eigval :      871.39   878.29   880.50   881.37   895.87   896.77
eigval :      896.87   897.79   898.18   902.01   902.41   902.97
eigval :      903.34   911.94   917.41   918.31   919.32   919.67
eigval :      920.23   921.12   921.77   926.63   927.56   928.39
eigval :      930.17   930.56   934.64   936.51   955.10   965.40
eigval :      992.19  1007.53  1010.45  1010.59  1012.17  1013.13
eigval :     1066.00  1067.65  1068.11  1070.56  1071.29  1075.89
eigval :     1087.96  1094.45  1114.88  1115.10  1122.87  1131.85
eigval :     1134.76  1137.62  1138.99  1141.04  1143.23  1145.08
eigval :     1145.43  1146.37  1146.55  1159.50  1173.47  1174.21
eigval :     1177.57  1178.76  1182.70  1183.42  1185.57  1199.31
eigval :     1204.79  1207.94  1211.74  1226.71  1231.61  1232.29
eigval :     1240.00  1241.54  1246.30  1261.44  1264.46  1269.12
eigval :     1271.83  1274.69  1276.86  1286.87  1291.74  1292.24
eigval :     1293.45  1293.90  1307.84  1308.75  1309.55  1311.29
eigval :     1315.16  1323.65  1347.65  1347.83  1350.66  1352.63
eigval :     1358.59  1359.47  1373.49  1378.16  1380.41  1391.11
eigval :     1392.30  1400.40  1406.63  1416.19  1416.57  1421.31
eigval :     1422.63  1434.38  1457.44  1462.55  1464.65  1464.67
eigval :     1477.49  1478.36  1480.14  1482.38  1482.62  1498.76
eigval :     1506.92  1525.02  1532.68  1549.06  1550.90  1566.28
eigval :     1567.04  1567.25  1574.52  1577.66  1582.02  1582.80
eigval :     1584.48  1584.50  1585.78  1601.66  1605.56  3047.19
eigval :     3048.08  3054.88  3056.22  3057.34  3058.86  3064.45
eigval :     3069.85  3070.45  3071.09  3071.35  3071.78  3072.44
eigval :     3073.92  3075.63  3075.73  3076.05  3076.20  3077.11
eigval :     3077.31  3078.46  3081.35  3081.39  3082.14  3082.27
eigval :     3084.15  3084.59  3085.09  3085.90  3086.20  3087.99
eigval :     3088.83  3089.27  3089.99  3090.31  3091.95  3094.88
eigval :     3095.02  3095.68  3096.41

   temp. (K)  partition function   enthalpy   heat capacity  entropy
                                   cal/mol     cal/K/mol   cal/K/mol   J/K/mol
 298.15  VIB  0.552E+28            31142.549    190.523    200.576
         ROT  0.267E+09              888.752      2.981     41.537
         INT  0.147E+37            32031.302    193.503    242.113
         TR   0.228E+29             1481.254      4.968     45.973
         TOT                       33512.5555   198.4715   288.0860  1205.3517

       T/K    H(0)-H(T)+PV         H(T)/Eh          T*S/Eh         G(T)/Eh
   ------------------------------------------------------------------------
    298.15    0.534057E-01    0.836184E+00    0.136879E+00    0.699305E+00
   ------------------------------------------------------------------------

         :::::::::::::::::::::::::::::::::::::::::::::::::::::
         ::                  THERMODYNAMIC                  ::
         :::::::::::::::::::::::::::::::::::::::::::::::::::::
         :: total free energy        -157.293164279263 Eh   ::
         ::.................................................::
         :: total energy             -157.992469350839 Eh   ::
         :: zero point energy           0.782778352643 Eh   ::
         :: G(RRHO) w/o ZPVE           -0.083473281067 Eh   ::
         :: G(RRHO) contrib.            0.699305071576 Eh   ::
         :::::::::::::::::::::::::::::::::::::::::::::::::::::

           -------------------------------------------------
          | TOTAL ENERGY             -157.992469350839 Eh   |
          | TOTAL ENTHALPY           -157.156285341572 Eh   |
          | TOTAL FREE ENERGY        -157.293164279263 Eh   |
          | GRADIENT NORM               0.000183333304 Eh/α |
          | HOMO-LUMO GAP               0.176691815704 eV   |
           -------------------------------------------------

 * finished run on 2025/08/30 at 08:36:48.835
