   * xtb version 6.7.1 (edcfbbe) compiled by 'albert@albert-system' on 2024-07-22

   ID    Z sym.   atoms
    1    8 O      1, 10, 11
    2    6 C      2-8, 12-19, 21-42
    3   16 S      9
    4   14 Si     20
    5    1 H      43-68

          program call               : xtb data2507/gas/TXO-P-Si/TXO-P-Si_gas_S0_finalOpt.xtbopt.xyz --gfn 2 --spinpol --tblite --uhf 2 --ohess vtight --parallel 40 --molden --ceasefiles --namespace data2507/gas/TXO-P-Si/TXO-P-Si_gas_T1_preOpt
 * total energy  :  -109.4759014 Eh     change       -0.7918885E-08 Eh
 * total energy  :  -109.4794510 Eh     change       -0.3549561E-02 Eh
 * total energy  :  -109.4806730 Eh     change       -0.1221995E-02 Eh
 * total energy  :  -109.4809399 Eh     change       -0.2669353E-03 Eh
 * total energy  :  -109.4812150 Eh     change       -0.2750957E-03 Eh
 * total energy  :  -109.4813165 Eh     change       -0.1015331E-03 Eh
 * total energy  :  -109.4813736 Eh     change       -0.5710959E-04 Eh
 * total energy  :  -109.4813986 Eh     change       -0.2499578E-04 Eh
 * total energy  :  -109.4814132 Eh     change       -0.1453210E-04 Eh
 * total energy  :  -109.4814316 Eh     change       -0.1838829E-04 Eh
 * total energy  :  -109.4815364 Eh     change       -0.4545133E-06 Eh
 * total energy  :  -109.4815369 Eh     change       -0.5153671E-06 Eh
 * total energy  :  -109.4815376 Eh     change       -0.6966950E-06 Eh
 * total energy  :  -109.4815382 Eh     change       -0.5768663E-06 Eh
 * total energy  :  -109.4815386 Eh     change       -0.4759422E-06 Eh
 * total energy  :  -109.4815391 Eh     change       -0.4334675E-06 Eh
 * total energy  :  -109.4815393 Eh     change       -0.2486852E-06 Eh
 * total energy  :  -109.4815396 Eh     change       -0.2585024E-06 Eh
 * total energy  :  -109.4815397 Eh     change       -0.9252290E-07 Eh
   *** GEOMETRY OPTIMIZATION CONVERGED AFTER 38 ITERATIONS ***

 final structure:
================
68
 xtb: 6.7.1 (edcfbbe)
O            4.41908680375566        2.48106199083336       -0.53823590422704
C            4.97497010741039        1.38366888582858       -0.26878573495854
C            6.39715752671936        1.32580809286737        0.01085112954361
C            7.07803335648828        2.55878574345143        0.13922066689166
C            8.40393186187023        2.59178701679788        0.48951864177173
C            9.11544239110751        1.41633686267786        0.72296729664304
C            8.47607489970466        0.19751080793945        0.57086117876492
C            7.14452009442962        0.16891613687476        0.21173486950729
S            6.43665928974267       -1.42965789783829       -0.15480746658040
O            6.67954994213506       -1.71762651211833       -1.54390265242157
O            6.88236425792349       -2.40437153923559        0.80305623018160
C            4.69516052978976       -1.11204021461542        0.05846284930869
C            3.87543938112864       -2.19731582795279        0.29410691354924
C            2.50361292536209       -2.03224651340537        0.30482710034404
C            1.95196724946040       -0.76563363208542        0.05923635476563
C            0.49495241639058       -0.56701300980639        0.05704030951820
C           -0.10846267177258        0.24758156426591       -0.89987532940901
C           -1.47748125357145        0.42376085604323       -0.90435869204567
C           -2.28858222803989       -0.19144842661764        0.04617204337437
Si          -4.16491579353959        0.07049785999671        0.02075839427946
C           -4.95195697338841       -1.07329552972004       -1.27251574658241
C           -6.30914304995128       -1.37378369996591       -1.20541095063780
C           -6.90558071215890       -2.18411424619425       -2.15441914608007
C           -6.14937961544339       -2.71053634975406       -3.18844693056578
C           -4.79710102624468       -2.42384348403349       -3.26593570759740
C           -4.20533221872551       -1.61174058452367       -2.31466591096237
C           -4.89872296528580       -0.35325183104538        1.71655937114608
C           -5.20319561804027        0.64104960225684        2.64047047055131
C           -5.71712571689103        0.32246084667507        3.88485902424531
C           -5.93617623771448       -1.00142214832934        4.22614240785616
C           -5.64140023914610       -2.00338737760868        3.31644196030815
C           -5.12872218174635       -1.67919275712862        2.07360356938571
C           -4.51325437094925        1.88112185940969       -0.41306564605136
C           -5.57910824448710        2.23981847715585       -1.23222519327897
C           -5.83754832626949        3.56718277881813       -1.52387969267081
C           -5.03046306737160        4.56211669968043       -0.99832843132642
C           -3.96350118728291        4.22227910964975       -0.18307434419011
C           -3.70932049688116        2.89380541193481        0.10444356207658
C           -1.67823114280067       -1.00010912083452        1.00027184439902
C           -0.31007624939735       -1.18755468063138        1.01007057192633
C            2.78572762532680        0.31243834372949       -0.16079750450817
C            4.18898540658995        0.17130510437923       -0.13506525013345
H            6.50746187352394        3.45884587272944       -0.03578349418276
H            8.89968311966836        3.54622091920740        0.59020489439162
H           10.15586938752090        1.44924349299865        1.00479661392779
H            8.98946065394856       -0.73971716102102        0.71686339294160
H            4.33340084907956       -3.16189539100811        0.44660287370021
H            1.85970578420528       -2.88283690596535        0.46265593673058
H            0.50017291363698        0.72550429178579       -1.65307357101585
H           -1.92934815063110        1.05776913726929       -1.65414324719724
H           -6.90194918247870       -0.97091311979599       -0.39605851064097
H           -7.96088470322632       -2.40656852583688       -2.08743876695964
H           -6.61276973552531       -3.34476021255500       -3.93006144565632
H           -4.20203508341762       -2.83439721304012       -4.06889808102467
H           -3.14864831163491       -1.39511078311979       -2.37843924824512
H           -5.03861253997277        1.67630412686862        2.37784503007353
H           -5.94839093266144        1.10797356357374        4.58983326674177
H           -6.33836075067072       -1.25205261587459        5.19692416871118
H           -5.81303000498208       -3.03808384272151        3.57654935661672
H           -4.90729632822531       -2.46455139311785        1.36416223016867
H           -6.20936943653323        1.46740590504914       -1.64954459147461
H           -6.66906665896707        3.82701328108348       -2.16309180823705
H           -5.23029600157198        5.59916169052214       -1.22532187143340
H           -3.32876211623807        4.99432701248024        0.22748858282599
H           -2.87182830093443        2.63348309248179        0.73674998586164
H           -2.28620289602970       -1.48230156174775        1.75219525673716
H            0.14390701803798       -1.80240843048913        1.77341364612997
H            2.39328887146552        1.30628092337723       -0.31909369694944

 projected vibrational frequencies (cm⁻¹)
eigval :       -0.00    -0.00     0.00     0.00     0.00     0.00
eigval :        8.80    11.48    18.59    22.00    24.62    27.00
eigval :       29.50    33.62    38.71    40.54    42.87    50.35
eigval :       60.68    88.57    94.44   125.88   129.94   138.04
eigval :      148.84   155.53   157.23   164.75   189.05   201.60
eigval :      206.43   211.12   219.41   227.40   259.05   262.64
eigval :      274.83   294.13   324.25   336.40   357.56   358.37
eigval :      358.62   360.63   365.01   378.82   388.15   405.76
eigval :      412.20   418.89   423.31   434.75   458.83   469.48
eigval :      470.25   491.59   493.74   500.54   519.58   531.26
eigval :      573.74   586.05   586.97   587.84   588.20   592.30
eigval :      604.10   641.98   644.39   654.97   658.26   659.08
eigval :      659.90   667.30   683.51   695.11   697.39   700.66
eigval :      730.14   732.87   735.16   735.53   764.99   792.85
eigval :      810.05   817.07   859.05   863.78   874.03   876.34
eigval :      878.57   880.27   899.35   899.69   904.96   905.09
eigval :      906.35   908.23   919.89   923.25   930.73   930.99
eigval :      931.71   932.62   933.57   934.32   934.67   965.90
eigval :      968.31   971.63   987.93  1003.44  1039.38  1070.29
eigval :     1075.52  1083.39  1084.16  1084.62  1100.04  1115.67
eigval :     1119.88  1121.15  1124.03  1126.69  1131.12  1138.18
eigval :     1140.95  1142.04  1147.32  1159.60  1163.89  1175.92
eigval :     1181.35  1181.93  1182.11  1205.17  1205.96  1206.38
eigval :     1209.65  1213.67  1216.60  1231.24  1275.20  1278.67
eigval :     1286.10  1286.78  1289.28  1306.17  1310.46  1311.24
eigval :     1311.45  1322.09  1330.23  1352.00  1384.29  1389.42
eigval :     1410.67  1417.54  1418.14  1418.83  1420.61  1455.82
eigval :     1457.22  1458.41  1462.33  1476.96  1497.95  1508.11
eigval :     1533.81  1545.92  1562.39  1567.84  1571.11  1571.80
eigval :     1574.31  1575.65  1576.83  1588.10  3062.58  3063.76
eigval :     3064.63  3067.76  3068.47  3069.09  3069.30  3072.11
eigval :     3073.90  3074.26  3074.62  3078.81  3080.12  3080.38
eigval :     3080.99  3084.58  3086.65  3088.68  3088.94  3089.18
eigval :     3089.44  3090.82  3097.39  3098.69  3107.16  3108.16

   temp. (K)  partition function   enthalpy   heat capacity  entropy
                                   cal/mol     cal/K/mol   cal/K/mol   J/K/mol
 298.15  VIB  0.392E+19            21639.730    127.830    136.950
         ROT  0.813E+08              888.752      2.981     39.177
         INT  0.318E+27            22528.483    130.811    176.127
         TR   0.135E+29             1481.254      4.968     44.931
         TOT                       24009.7366   135.7788   221.0583   924.9079

       T/K    H(0)-H(T)+PV         H(T)/Eh          T*S/Eh         G(T)/Eh
   ------------------------------------------------------------------------
    298.15    0.382620E-01    0.541128E+00    0.105032E+00    0.436096E+00
   ------------------------------------------------------------------------

         :::::::::::::::::::::::::::::::::::::::::::::::::::::
         ::                  THERMODYNAMIC                  ::
         :::::::::::::::::::::::::::::::::::::::::::::::::::::
         :: total free energy        -109.045443272074 Eh   ::
         ::.................................................::
         :: total energy             -109.481539691578 Eh   ::
         :: zero point energy           0.502866396128 Eh   ::
         :: G(RRHO) w/o ZPVE           -0.066769976624 Eh   ::
         :: G(RRHO) contrib.            0.436096419504 Eh   ::
         :::::::::::::::::::::::::::::::::::::::::::::::::::::

           -------------------------------------------------
          | TOTAL ENERGY             -109.481539691578 Eh   |
          | TOTAL ENTHALPY           -108.940411344744 Eh   |
          | TOTAL FREE ENERGY        -109.045443272074 Eh   |
          | GRADIENT NORM               0.000100372206 Eh/α |
           -------------------------------------------------

 * finished run on 2025/07/18 at 11:43:41.598
