   * xtb version 6.7.1 (edcfbbe) compiled by 'albert@albert-system' on 2024-07-22

   ID    Z sym.   atoms
    1    8 O      1, 10, 11
    2    6 C      2-8, 12-19, 21-42
    3   16 S      9
    4   14 Si     20
    5    1 H      43-68

          program call               : xtb data2507/gas/TXO-P-Si/TXO-P-Si.xyz --gfn 2 --ohess vtight --parallel 40 --molden --ceasefiles --namespace data2507/gas/TXO-P-Si/TXO-P-Si_gas_S0_preOpt
          :  Hamiltonian                  GFN2-xTB          :
 * total energy  :  -109.5420076 Eh     change       -0.6836984E-09 Eh
 * total energy  :  -109.5534014 Eh     change       -0.1139384E-01 Eh
 * total energy  :  -109.5559675 Eh     change       -0.2566078E-02 Eh
 * total energy  :  -109.5565227 Eh     change       -0.5551927E-03 Eh
 * total energy  :  -109.5567915 Eh     change       -0.2687973E-03 Eh
 * total energy  :  -109.5568889 Eh     change       -0.9743852E-04 Eh
 * total energy  :  -109.5569628 Eh     change       -0.7387373E-04 Eh
 * total energy  :  -109.5570125 Eh     change       -0.4970025E-04 Eh
 * total energy  :  -109.5570697 Eh     change       -0.5722810E-04 Eh
 * total energy  :  -109.5571401 Eh     change       -0.7036170E-04 Eh
 * total energy  :  -109.5580152 Eh     change       -0.1299595E-05 Eh
 * total energy  :  -109.5580166 Eh     change       -0.1409262E-05 Eh
 * total energy  :  -109.5580182 Eh     change       -0.1547052E-05 Eh
 * total energy  :  -109.5580198 Eh     change       -0.1568570E-05 Eh
 * total energy  :  -109.5580214 Eh     change       -0.1589935E-05 Eh
 * total energy  :  -109.5580230 Eh     change       -0.1620156E-05 Eh
 * total energy  :  -109.5580241 Eh     change       -0.1142291E-05 Eh
 * total energy  :  -109.5580252 Eh     change       -0.1111723E-05 Eh
 * total energy  :  -109.5580252 Eh     change       -0.2016108E-07 Eh
   *** GEOMETRY OPTIMIZATION CONVERGED AFTER 68 ITERATIONS ***

 final structure:
================
68
 xtb: 6.7.1 (edcfbbe)
O            5.39623037007296        1.93852437126451       -1.19764591017316
C            5.81552848192319        0.92116412359431       -0.68394112654575
C            7.22300131269218        0.82788334470032       -0.21744393457877
C            7.91011501564537        2.02041277675629        0.02273044606815
C            9.21322779742530        2.00139544938584        0.48259005616430
C            9.85628074034654        0.79323979309993        0.70894993928875
C            9.19079769268542       -0.39699102808099        0.46019802079233
C            7.88785208528606       -0.37183645564632        0.00560935804039
S            7.09002029673211       -1.91824427360655       -0.41250051643760
O            7.34021555541359       -2.18229493734776       -1.80425289035356
O            7.47005829277115       -2.92938917011707        0.53567125988956
C            5.35750050896756       -1.53087917740068       -0.21947110570896
C            4.46604488767074       -2.55268864974857        0.04009548746645
C            3.11016672030361       -2.28736292376751        0.10854137746051
C            2.63058007874703       -0.99284048947557       -0.10152210314639
C            1.18962227493168       -0.71003853695179       -0.05501553502410
C            0.61028516366679        0.17294916020181       -0.96470640319999
C           -0.74688776473843        0.42321157405146       -0.92847050743210
C           -1.57116629517653       -0.18797881567470        0.01279133033165
Si          -3.43787088729434        0.14551235146968        0.01613162433048
C           -4.26726956805939       -0.88022358468631       -1.34332840810536
C           -5.63596710422264       -1.13196186123649       -1.29388844747829
C           -6.26435319351835       -1.86091361089364       -2.28682922391527
C           -5.53024248349909       -2.35514821951775       -3.35227424779249
C           -4.16756662087099       -2.11795666586571       -3.41515244841136
C           -3.54515094574206       -1.38707412014070       -2.41905296434961
C           -4.17174975621139       -0.35545101587844        1.68943143095286
C           -4.45000144039629        0.58834683613713        2.67290854036900
C           -4.97294754029719        0.21053017022187        3.89669980940545
C           -5.22720776772040       -1.12502235300511        4.15916381708031
C           -4.95901133766527       -2.07804838408635        3.19052395966097
C           -4.43748272626964       -1.69362399944096        1.96886209464643
C           -3.71374551024416        1.99428236472023       -0.28901713566909
C           -4.76863722368904        2.45097563789945       -1.07264274578269
C           -4.97791903152608        3.80432872015741       -1.26852154769971
C           -4.13135945730469        4.72876004992273       -0.68024163421032
C           -3.07402029235108        4.29184977317653        0.10041646077368
C           -2.86985034878431        2.93762157162086        0.29167414261738
C           -0.98326903324347       -1.05795857617759        0.92503775546367
C            0.37234091246134       -1.32055272032924        0.89406501017473
C            3.54381210698433        0.02340721578983       -0.36466846748169
C            4.91362605856317       -0.22897059229137       -0.42184922789773
H            7.39537616567616        2.95201973801405       -0.15965627526903
H            9.73161714900538        2.93081067333192        0.66408413913785
H           10.87317010922622        0.77799868897413        1.07029675256101
H            9.66084282196861       -1.35534503237557        0.61600794568398
H            4.85570838485018       -3.54803964762017        0.18576646494690
H            2.41448823053444       -3.09049013617900        0.29892024131060
H            1.22566758131777        0.64350017012660       -1.71747158806219
H           -1.18009314092853        1.10985790985654       -1.64198800806637
H           -6.21226112116083       -0.75456153225594       -0.46041582168377
H           -7.32770598688912       -2.04571303698317       -2.23090231639047
H           -6.01847223795597       -2.92531395728689       -4.12929288578324
H           -3.58950514433860       -2.50424010409939       -4.24248905834142
H           -2.48034022367183       -1.20941458853950       -2.47240488410246
H           -4.25794620154132        1.63284446334045        2.47201511855993
H           -5.18415615588361        0.95836299663872        4.64771598598961
H           -5.63575445189678       -1.42243268232003        5.11410280120285
H           -5.15874781102705       -3.12153516431040        3.38882365796180
H           -4.23714905042217       -2.44058442376439        1.21301961879933
H           -5.43014884321273        1.73397626488405       -1.53784598581628
H           -5.80233141151345        4.14009210526717       -1.88124362425966
H           -4.29328704071122        5.78621760978177       -0.83119170811948
H           -2.40847924693320        5.00892058087224        0.55964678794868
H           -2.03985805298455        2.60149127384585        0.89794883129022
H           -1.60005949037861       -1.53309692736461        1.67422203631613
H            0.80796456816823       -1.98534723505443        1.62608483353148
H            3.20783457624201        1.03907287041332       -0.51340944892576

          :  Hamiltonian                  GFN2-xTB          :
         :: gradient norm              0.000115130699 Eh/a0 ::
         :: HOMO-LUMO gap              1.940735965661 eV    ::
         :: SCC energy              -111.461153024080 Eh    ::
         :: -> dispersion             -0.094654860491 Eh    ::
         :: repulsion energy           1.903127778875 Eh    ::

    * Orbital Energies and Occupations

         #    Occupation            Energy/Eh            Energy/eV
      -------------------------------------------------------------
         1        2.0000           -0.7773547             -21.1529
       ...           ...                  ...                  ...
        89        2.0000           -0.4225727             -11.4988
        90        2.0000           -0.4140363             -11.2665
        91        2.0000           -0.4089877             -11.1291
        92        2.0000           -0.4081070             -11.1052
        93        2.0000           -0.4070750             -11.0771
        94        2.0000           -0.4058006             -11.0424
        95        2.0000           -0.4049590             -11.0195
        96        2.0000           -0.4047777             -11.0146
        97        2.0000           -0.4038520             -10.9894
        98        2.0000           -0.4023588             -10.9487
        99        2.0000           -0.3914030             -10.6506
       100        2.0000           -0.3882552             -10.5650
       101        2.0000           -0.3875638             -10.5461 (HOMO)
       102                         -0.3162430              -8.6054 (LUMO)
       103                         -0.2748218              -7.4783
       104                         -0.2642240              -7.1899
       105                         -0.2571351              -6.9970
       106                         -0.2435642              -6.6277
       107                         -0.2396237              -6.5205
       108                         -0.2370121              -6.4494
       109                         -0.2316179              -6.3026
       110                         -0.2300017              -6.2587
       111                         -0.2241479              -6.0994
       112                         -0.2229741              -6.0674
       ...                                ...                  ...
       204                          1.2117408              32.9731
      -------------------------------------------------------------
                  HL-Gap            0.0713208 Eh            1.9407 eV

     #   Z          covCN         q      C6AA      α(0)
     1   8 O        0.858    -0.348    20.662     6.094
     2   6 C        2.829     0.223    23.311     7.912
     3   6 C        3.005    -0.013    28.319     8.729
     4   6 C        2.927    -0.014    28.353     8.732
     5   6 C        2.917    -0.022    28.559     8.763
     6   6 C        2.921    -0.016    28.405     8.740
     7   6 C        2.961    -0.019    28.477     8.753
     8   6 C        2.971    -0.070    29.731     8.944
     9  16 S        3.824     0.960   107.814    17.476
    10   8 O        0.860    -0.539    24.667     6.659
    11   8 O        0.860    -0.534    24.557     6.644
    12   6 C        2.971    -0.074    29.853     8.962
    13   6 C        2.959    -0.021    28.519     8.759
    14   6 C        2.926    -0.023    28.582     8.767
    15   6 C        2.974     0.021    27.525     8.606
    16   6 C        2.978     0.009    27.806     8.650
    17   6 C        2.922    -0.033    28.814     8.803
    18   6 C        2.936    -0.029    28.731     8.791
    19   6 C        2.862    -0.093    30.321     9.026
    20  14 Si       3.614     0.486    98.248    19.026
    21   6 C        2.863    -0.093    30.340     9.029
    22   6 C        2.939    -0.030    28.761     8.796
    23   6 C        2.917    -0.029    28.730     8.790
    24   6 C        2.921    -0.028    28.689     8.783
    25   6 C        2.918    -0.029    28.721     8.788
    26   6 C        2.935    -0.032    28.793     8.800
    27   6 C        2.863    -0.094    30.353     9.031
    28   6 C        2.936    -0.032    28.793     8.800
    29   6 C        2.917    -0.029    28.724     8.789
    30   6 C        2.921    -0.028    28.695     8.784
    31   6 C        2.917    -0.030    28.737     8.791
    32   6 C        2.938    -0.031    28.773     8.797
    33   6 C        2.863    -0.094    30.344     9.029
    34   6 C        2.936    -0.032    28.787     8.799
    35   6 C        2.918    -0.029    28.718     8.788
    36   6 C        2.921    -0.027    28.688     8.783
    37   6 C        2.917    -0.029    28.731     8.790
    38   6 C        2.938    -0.031    28.768     8.796
    39   6 C        2.934    -0.031    28.782     8.799
    40   6 C        2.922    -0.033    28.825     8.804
    41   6 C        2.933    -0.021    28.526     8.759
    42   6 C        3.004    -0.015    28.373     8.738
    43   1 H        0.926     0.076     2.020     2.223
    44   1 H        0.926     0.059     2.215     2.327
    45   1 H        0.926     0.060     2.196     2.318
    46   1 H        0.926     0.068     2.107     2.270
    47   1 H        0.926     0.066     2.129     2.282
    48   1 H        0.926     0.060     2.201     2.320
    49   1 H        0.926     0.038     2.472     2.459
    50   1 H        0.926     0.028     2.620     2.531
    51   1 H        0.925     0.020     2.736     2.587
    52   1 H        0.926     0.029     2.606     2.524
    53   1 H        0.926     0.030     2.588     2.516
    54   1 H        0.926     0.029     2.602     2.522
    55   1 H        0.926     0.020     2.727     2.582
    56   1 H        0.926     0.022     2.708     2.573
    57   1 H        0.926     0.029     2.608     2.525
    58   1 H        0.926     0.029     2.593     2.518
    59   1 H        0.926     0.028     2.610     2.526
    60   1 H        0.925     0.020     2.735     2.586
    61   1 H        0.926     0.022     2.707     2.573
    62   1 H        0.926     0.029     2.603     2.523
    63   1 H        0.926     0.030     2.588     2.516
    64   1 H        0.926     0.029     2.606     2.525
    65   1 H        0.925     0.019     2.752     2.594
    66   1 H        0.926     0.028     2.620     2.531
    67   1 H        0.926     0.032     2.555     2.499
    68   1 H        0.926     0.075     2.030     2.228

molecular dipole:
                 x           y           z       tot (Debye)
 q only:       -1.234       1.123       1.234
   full:       -1.079       0.959       1.260       4.870

 projected vibrational frequencies (cm⁻¹)
eigval :       -0.00    -0.00    -0.00     0.00     0.00     0.00
eigval :        8.34    11.43    18.50    22.43    24.76    26.77
eigval :       30.33    34.37    39.13    40.36    43.39    51.14
eigval :       62.07    86.68    92.70   118.10   131.27   132.03
eigval :      147.54   155.41   160.24   178.53   190.13   204.61
eigval :      210.12   217.77   225.02   231.71   259.01   268.12
eigval :      275.02   298.47   331.88   354.83   358.44   358.57
eigval :      360.42   364.01   366.54   379.11   394.10   412.89
eigval :      416.22   422.31   430.85   437.46   467.83   480.69
eigval :      482.39   495.02   503.18   513.78   545.39   562.46
eigval :      589.12   589.59   589.80   595.38   604.46   615.64
eigval :      650.74   660.31   663.15   663.19   663.36   670.30
eigval :      676.00   691.63   707.05   709.22   710.50   732.83
eigval :      735.39   735.93   736.34   737.30   788.00   802.71
eigval :      817.79   841.62   877.61   882.01   882.99   884.53
eigval :      891.31   894.44   905.47   906.98   908.49   921.41
eigval :      923.60   925.53   931.47   932.32   932.64   932.84
eigval :      934.90   935.40   935.82   936.10   939.42   975.62
eigval :      977.19   977.34  1002.15  1023.06  1065.79  1079.93
eigval :     1084.62  1085.17  1085.79  1085.89  1114.90  1120.92
eigval :     1121.84  1123.18  1144.01  1144.91  1151.53  1151.83
eigval :     1152.58  1152.73  1163.62  1169.99  1179.64  1182.71
eigval :     1182.79  1182.89  1207.06  1207.78  1208.69  1211.91
eigval :     1220.49  1227.22  1243.72  1244.45  1278.17  1287.69
eigval :     1288.13  1290.78  1300.29  1310.08  1311.32  1311.96
eigval :     1312.53  1320.31  1327.36  1372.48  1396.04  1411.78
eigval :     1419.27  1420.08  1421.54  1444.16  1448.44  1464.51
eigval :     1465.41  1465.75  1487.79  1552.22  1558.75  1562.86
eigval :     1570.10  1576.48  1576.73  1577.34  1588.68  1592.12
eigval :     1593.51  1593.69  1594.95  1689.84  3060.47  3060.69
eigval :     3062.18  3065.83  3065.90  3066.34  3069.08  3070.48
eigval :     3071.67  3071.94  3072.07  3077.51  3077.90  3077.97
eigval :     3081.76  3084.67  3086.76  3087.00  3087.36  3087.62
eigval :     3092.79  3093.62  3094.51  3100.47  3106.03  3107.73

   temp. (K)  partition function   enthalpy   heat capacity  entropy
                                   cal/mol     cal/K/mol   cal/K/mol   J/K/mol
 298.15  VIB  0.290E+19            21354.279    125.970    135.513
         ROT  0.817E+08              888.752      2.981     39.187
         INT  0.237E+27            22243.031    128.951    174.700
         TR   0.135E+29             1481.254      4.968     44.931
         TOT                       23724.2852   133.9190   219.6309   918.9359

       T/K    H(0)-H(T)+PV         H(T)/Eh          T*S/Eh         G(T)/Eh
   ------------------------------------------------------------------------
    298.15    0.378071E-01    0.544800E+00    0.104354E+00    0.440446E+00
   ------------------------------------------------------------------------

         :::::::::::::::::::::::::::::::::::::::::::::::::::::
         ::                  THERMODYNAMIC                  ::
         :::::::::::::::::::::::::::::::::::::::::::::::::::::
         :: total free energy        -109.117579493635 Eh   ::
         ::.................................................::
         :: total energy             -109.558025245197 Eh   ::
         :: zero point energy           0.506992446684 Eh   ::
         :: G(RRHO) w/o ZPVE           -0.066546695122 Eh   ::
         :: G(RRHO) contrib.            0.440445751562 Eh   ::
         :::::::::::::::::::::::::::::::::::::::::::::::::::::

           -------------------------------------------------
          | TOTAL ENERGY             -109.558025245197 Eh   |
          | TOTAL ENTHALPY           -109.013225743523 Eh   |
          | TOTAL FREE ENERGY        -109.117579493635 Eh   |
          | GRADIENT NORM               0.000115208822 Eh/α |
          | HOMO-LUMO GAP               1.940738023215 eV   |
           -------------------------------------------------

 * finished run on 2025/07/18 at 11:38:48.139
