   * xtb version 6.7.1 (edcfbbe) compiled by 'albert@albert-system' on 2024-07-22

   ID    Z sym.   atoms
    1    8 O      1, 10, 11
    2    6 C      2-8, 12-19, 21-42
    3   16 S      9
    4   14 Si     20
    5    1 H      43-68

          program call               : xtb data2507/gas/TXO-P-Si/TXO-P-Si_gas_T1_crest.xyz --gfn 2 --spinpol --tblite --uhf 2 --ohess vtight --parallel 40 --molden --ceasefiles --namespace data2507/gas/TXO-P-Si/TXO-P-Si_gas_T1_finalOpt
 * total energy  :  -109.4814626 Eh     change       -0.1224336E-08 Eh
 * total energy  :  -109.4815120 Eh     change       -0.4940954E-04 Eh
 * total energy  :  -109.4815312 Eh     change       -0.1925194E-04 Eh
 * total energy  :  -109.4815337 Eh     change       -0.2465210E-05 Eh
 * total energy  :  -109.4815355 Eh     change       -0.1864241E-05 Eh
 * total energy  :  -109.4815375 Eh     change       -0.1936349E-05 Eh
 * total energy  :  -109.4815397 Eh     change       -0.2235424E-05 Eh
 * total energy  :  -109.4815417 Eh     change       -0.1960593E-05 Eh
 * total energy  :  -109.4815437 Eh     change       -0.1984098E-05 Eh
 * total energy  :  -109.4815452 Eh     change       -0.1531878E-05 Eh
 * total energy  :  -109.4815503 Eh     change       -0.1542976E-05 Eh
 * total energy  :  -109.4815517 Eh     change       -0.1384770E-05 Eh
 * total energy  :  -109.4815526 Eh     change       -0.9476789E-06 Eh
 * total energy  :  -109.4815534 Eh     change       -0.7863309E-06 Eh
 * total energy  :  -109.4815543 Eh     change       -0.8953498E-06 Eh
 * total energy  :  -109.4815550 Eh     change       -0.6643250E-06 Eh
 * total energy  :  -109.4815556 Eh     change       -0.5733027E-06 Eh
 * total energy  :  -109.4815560 Eh     change       -0.4206900E-06 Eh
 * total energy  :  -109.4815560 Eh     change       -0.6370840E-08 Eh
   *** GEOMETRY OPTIMIZATION CONVERGED AFTER 22 ITERATIONS ***

 final structure:
================
68
 xtb: 6.7.1 (edcfbbe)
O            4.42407552319963        2.43832541394861       -0.69809751301137
C            4.98046067581657        1.35923879891564       -0.36384720846612
C            6.40236183575741        1.31932847545751       -0.07904210981103
C            7.08217960747721        2.55825066114378       -0.02275579896381
C            8.40729899370600        2.61305567768763        0.32789706039447
C            9.11906730457501        1.45419097825700        0.63258046064775
C            8.48089669419667        0.22798643739370        0.55151750322004
C            7.15027277314139        0.17705679364587        0.19144801307435
S            6.44478179065388       -1.44084798893359       -0.08215037591310
O            6.68966157210453       -1.80909199174812       -1.45180201493916
O            6.89008908831161       -2.35738140525602        0.93169965041265
C            4.70294184146714       -1.11289430013701        0.11016642841958
C            3.88450277087189       -2.18331421121419        0.40941181534727
C            2.51249940223859       -2.01978490010166        0.40866367583745
C            1.95966321081247       -0.77103603794325        0.08644287966285
C            0.50207680366356       -0.57662344555549        0.06976061611344
C           -0.10342481802242        0.16497474973740       -0.94336385089341
C           -1.47388881518886        0.32910732222336       -0.96519855431103
C           -2.28310270892699       -0.21934099788352        0.02694583712879
Si          -4.15655857598287        0.06408412846967        0.00093493440882
C           -4.76232668440309       -0.15815169383091       -1.78115386343652
C           -5.76163682740326        0.64985333457212       -2.31387034626973
C           -6.21775930452198        0.45894548028801       -3.60591323893532
C           -5.67853524522957       -0.54723412090515       -4.38966709698565
C           -4.67998918279291       -1.35803867535195       -3.87584459239196
C           -4.22695063394681       -1.16209988180606       -2.58409843242686
C           -5.00211854622216       -1.18409202470264        1.15044089875866
C           -5.01423856207421       -0.97557962016190        2.52692210545472
C           -5.60948674522515       -1.88692556142068        3.37995036239873
C           -6.20695920838291       -3.02643027378528        2.86706532370759
C           -6.20675368652011       -3.24638792944221        1.50007222222697
C           -5.60870274844622       -2.33189839101666        0.65127476505914
C           -4.56817095181631        1.81019332160299        0.61414134310158
C           -5.85368161809671        2.11189154771807        1.05473824923318
C           -6.17809275079497        3.38555906739916        1.48502436717780
C           -5.21629952233446        4.38220710205270        1.48290802265087
C           -3.93191329778253        4.09659950500439        1.05208696977598
C           -3.61290011114608        2.82097694024324        0.62148071944608
C           -1.67100031740756       -0.95811011742308        1.03487960461922
C           -0.30188692458398       -1.13692492822332        1.06014447583295
C            2.79189579009620        0.29319619640317       -0.19699620951337
C            4.19539394892558        0.15599534940239       -0.16016800581544
H            6.51163932864946        3.44597988439997       -0.25227042598414
H            8.90227361890414        3.57215471985917        0.37253331748226
H           10.15873628900458        1.50464301433982        0.91460167960400
H            8.99441492802748       -0.69858783838147        0.75411872443784
H            4.34363158161659       -3.13640075393904        0.61969350733061
H            1.86933234884198       -2.86013794380592        0.61642997855082
H            0.50450117634072        0.59207038288582       -1.72709712986439
H           -1.92925165927282        0.89179721381985       -1.76790255496024
H           -6.18271243430604        1.43995451351296       -1.70868331490221
H           -6.99441223328530        1.09637962649929       -4.00336242239995
H           -6.03272530970631       -0.69732913755423       -5.39909416610619
H           -4.25377712099037       -2.14294013360244       -4.48400509740779
H           -3.44306210153264       -1.79376904551144       -2.18981329965306
H           -4.55468589632217       -0.08423452271489        2.93110188013167
H           -5.60910648856286       -1.70891462906908        4.44577126854920
H           -6.67342840909775       -3.73938932059383        3.53120607552146
H           -6.67418986867811       -4.13230744133583        1.09488006437690
H           -5.61506394916401       -2.50673727866832       -0.41515773230847
H           -6.60579988534054        1.33520817020137        1.06503365752038
H           -7.18127853801186        3.60186065973509        1.82338474753659
H           -5.46709181488548        5.37785684131801        1.81868792195399
H           -3.17686252678452        4.86942247388025        1.05196315853789
H           -2.60738154440411        2.60384481370416        0.29094999336093
H           -2.27931906387576       -1.40078543304997        1.81046119964692
H            0.15324657539874       -1.69953332197610        1.86210763757723
H            2.39787783977239        1.27485817782192       -0.41579945495990

 projected vibrational frequencies (cm⁻¹)
eigval :       -0.00    -0.00     0.00     0.00     0.00     0.00
eigval :        8.66    11.38    17.85    22.67    24.31    25.41
eigval :       28.69    32.70    38.74    40.25    42.20    49.87
eigval :       61.21    88.99    94.60   125.64   129.44   138.05
eigval :      148.70   156.49   157.32   166.46   187.67   202.60
eigval :      208.60   210.72   220.25   226.43   259.70   264.65
eigval :      275.24   294.29   324.63   338.54   357.63   358.23
eigval :      358.30   360.55   364.48   378.78   387.49   405.83
eigval :      412.83   419.37   423.41   433.70   460.49   468.45
eigval :      470.19   492.34   493.23   500.73   519.35   532.25
eigval :      573.45   586.21   587.13   588.01   588.08   592.34
eigval :      604.22   642.29   644.44   655.71   658.62   659.06
eigval :      659.91   667.56   682.88   695.83   697.84   700.90
eigval :      730.30   732.84   735.18   735.27   764.81   793.04
eigval :      809.93   817.00   858.90   863.41   873.88   877.10
eigval :      878.08   879.68   899.21   899.55   904.68   904.96
eigval :      906.32   907.93   919.18   923.87   930.59   931.07
eigval :      931.57   932.71   933.67   933.99   934.57   965.93
eigval :      968.77   972.07   987.63  1003.37  1039.20  1070.06
eigval :     1075.51  1083.52  1084.24  1084.60  1100.34  1116.23
eigval :     1119.86  1121.09  1123.49  1127.68  1131.03  1138.74
eigval :     1140.90  1141.89  1147.13  1159.38  1163.94  1176.02
eigval :     1181.43  1181.68  1181.79  1204.75  1205.96  1206.11
eigval :     1209.24  1213.39  1216.59  1231.31  1274.83  1279.23
eigval :     1286.04  1286.70  1289.11  1306.17  1310.54  1311.27
eigval :     1311.51  1322.06  1330.16  1352.09  1384.48  1389.43
eigval :     1411.08  1418.10  1418.52  1419.36  1420.70  1456.79
eigval :     1458.05  1459.52  1462.85  1477.13  1498.85  1507.86
eigval :     1534.26  1546.03  1563.52  1568.18  1570.81  1573.09
eigval :     1574.20  1575.36  1578.67  1587.89  3062.69  3063.61
eigval :     3063.99  3068.21  3068.53  3069.10  3069.80  3072.24
eigval :     3073.95  3074.41  3074.65  3078.88  3080.28  3080.58
eigval :     3081.26  3084.75  3086.59  3088.63  3089.02  3089.06
eigval :     3089.35  3091.12  3097.52  3098.80  3107.31  3108.23

   temp. (K)  partition function   enthalpy   heat capacity  entropy
                                   cal/mol     cal/K/mol   cal/K/mol   J/K/mol
 298.15  VIB  0.456E+19            21637.423    127.748    136.969
         ROT  0.814E+08              888.752      2.981     39.180
         INT  0.371E+27            22526.176    130.729    176.149
         TR   0.135E+29             1481.254      4.968     44.931
         TOT                       24007.4296   135.6972   221.0798   924.9979

       T/K    H(0)-H(T)+PV         H(T)/Eh          T*S/Eh         G(T)/Eh
   ------------------------------------------------------------------------
    298.15    0.382583E-01    0.541164E+00    0.105042E+00    0.436122E+00
   ------------------------------------------------------------------------

         :::::::::::::::::::::::::::::::::::::::::::::::::::::
         ::                  THERMODYNAMIC                  ::
         :::::::::::::::::::::::::::::::::::::::::::::::::::::
         :: total free energy        -109.045433876467 Eh   ::
         ::.................................................::
         :: total energy             -109.481555943570 Eh   ::
         :: zero point energy           0.502905946700 Eh   ::
         :: G(RRHO) w/o ZPVE           -0.066783879597 Eh   ::
         :: G(RRHO) contrib.            0.436122067103 Eh   ::
         :::::::::::::::::::::::::::::::::::::::::::::::::::::

           -------------------------------------------------
          | TOTAL ENERGY             -109.481555943570 Eh   |
          | TOTAL ENTHALPY           -108.940391722535 Eh   |
          | TOTAL FREE ENERGY        -109.045433876467 Eh   |
          | GRADIENT NORM               0.000067988974 Eh/α |
           -------------------------------------------------

 * finished run on 2025/07/18 at 11:50:43.565
