   * xtb version 6.7.1 (edcfbbe) compiled by 'albert@albert-system' on 2024-07-22

   ID    Z sym.   atoms
    1    8 O      1, 10, 11
    2    6 C      2-8, 12-19, 21-42
    3   16 S      9
    4   14 Si     20
    5    1 H      43-68

          program call               : xtb data2507/gas/TXO-P-Si/TXO-P-Si_gas_S0_crest.xyz --gfn 2 --ohess vtight --parallel 40 --molden --ceasefiles --namespace data2507/gas/TXO-P-Si/TXO-P-Si_gas_S0_finalOpt
          :  Hamiltonian                  GFN2-xTB          :
 * total energy  :  -109.5580236 Eh     change       -0.6798572E-08 Eh
 * total energy  :  -109.5580252 Eh     change       -0.1586805E-05 Eh
 * total energy  :  -109.5580266 Eh     change       -0.1415639E-05 Eh
 * total energy  :  -109.5580281 Eh     change       -0.1483625E-05 Eh
 * total energy  :  -109.5580290 Eh     change       -0.9377208E-06 Eh
 * total energy  :  -109.5580299 Eh     change       -0.8778966E-06 Eh
 * total energy  :  -109.5580304 Eh     change       -0.5600602E-06 Eh
 * total energy  :  -109.5580304 Eh     change        0.1875082E-07 Eh
 * total energy  :  -109.5580309 Eh     change       -0.4585637E-06 Eh
 * total energy  :  -109.5580313 Eh     change       -0.4100389E-06 Eh
 * total energy  :  -109.5580320 Eh     change       -0.3500777E-06 Eh
 * total energy  :  -109.5580325 Eh     change       -0.4660079E-06 Eh
 * total energy  :  -109.5580331 Eh     change       -0.5901924E-06 Eh
 * total energy  :  -109.5580335 Eh     change       -0.4147029E-06 Eh
 * total energy  :  -109.5580337 Eh     change       -0.1840406E-06 Eh
 * total energy  :  -109.5580339 Eh     change       -0.1770040E-06 Eh
 * total energy  :  -109.5580341 Eh     change       -0.2124725E-06 Eh
 * total energy  :  -109.5580342 Eh     change       -0.1373300E-06 Eh
 * total energy  :  -109.5580342 Eh     change       -0.3547655E-08 Eh
   *** GEOMETRY OPTIMIZATION CONVERGED AFTER 20 ITERATIONS ***

 final structure:
================
68
 xtb: 6.7.1 (edcfbbe)
O            4.56956634688562        2.28947764460002       -1.11416253789216
C            5.03216150416404        1.31192925850943       -0.56199594005872
C            6.42929560389949        1.31214468312993       -0.05650482895181
C            7.03848246226723        2.54777197038406        0.17548527843953
C            8.32739233873374        2.61493958325136        0.66971807350766
C            9.03376997418984        1.45166792115059        0.93841479137043
C            8.44603347271608        0.21938316192667        0.69855811535400
C            7.15657179292456        0.15846382852194        0.21024928933834
S            6.45911301137543       -1.43995042701848       -0.19156870340745
O            6.75279839185413       -1.71639632184733       -1.57233144508596
O            6.87706693123991       -2.40814380596717        0.78511599165217
C            4.70354455519618       -1.14935963830696       -0.04109458427226
C            3.86631249284557       -2.21278298731162        0.23142000737125
C            2.49644495864849       -2.02314267244002        0.26811887646763
C            1.94922491570732       -0.76478235016178        0.01016650206538
C            0.49435525223331       -0.56035896414447        0.02549758856028
C           -0.11753156718620        0.25248534124730       -0.92707140216722
C           -1.48583305805543        0.43543269543236       -0.91432930975883
C           -2.28890715273145       -0.17372837222548        0.04634742762876
Si          -4.16852270354316        0.07752878080014        0.02791442064782
C           -4.95080937089384       -1.06861871893356       -1.26116414247661
C           -6.30818060151150       -1.37266297014346       -1.19640249412349
C           -6.90277461840291       -2.18960858707040       -2.14044738413505
C           -6.14534411796363       -2.72113688912932       -3.17106249692485
C           -4.79336820878978       -2.43247877643136       -3.24839051323824
C           -4.20482943874015       -1.61358633898869       -2.30136531375512
C           -4.88197361599478       -0.34378318943133        1.73179495384422
C           -5.18562751001491        0.64851603939797        2.65840013560189
C           -5.69139026136664        0.32916555443719        3.90583828747131
C           -5.90271676803797       -0.99535181154848        4.24969647164572
C           -5.60887897157430       -1.99625534428207        3.33851321348991
C           -5.10448319634896       -1.67024390735167        2.09289603794345
C           -4.52077251617006        1.88838096798881       -0.40104645519959
C           -5.58178409784708        2.24530814286884       -1.22707395034253
C           -5.84427101485843        3.57200750562686       -1.51814146597113
C           -5.04598902388432        4.56961838210558       -0.98447112391553
C           -3.98357975274524        4.23238519848570       -0.16232487635267
C           -3.72606495819698        2.90428080108641        0.12404005837467
C           -1.66931290099786       -0.97607316080121        0.99879300212135
C           -0.30225158771648       -1.17302162813081        0.99046195171115
C            2.80834943460865        0.29402285628637       -0.26688503812429
C            4.19105387853439        0.11900589606587       -0.28936323138630
H            6.47529897860491        3.44353245289340       -0.04023066075826
H            8.78518579154055        3.57677746151407        0.84514335645016
H           10.03963481878884        1.50378690289739        1.32620978976108
H            8.96695248908408       -0.70615258755593        0.88738676191888
H            4.30865438256185       -3.17976426808697        0.41326964432968
H            1.84320370012203       -2.85825742493119        0.47100627665346
H            0.48283232247711        0.72161323673603       -1.69278325402231
H           -1.94467009503949        1.06783197379272       -1.66114822187871
H           -6.90229737275481       -0.96566673469581       -0.38980698146232
H           -7.95782098721605       -2.41408100095307       -2.07339390073994
H           -6.60713378954034       -3.36017190210079       -3.90971261536998
H           -4.19726271478067       -2.84727738003642       -4.04867381946449
H           -3.14819387221117       -1.39516258078637       -2.36556171548997
H           -5.02764793042830        1.68449105061794        2.39387665595421
H           -5.92258372059361        1.11401495184882        4.61185453870732
H           -6.29756453716781       -1.24717191920145        5.22332896785200
H           -5.77511379220514       -3.03157400627367        3.60037424518006
H           -4.88413921321637       -2.45494284597904        1.38221112343026
H           -6.20554448427288        1.47073508658647       -1.65026536008399
H           -6.67243919221694        3.82975160729930       -2.16277028235661
H           -5.24931783558013        5.60644570298498       -1.21000169198983
H           -3.35548181155151        5.00679879778192        0.25460542374054
H           -2.89160715792185        2.64602822019920        0.76158566327879
H           -2.27017083988243       -1.44914791808446        1.76209775324004
H            0.15787545633925       -1.78534621436125        1.75268185077673
H            2.41790816220794        1.28383689175556       -0.45246904812444

          :  Hamiltonian                  GFN2-xTB          :
         :: gradient norm              0.000096847362 Eh/a0 ::
         :: HOMO-LUMO gap              1.942390416732 eV    ::
         :: SCC energy              -111.461212351740 Eh    ::
         :: -> dispersion             -0.094653005102 Eh    ::
         :: repulsion energy           1.903178136054 Eh    ::

    * Orbital Energies and Occupations

         #    Occupation            Energy/Eh            Energy/eV
      -------------------------------------------------------------
         1        2.0000           -0.7773618             -21.1531
       ...           ...                  ...                  ...
        89        2.0000           -0.4225833             -11.4991
        90        2.0000           -0.4140605             -11.2672
        91        2.0000           -0.4090644             -11.1312
        92        2.0000           -0.4080815             -11.1045
        93        2.0000           -0.4071446             -11.0790
        94        2.0000           -0.4058220             -11.0430
        95        2.0000           -0.4049207             -11.0185
        96        2.0000           -0.4047979             -11.0151
        97        2.0000           -0.4038600             -10.9896
        98        2.0000           -0.4023400             -10.9482
        99        2.0000           -0.3913937             -10.6504
       100        2.0000           -0.3882723             -10.5654
       101        2.0000           -0.3875713             -10.5464 (HOMO)
       102                         -0.3161899              -8.6040 (LUMO)
       103                         -0.2746310              -7.4731
       104                         -0.2642407              -7.1904
       105                         -0.2571245              -6.9967
       106                         -0.2436118              -6.6290
       107                         -0.2397066              -6.5227
       108                         -0.2370683              -6.4510
       109                         -0.2316421              -6.3033
       110                         -0.2299678              -6.2577
       111                         -0.2241736              -6.1001
       112                         -0.2229709              -6.0673
       ...                                ...                  ...
       204                          1.2116990              32.9720
      -------------------------------------------------------------
                  HL-Gap            0.0713814 Eh            1.9424 eV

     #   Z          covCN         q      C6AA      α(0)
     1   8 O        0.858    -0.347    20.657     6.094
     2   6 C        2.829     0.223    23.309     7.911
     3   6 C        3.006    -0.013    28.319     8.729
     4   6 C        2.927    -0.014    28.353     8.732
     5   6 C        2.917    -0.022    28.559     8.763
     6   6 C        2.921    -0.016    28.406     8.740
     7   6 C        2.961    -0.019    28.478     8.753
     8   6 C        2.971    -0.070    29.732     8.944
     9  16 S        3.824     0.960   107.814    17.476
    10   8 O        0.860    -0.539    24.666     6.659
    11   8 O        0.860    -0.534    24.556     6.644
    12   6 C        2.971    -0.075    29.855     8.963
    13   6 C        2.958    -0.021    28.519     8.759
    14   6 C        2.926    -0.023    28.582     8.767
    15   6 C        2.974     0.021    27.525     8.606
    16   6 C        2.978     0.009    27.806     8.650
    17   6 C        2.922    -0.033    28.813     8.803
    18   6 C        2.936    -0.029    28.731     8.791
    19   6 C        2.862    -0.093    30.321     9.026
    20  14 Si       3.614     0.486    98.248    19.026
    21   6 C        2.863    -0.093    30.342     9.029
    22   6 C        2.939    -0.031    28.762     8.796
    23   6 C        2.917    -0.029    28.730     8.790
    24   6 C        2.921    -0.028    28.689     8.784
    25   6 C        2.918    -0.029    28.721     8.788
    26   6 C        2.935    -0.032    28.792     8.800
    27   6 C        2.863    -0.094    30.351     9.030
    28   6 C        2.936    -0.032    28.793     8.800
    29   6 C        2.917    -0.029    28.724     8.789
    30   6 C        2.921    -0.028    28.695     8.784
    31   6 C        2.917    -0.030    28.737     8.791
    32   6 C        2.938    -0.031    28.774     8.797
    33   6 C        2.863    -0.094    30.346     9.030
    34   6 C        2.936    -0.032    28.787     8.799
    35   6 C        2.917    -0.029    28.718     8.788
    36   6 C        2.921    -0.027    28.688     8.783
    37   6 C        2.917    -0.029    28.731     8.790
    38   6 C        2.938    -0.031    28.767     8.796
    39   6 C        2.934    -0.031    28.781     8.798
    40   6 C        2.922    -0.033    28.825     8.804
    41   6 C        2.933    -0.021    28.525     8.759
    42   6 C        3.005    -0.015    28.372     8.738
    43   1 H        0.926     0.076     2.021     2.223
    44   1 H        0.926     0.059     2.215     2.327
    45   1 H        0.926     0.060     2.196     2.318
    46   1 H        0.926     0.068     2.107     2.270
    47   1 H        0.926     0.066     2.128     2.281
    48   1 H        0.926     0.060     2.201     2.320
    49   1 H        0.926     0.038     2.473     2.459
    50   1 H        0.926     0.028     2.619     2.531
    51   1 H        0.925     0.020     2.735     2.586
    52   1 H        0.926     0.029     2.606     2.524
    53   1 H        0.926     0.030     2.588     2.516
    54   1 H        0.926     0.029     2.602     2.523
    55   1 H        0.926     0.020     2.729     2.583
    56   1 H        0.926     0.022     2.706     2.572
    57   1 H        0.926     0.029     2.607     2.525
    58   1 H        0.926     0.030     2.593     2.518
    59   1 H        0.926     0.028     2.610     2.526
    60   1 H        0.925     0.020     2.735     2.586
    61   1 H        0.926     0.022     2.707     2.573
    62   1 H        0.926     0.029     2.603     2.523
    63   1 H        0.926     0.030     2.588     2.516
    64   1 H        0.926     0.029     2.606     2.525
    65   1 H        0.925     0.019     2.753     2.595
    66   1 H        0.926     0.028     2.620     2.531
    67   1 H        0.926     0.032     2.556     2.500
    68   1 H        0.926     0.075     2.031     2.228

molecular dipole:
                 x           y           z       tot (Debye)
 q only:       -1.325       1.082       1.204
   full:       -1.160       0.930       1.237       4.917

 projected vibrational frequencies (cm⁻¹)
eigval :       -0.00    -0.00    -0.00    -0.00     0.00     0.00
eigval :        8.21    11.42    18.66    22.46    24.60    27.42
eigval :       30.25    34.74    39.34    40.60    43.99    51.11
eigval :       61.27    86.83    92.72   117.83   131.24   131.82
eigval :      147.48   155.51   160.44   178.54   190.60   204.48
eigval :      210.21   217.51   224.95   231.33   258.99   268.07
eigval :      275.00   298.58   331.69   354.57   358.40   358.71
eigval :      360.50   363.75   366.10   379.25   393.96   412.89
eigval :      416.11   422.23   430.83   437.51   468.02   480.60
eigval :      482.36   495.24   503.23   513.75   545.30   562.28
eigval :      589.11   589.57   589.80   595.30   604.59   615.74
eigval :      650.83   660.47   663.14   663.27   663.37   670.35
eigval :      676.01   691.70   707.22   709.14   710.48   732.81
eigval :      735.41   736.04   736.30   737.29   787.98   802.63
eigval :      817.85   841.63   877.71   882.08   882.96   884.63
eigval :      891.29   894.58   905.55   906.94   908.63   921.43
eigval :      923.53   925.45   931.56   932.29   932.59   932.89
eigval :      934.83   935.51   935.86   935.99   939.37   975.63
eigval :      977.19   977.35  1002.17  1023.05  1065.77  1079.87
eigval :     1084.65  1085.23  1085.78  1085.87  1114.84  1120.90
eigval :     1121.79  1123.19  1143.90  1144.89  1151.56  1151.92
eigval :     1152.37  1152.71  1163.09  1169.91  1179.55  1182.72
eigval :     1182.80  1182.90  1207.05  1207.72  1208.52  1211.73
eigval :     1220.36  1226.98  1243.60  1244.48  1278.03  1287.67
eigval :     1288.08  1290.82  1300.50  1310.01  1311.30  1311.93
eigval :     1312.52  1320.21  1327.20  1372.66  1395.94  1411.87
eigval :     1419.29  1420.08  1421.56  1444.05  1448.41  1464.49
eigval :     1465.42  1465.78  1487.78  1552.35  1558.83  1562.93
eigval :     1570.13  1576.47  1576.68  1577.35  1588.68  1592.13
eigval :     1593.51  1593.69  1594.97  1690.44  3060.30  3060.71
eigval :     3062.22  3065.61  3065.92  3066.25  3069.29  3070.38
eigval :     3071.68  3071.87  3071.96  3077.51  3077.81  3077.89
eigval :     3081.61  3084.49  3086.74  3086.98  3087.38  3087.61
eigval :     3092.49  3093.47  3094.54  3100.52  3105.95  3107.84

   temp. (K)  partition function   enthalpy   heat capacity  entropy
                                   cal/mol     cal/K/mol   cal/K/mol   J/K/mol
 298.15  VIB  0.283E+19            21353.683    125.994    135.527
         ROT  0.817E+08              888.752      2.981     39.185
         INT  0.231E+27            22242.436    128.975    174.713
         TR   0.135E+29             1481.254      4.968     44.931
         TOT                       23723.6895   133.9435   219.6436   918.9888

       T/K    H(0)-H(T)+PV         H(T)/Eh          T*S/Eh         G(T)/Eh
   ------------------------------------------------------------------------
    298.15    0.378061E-01    0.544794E+00    0.104360E+00    0.440434E+00
   ------------------------------------------------------------------------

         :::::::::::::::::::::::::::::::::::::::::::::::::::::
         ::                  THERMODYNAMIC                  ::
         :::::::::::::::::::::::::::::::::::::::::::::::::::::
         :: total free energy        -109.117599869510 Eh   ::
         ::.................................................::
         :: total energy             -109.558034215729 Eh   ::
         :: zero point energy           0.506988003548 Eh   ::
         :: G(RRHO) w/o ZPVE           -0.066553657328 Eh   ::
         :: G(RRHO) contrib.            0.440434346219 Eh   ::
         :::::::::::::::::::::::::::::::::::::::::::::::::::::

           -------------------------------------------------
          | TOTAL ENERGY             -109.558034215729 Eh   |
          | TOTAL ENTHALPY           -109.013240106546 Eh   |
          | TOTAL FREE ENERGY        -109.117599869510 Eh   |
          | GRADIENT NORM               0.000096646295 Eh/α |
          | HOMO-LUMO GAP               1.942386270850 eV   |
           -------------------------------------------------

 * finished run on 2025/07/18 at 11:43:33.110
