   * xtb version 6.7.1 (edcfbbe) compiled by 'albert@albert-system' on 2024-07-22

   ID    Z sym.   atoms
    1    6 C      1-4, 6, 8-10, 12-26
    2    7 N      5, 11
    3    8 O      7, 28, 29
    4   16 S      27
    5    1 H      30-49

          program call               : xtb data2507/gas/5-Cz-Sac/5-Cz-Sac_gas_S0_crest.xyz --gfn 2 --ohess vtight --parallel 40 --molden --ceasefiles --namespace data2507/gas/5-Cz-Sac/5-Cz-Sac_gas_S0_finalOpt
          :  Hamiltonian                  GFN2-xTB          :
 * total energy  :   -80.8123304 Eh     change       -0.1058567E-08 Eh
 * total energy  :   -80.8123307 Eh     change       -0.3630737E-06 Eh
 * total energy  :   -80.8123309 Eh     change       -0.1593193E-06 Eh
 * total energy  :   -80.8123311 Eh     change       -0.1953238E-06 Eh
 * total energy  :   -80.8123313 Eh     change       -0.1871668E-06 Eh
 * total energy  :   -80.8123314 Eh     change       -0.1065435E-06 Eh
 * total energy  :   -80.8123314 Eh     change       -0.4247930E-07 Eh
   *** GEOMETRY OPTIMIZATION CONVERGED AFTER 7 ITERATIONS ***

 final structure:
================
49
 xtb: 6.7.1 (edcfbbe)
C            4.96465910208494       -0.92744020076757        2.19941020938337
C            4.88989696626678       -0.85730713310264        0.67163102372947
C            5.98992011960570        0.05997510377312        0.14286724108726
C            5.03137493456368       -2.24914019015786        0.04933389742362
N            3.57921264693612       -0.29985457260967        0.28833372712182
C            2.40161546686592       -0.89328252004378        0.62233252186563
O            2.26812327485990       -1.91706903810961        1.25724956621091
C            1.26086272202742       -0.10039144267844        0.08760216801057
C           -0.07209622639413       -0.41851501283714        0.27213736712274
C           -1.04383776851397        0.41576409662550       -0.28773694155423
N           -2.39269870713668        0.12158914080759       -0.12669082272020
C           -3.38575779028436        1.02203293111774        0.23050270324717
C           -3.28464056946050        2.36084276329831        0.57730488314458
C           -4.44370194751436        3.02469954798215        0.93520319447941
C           -5.67538006573945        2.37627647287334        0.96034473091925
C           -5.77667129262031        1.03523868885306        0.64715483943366
C           -4.62565369669813        0.34859090220517        0.28540156314406
C           -4.36651466532803       -1.02183760582517       -0.06348087900521
C           -5.18242025988825       -2.13647916901342       -0.20275403646893
C           -4.60762975113086       -3.33154310005556       -0.58726762582204
C           -3.24277618560911       -3.41662462423321       -0.84861687427080
C           -2.41135156018894       -2.31959327726148       -0.71678978439566
C           -2.97876358383924       -1.12430328599276       -0.30226551892093
C           -0.65630959511602        1.54792288161073       -1.01407257167006
C            0.68230099313993        1.86452229030424       -1.18232497779559
C            1.62478590602833        1.02721406610728       -0.62681072824670
S            3.39836518073935        1.12269785955609       -0.64362601282555
O            3.92390195015072        0.91448110303925       -1.95670624589299
O            3.86852564861830        2.25397254056760        0.09268264751885
H            4.19313515113850       -1.58703503664531        2.58630292357032
H            4.82835128561578        0.06470350285886        2.62397344561126
H            5.93652516315820       -1.30897757513377        2.50011789816069
H            6.95859759615704       -0.34584944428502        0.42477266666925
H            5.89181941329096        1.05821889009662        0.56022464445659
H            5.94153510577950        0.13393736331388       -0.93994611789247
H            6.00490198052661       -2.66318806182979        0.29698255545518
H            4.94089156331583       -2.18273017242505       -1.03265886628811
H            4.26021471004456       -2.91318958777672        0.42955218628582
H           -0.34205418978537       -1.28295210785542        0.85834226402034
H           -2.33336764336874        2.87075472434966        0.58755231919732
H           -4.38995566434679        4.06857911668918        1.20579536949695
H           -6.55817980380915        2.93028104145133        1.24161748387738
H           -6.72684191564629        0.52514853522708        0.68800815079581
H           -6.24332188711561       -2.06328171946343       -0.01866112769458
H           -5.22261301328024       -4.21179255057826       -0.69847585711758
H           -2.82270248549805       -4.35951640466303       -1.16488357941279
H           -1.35913288522739       -2.39726450064860       -0.94302835733963
H           -1.41609468223099        2.16730907073114       -1.46508165421426
H            0.98445516535688        2.73466680275380       -1.74253231629101

          :  Hamiltonian                  GFN2-xTB          :
         :: gradient norm              0.000029536621 Eh/a0 ::
         :: HOMO-LUMO gap              2.265873826738 eV    ::
         :: SCC energy               -82.044031281014 Eh    ::
         :: -> dispersion             -0.065298061079 Eh    ::
         :: repulsion energy           1.231699860372 Eh    ::

    * Orbital Energies and Occupations

         #    Occupation            Energy/Eh            Energy/eV
      -------------------------------------------------------------
         1        2.0000           -0.7951360             -21.6368
       ...           ...                  ...                  ...
        61        2.0000           -0.4496886             -12.2367
        62        2.0000           -0.4493423             -12.2272
        63        2.0000           -0.4441329             -12.0855
        64        2.0000           -0.4412077             -12.0059
        65        2.0000           -0.4354837             -11.8501
        66        2.0000           -0.4335257             -11.7968
        67        2.0000           -0.4297039             -11.6928
        68        2.0000           -0.4284175             -11.6578
        69        2.0000           -0.4185979             -11.3906
        70        2.0000           -0.4165680             -11.3354
        71        2.0000           -0.4110287             -11.1847
        72        2.0000           -0.3901684             -10.6170
        73        2.0000           -0.3785506             -10.3009 (HOMO)
        74                         -0.2952814              -8.0350 (LUMO)
        75                         -0.2742902              -7.4638
        76                         -0.2551192              -6.9421
        77                         -0.2332414              -6.3468
        78                         -0.2174900              -5.9182
        79                         -0.1982450              -5.3945
        80                         -0.1969782              -5.3600
        81                         -0.1594038              -4.3376
        82                         -0.1304436              -3.5496
        83                         -0.1299783              -3.5369
        84                         -0.1016484              -2.7660
       ...                                ...                  ...
       141                          1.2501971              34.0196
      -------------------------------------------------------------
                  HL-Gap            0.0832692 Eh            2.2659 eV

     #   Z          covCN         q      C6AA      α(0)
     1   6 C        3.759    -0.120    22.849     6.815
     2   6 C        3.856     0.101    18.888     6.181
     3   6 C        3.767    -0.135    23.127     6.854
     4   6 C        3.759    -0.120    22.849     6.815
     5   7 N        2.754    -0.257    26.674     7.671
     6   6 C        2.919     0.276    22.352     7.753
     7   8 O        0.857    -0.400    21.690     6.244
     8   6 C        3.157    -0.026    28.321     8.701
     9   6 C        2.921    -0.030    28.740     8.791
    10   6 C        2.912     0.077    26.284     8.407
    11   7 N        2.801    -0.037    21.946     6.958
    12   6 C        3.066     0.045    26.930     8.509
    13   6 C        2.910    -0.051    29.266     8.871
    14   6 C        2.924    -0.032    28.787     8.799
    15   6 C        2.920    -0.038    28.944     8.822
    16   6 C        2.913    -0.031    28.778     8.797
    17   6 C        3.066    -0.013    28.262     8.717
    18   6 C        3.066    -0.013    28.267     8.718
    19   6 C        2.913    -0.031    28.779     8.797
    20   6 C        2.920    -0.038    28.934     8.821
    21   6 C        2.924    -0.030    28.760     8.795
    22   6 C        2.910    -0.050    29.231     8.865
    23   6 C        3.066     0.045    26.917     8.507
    24   6 C        2.927    -0.037    28.923     8.820
    25   6 C        2.924    -0.016    28.412     8.741
    26   6 C        2.986    -0.101    30.536     9.065
    27  16 S        3.969     1.156   102.279    17.021
    28   8 O        0.860    -0.551    24.943     6.696
    29   8 O        0.860    -0.550    24.923     6.693
    30   1 H        0.925     0.069     2.101     2.267
    31   1 H        0.925     0.045     2.385     2.415
    32   1 H        0.925     0.054     2.276     2.359
    33   1 H        0.925     0.057     2.231     2.336
    34   1 H        0.925     0.059     2.212     2.326
    35   1 H        0.925     0.059     2.214     2.327
    36   1 H        0.925     0.054     2.276     2.359
    37   1 H        0.925     0.045     2.382     2.414
    38   1 H        0.925     0.068     2.110     2.272
    39   1 H        0.926     0.085     1.929     2.172
    40   1 H        0.926     0.029     2.597     2.520
    41   1 H        0.926     0.035     2.515     2.480
    42   1 H        0.926     0.034     2.524     2.485
    43   1 H        0.926     0.037     2.490     2.467
    44   1 H        0.926     0.037     2.494     2.469
    45   1 H        0.926     0.035     2.520     2.482
    46   1 H        0.926     0.037     2.491     2.468
    47   1 H        0.926     0.033     2.548     2.496
    48   1 H        0.926     0.070     2.081     2.256
    49   1 H        0.926     0.065     2.139     2.287

molecular dipole:
                 x           y           z       tot (Debye)
 q only:       -1.323      -0.169       0.057
   full:       -1.162      -0.007      -0.033       2.956

 projected vibrational frequencies (cm⁻¹)
eigval :       -0.00    -0.00    -0.00    -0.00     0.00     0.00
eigval :       16.08    24.14    30.83    37.71    59.94    90.02
eigval :       98.57   128.09   131.02   138.38   145.28   169.88
eigval :      197.89   207.93   210.16   240.90   244.07   254.91
eigval :      263.23   272.30   286.79   299.65   307.96   352.97
eigval :      360.74   377.26   391.80   395.25   395.94   412.73
eigval :      422.88   423.93   439.58   477.23   486.69   510.09
eigval :      515.25   522.26   538.94   540.84   541.45   553.57
eigval :      584.37   603.33   656.84   668.94   674.54   675.18
eigval :      709.10   718.76   746.28   759.00   771.21   782.37
eigval :      827.26   834.92   870.35   876.29   882.67   896.34
eigval :      898.43   903.92   909.85   918.89   925.74   929.41
eigval :      949.71   955.76   967.10   984.92   993.73  1012.39
eigval :     1031.95  1037.53  1050.39  1072.31  1075.67  1103.33
eigval :     1128.97  1149.21  1154.45  1157.14  1179.44  1180.65
eigval :     1201.32  1212.98  1216.74  1234.57  1237.98  1246.28
eigval :     1255.95  1273.16  1282.29  1294.82  1299.07  1330.97
eigval :     1355.60  1358.78  1361.77  1392.51  1398.84  1409.80
eigval :     1420.49  1422.12  1426.67  1468.68  1471.47  1473.98
eigval :     1483.90  1485.86  1486.70  1489.44  1491.15  1505.28
eigval :     1567.12  1575.92  1583.62  1589.69  1599.30  1612.49
eigval :     1732.24  3034.89  3036.12  3037.56  3044.20  3050.08
eigval :     3056.66  3057.53  3059.12  3062.23  3081.37  3082.89
eigval :     3086.22  3088.09  3093.13  3095.43  3100.26  3100.68
eigval :     3101.83  3108.73  3110.80

   temp. (K)  partition function   enthalpy   heat capacity  entropy
                                   cal/mol     cal/K/mol   cal/K/mol   J/K/mol
 298.15  VIB  0.637E+10            14045.183     90.286     84.529
         ROT  0.191E+08              888.752      2.981     36.301
         INT  0.122E+18            14933.936     93.266    120.830
         TR   0.787E+28             1481.254      4.968     43.864
         TOT                       16415.1898    98.2346   164.6939   689.0794

       T/K    H(0)-H(T)+PV         H(T)/Eh          T*S/Eh         G(T)/Eh
   ------------------------------------------------------------------------
    298.15    0.261593E-01    0.400829E+00    0.782514E-01    0.322578E+00
   ------------------------------------------------------------------------

         :::::::::::::::::::::::::::::::::::::::::::::::::::::
         ::                  THERMODYNAMIC                  ::
         :::::::::::::::::::::::::::::::::::::::::::::::::::::
         :: total free energy         -80.489753559324 Eh   ::
         ::.................................................::
         :: total energy              -80.812331420649 Eh   ::
         :: zero point energy           0.374669988216 Eh   ::
         :: G(RRHO) w/o ZPVE           -0.052092126891 Eh   ::
         :: G(RRHO) contrib.            0.322577861325 Eh   ::
         :::::::::::::::::::::::::::::::::::::::::::::::::::::

           -------------------------------------------------
          | TOTAL ENERGY              -80.812331420649 Eh   |
          | TOTAL ENTHALPY            -80.411502162418 Eh   |
          | TOTAL FREE ENERGY         -80.489753559324 Eh   |
          | GRADIENT NORM               0.000029470234 Eh/α |
          | HOMO-LUMO GAP               2.265870649207 eV   |
           -------------------------------------------------

 * finished run on 2025/08/23 at 09:05:54.467
