   * xtb version 6.7.1 (edcfbbe) compiled by 'albert@albert-system' on 2024-07-22

   ID    Z sym.   atoms
    1    6 C      1-4, 6, 8-10, 12-26
    2    7 N      5, 11
    3    8 O      7, 28, 29
    4   16 S      27
    5    1 H      30-49

          program call               : xtb data2507/gas/5-Cz-Sac/5-Cz-Sac_gas_T1_crest.xyz --gfn 2 --spinpol --tblite --uhf 2 --ohess vtight --parallel 40 --molden --ceasefiles --namespace data2507/gas/5-Cz-Sac/5-Cz-Sac_gas_T1_finalOpt
 * total energy  :   -80.7159038 Eh     change       -0.4947367E-09 Eh
 * total energy  :   -80.7159291 Eh     change       -0.2533915E-04 Eh
 * total energy  :   -80.7159399 Eh     change       -0.1078479E-04 Eh
 * total energy  :   -80.7159422 Eh     change       -0.2332331E-05 Eh
 * total energy  :   -80.7159442 Eh     change       -0.1952079E-05 Eh
 * total energy  :   -80.7159459 Eh     change       -0.1722734E-05 Eh
 * total energy  :   -80.7159477 Eh     change       -0.1756474E-05 Eh
 * total energy  :   -80.7159489 Eh     change       -0.1253667E-05 Eh
 * total energy  :   -80.7159494 Eh     change       -0.4371790E-06 Eh
 * total energy  :   -80.7159495 Eh     change       -0.1519912E-06 Eh
 * total energy  :   -80.7159495 Eh     change        0.4548866E-08 Eh
 * total energy  :   -80.7159496 Eh     change       -0.7809034E-07 Eh
   *** GEOMETRY OPTIMIZATION CONVERGED AFTER 12 ITERATIONS ***

 final structure:
================
49
 xtb: 6.7.1 (edcfbbe)
C            4.95852970658016       -1.24968951779775        2.15815375157302
C            4.85089826380097       -0.82153796929485        0.69484359220812
C            5.96641635357063        0.17585634444031        0.36775048458551
C            4.95453297155161       -2.03342724354365       -0.23970605852034
N            3.56766772715644       -0.15836303252966        0.47873889067050
C            2.35920272126505       -0.80007425015799        0.76169337215875
O            2.27834159297756       -1.85320902361754        1.42388850655000
C            1.26949043609241       -0.11184029301975        0.17122467465015
C           -0.09544790728148       -0.42945491495300        0.30225281098831
C           -1.03317860548066        0.39519607981380       -0.27429101206682
N           -2.38968456612311        0.11159908410532       -0.13018819883919
C           -3.36183636224845        1.01458703320213        0.24490651778694
C           -3.23226313222345        2.35154904657172        0.60044696257447
C           -4.38054153211266        3.03682830094678        0.95564152860813
C           -5.62266572591657        2.40911433492944        0.97502654923861
C           -5.75280612150615        1.06686802046196        0.65165658852114
C           -4.61814410331946        0.36200141692904        0.28979017646948
C           -4.37486585322132       -1.01114935090164       -0.07562578399124
C           -5.19343991391789       -2.11769110537688       -0.22212980424963
C           -4.62030244142001       -3.31607116251507       -0.61946105030985
C           -3.25711526885735       -3.40801083563961       -0.88532648110235
C           -2.41987707754503       -2.31534808771297       -0.74600579505552
C           -2.98403469276452       -1.11918093132869       -0.32045182771649
C           -0.65026034236226        1.55117858635717       -1.02860278106718
C            0.69757219005075        1.84134606998035       -1.19135955385679
C            1.63403674700610        1.02298992541171       -0.61995597802992
S            3.38972701340397        1.07022787566027       -0.69436728586753
O            3.89760976228638        0.62105048816533       -1.96113149004594
O            3.93045594177392        2.29572636003684       -0.18604437102332
H            4.14184609436267       -1.92781931880828        2.40260367957699
H            4.89370921223686       -0.38204406943623        2.81021880386574
H            5.90420113775133       -1.75788395433416        2.32618271093483
H            5.94059184460765        0.44334386906704       -0.68454221088496
H            6.92869960749577       -0.27539048020989        0.59733280167530
H            5.84482196300941        1.08297264715050        0.95354745870045
H            5.92805783674203       -2.50504124764511       -0.13605960105446
H            4.81995163445553       -1.71134836945851       -1.27006271974206
H            4.18154902785387       -2.75643206039024        0.01235411852771
H           -0.38856345737186       -1.27139178740823        0.90946794271654
H           -2.26753156417085        2.83374651109471        0.61367230556430
H           -4.30968984300280        4.07764493176194        1.23193516707082
H           -6.49633332148235        2.97557138190486        1.25932256038137
H           -6.71550071036442        0.58065786808117        0.68562095791650
H           -6.25386693752483       -2.04627546849764       -0.03567292143721
H           -5.24148436727763       -4.19109965553104       -0.73536647840189
H           -2.84385380102979       -4.35056836985334       -1.20970838225574
H           -1.36742351554700       -2.38834076915094       -0.96962390163460
H           -1.40857172787169        2.12584976896308       -1.53261127562460
H            1.01188879091252        2.68846135897708       -1.78077089333612

 projected vibrational frequencies (cm⁻¹)
eigval :       -0.00     0.00     0.00     0.00     0.00     0.00
eigval :       22.43    25.94    38.79    51.57    56.90    84.85
eigval :       98.46   127.19   130.89   138.32   144.26   160.78
eigval :      194.76   213.43   218.80   239.91   251.49   260.98
eigval :      268.68   269.21   284.62   289.86   306.98   344.44
eigval :      351.38   355.92   373.88   380.04   393.90   401.37
eigval :      417.95   422.92   434.17   464.59   480.94   497.94
eigval :      507.58   513.14   532.60   536.14   538.43   548.17
eigval :      572.27   584.91   608.25   630.89   652.56   655.35
eigval :      674.39   710.41   721.57   735.47   754.74   770.58
eigval :      777.41   827.57   843.92   863.98   870.56   873.78
eigval :      879.35   895.11   906.34   907.58   921.15   922.41
eigval :      936.59   949.04   956.88   962.94   977.73  1005.59
eigval :     1012.39  1022.07  1041.06  1065.62  1068.30  1079.10
eigval :     1092.05  1112.51  1133.59  1144.68  1160.35  1175.57
eigval :     1177.20  1196.69  1206.59  1211.14  1219.54  1223.48
eigval :     1239.50  1241.03  1247.95  1271.46  1281.73  1291.37
eigval :     1325.87  1338.79  1353.39  1366.18  1383.69  1388.41
eigval :     1391.80  1402.62  1411.27  1419.92  1454.38  1459.78
eigval :     1463.10  1472.47  1474.49  1475.73  1482.16  1487.15
eigval :     1495.97  1499.47  1546.98  1562.20  1567.85  1574.56
eigval :     1595.06  3008.21  3031.97  3035.72  3039.09  3040.25
eigval :     3040.74  3045.53  3051.42  3062.67  3088.45  3089.26
eigval :     3094.13  3094.70  3095.89  3100.66  3101.58  3102.81
eigval :     3106.31  3108.30  3115.68

   temp. (K)  partition function   enthalpy   heat capacity  entropy
                                   cal/mol     cal/K/mol   cal/K/mol   J/K/mol
 298.15  VIB  0.360E+10            14250.692     92.478     85.474
         ROT  0.190E+08              888.752      2.981     36.288
         INT  0.684E+17            15139.445     95.459    121.762
         TR   0.787E+28             1481.254      4.968     43.864
         TOT                       16620.6987   100.4271   165.6259   692.9787

       T/K    H(0)-H(T)+PV         H(T)/Eh          T*S/Eh         G(T)/Eh
   ------------------------------------------------------------------------
    298.15    0.264868E-01    0.396656E+00    0.786942E-01    0.317962E+00
   ------------------------------------------------------------------------

         :::::::::::::::::::::::::::::::::::::::::::::::::::::
         ::                  THERMODYNAMIC                  ::
         :::::::::::::::::::::::::::::::::::::::::::::::::::::
         :: total free energy         -80.397987805909 Eh   ::
         ::.................................................::
         :: total energy              -80.715949599776 Eh   ::
         :: zero point energy           0.370169230697 Eh   ::
         :: G(RRHO) w/o ZPVE           -0.052207436829 Eh   ::
         :: G(RRHO) contrib.            0.317961793868 Eh   ::
         :::::::::::::::::::::::::::::::::::::::::::::::::::::

           -------------------------------------------------
          | TOTAL ENERGY              -80.715949599776 Eh   |
          | TOTAL ENTHALPY            -80.319293599703 Eh   |
          | TOTAL FREE ENERGY         -80.397987805909 Eh   |
          | GRADIENT NORM               0.000099193378 Eh/α |
           -------------------------------------------------

 * finished run on 2025/08/23 at 09:08:38.858
