   * xtb version 6.7.1 (edcfbbe) compiled by 'albert@albert-system' on 2024-07-22

   ID    Z sym.   atoms
    1    6 C      1-4, 6, 8-10, 12-26
    2    7 N      5, 11
    3    8 O      7, 28, 29
    4   16 S      27
    5    1 H      30-49

          program call               : xtb data2507/gas/5-Cz-Sac/5-Cz-Sac.xyz --gfn 2 --ohess vtight --parallel 40 --molden --ceasefiles --namespace data2507/gas/5-Cz-Sac/5-Cz-Sac_gas_S0_preOpt
          :  Hamiltonian                  GFN2-xTB          :
 * total energy  :   -80.7937597 Eh     change       -0.1435410E-08 Eh
 * total energy  :   -80.8062517 Eh     change       -0.1249194E-01 Eh
 * total energy  :   -80.8103834 Eh     change       -0.4131719E-02 Eh
 * total energy  :   -80.8112628 Eh     change       -0.8793939E-03 Eh
 * total energy  :   -80.8117338 Eh     change       -0.4709944E-03 Eh
 * total energy  :   -80.8119035 Eh     change       -0.1697245E-03 Eh
 * total energy  :   -80.8119939 Eh     change       -0.9038808E-04 Eh
 * total energy  :   -80.8120403 Eh     change       -0.4643856E-04 Eh
 * total energy  :   -80.8120734 Eh     change       -0.3304907E-04 Eh
 * total energy  :   -80.8121053 Eh     change       -0.3189302E-04 Eh
 * total energy  :   -80.8123068 Eh     change       -0.1655781E-05 Eh
 * total energy  :   -80.8123086 Eh     change       -0.1878925E-05 Eh
 * total energy  :   -80.8123106 Eh     change       -0.1952548E-05 Eh
 * total energy  :   -80.8123124 Eh     change       -0.1840457E-05 Eh
 * total energy  :   -80.8123140 Eh     change       -0.1581815E-05 Eh
 * total energy  :   -80.8123153 Eh     change       -0.1263187E-05 Eh
 * total energy  :   -80.8123162 Eh     change       -0.9330627E-06 Eh
 * total energy  :   -80.8123169 Eh     change       -0.6999522E-06 Eh
 * total energy  :   -80.8123169 Eh     change       -0.4969877E-08 Eh
   *** GEOMETRY OPTIMIZATION CONVERGED AFTER 68 ITERATIONS ***

 final structure:
================
49
 xtb: 6.7.1 (edcfbbe)
C            5.90755710890407       -0.60335725014362       -0.36230879365719
C            4.89332121824537        0.26506230292728        0.37811343934491
C            5.03727277129862        0.05965052201144        1.88857890200727
C            5.09908823966434        1.73466993681326        0.00054661833197
N            3.53381376139019       -0.14241776352793       -0.02348388606340
C            2.41327693480476        0.46190171670597        0.45571509038463
O            2.37497206501391        1.39166759180578        1.23230806285578
C            1.20054495373809       -0.18423520182842       -0.11673047909450
C           -0.09891025038192        0.19504272856045        0.16527605454052
C           -1.14717397744497       -0.50302673352938       -0.44090123869806
N           -2.46470872249770       -0.13987800517298       -0.18707786824868
C           -2.96581003813708        1.15430255120450       -0.20146069180072
C           -2.32950863088403        2.34661550490831       -0.51121155405417
C           -3.08419159343102        3.50504718444152       -0.48846835568764
C           -4.44099726146692        3.48408840101661       -0.17691127276648
C           -5.08551603755394        2.29578474487750        0.10411578905459
C           -4.34735732609243        1.12001847410819        0.08742100554695
C           -4.69085780259241       -0.25987489600199        0.29933098911233
C           -5.87341739117508       -0.90323984401245        0.63818216713491
C           -5.85670865043359       -2.27437315729121        0.80089192456787
C           -4.67689336725670       -2.99764731969250        0.64892443122714
C           -3.48775911823808       -2.37793668902846        0.31107551473978
C           -3.50561084852718       -1.00521103075298        0.11582684117365
C           -0.86810467798961       -1.56604517473073       -1.30771024779385
C            0.43783696526221       -1.94547690022937       -1.57442930039732
C            1.45715360911201       -1.24065935624114       -0.97256203721596
S            3.21810502939771       -1.44348623920162       -1.08771615336693
O            3.64426216075637       -2.67297286666242       -0.49559562339428
O            3.69783979514950       -1.13089228067013       -2.39728343023709
H            5.80241703784414       -0.48533203721397       -1.43720639913430
H            5.76809379019971       -1.65233286843218       -0.11651734067259
H            6.91198966404743       -0.30465257568541       -0.07180831098285
H            6.04296586213960        0.32756758989771        2.20053730976426
H            4.85552880141842       -0.98300167364929        2.13991497803694
H            4.32584184812423        0.68241209820883        2.42376697520326
H            6.10832081880849        2.04020479648553        0.26250194587660
H            4.39200196619975        2.36504830326521        0.53204454296713
H            4.95718187781261        1.86692842485616       -1.06974705700937
H           -0.28546290443241        1.00042493741758        0.85837196764260
H           -1.28345425619520        2.37696056247369       -0.77446158107958
H           -2.60952964241252        4.44633170621945       -0.72131276828441
H           -4.99485673355638        4.41066448424914       -0.16661853755282
H           -6.14132856595690        2.27483258923378        0.32677291640715
H           -6.78220279869709       -0.33804502696734        0.77731921150724
H           -6.76547992397146       -2.79525612785876        1.06203809375751
H           -4.68815986018794       -4.06626632603887        0.80295129584986
H           -2.57590286653820       -2.94855460924746        0.22167292011327
H           -1.68628125424799       -2.07937607859129       -1.78880611471002
H            0.65680422096706       -2.76168111928284       -2.24386894524473

          :  Hamiltonian                  GFN2-xTB          :
         :: gradient norm              0.000047315970 Eh/a0 ::
         :: HOMO-LUMO gap              2.262945921718 eV    ::
         :: SCC energy               -82.044038432483 Eh    ::
         :: -> dispersion             -0.065293797952 Eh    ::
         :: repulsion energy           1.231721507821 Eh    ::

    * Orbital Energies and Occupations

         #    Occupation            Energy/Eh            Energy/eV
      -------------------------------------------------------------
         1        2.0000           -0.7951908             -21.6382
       ...           ...                  ...                  ...
        61        2.0000           -0.4497007             -12.2370
        62        2.0000           -0.4493610             -12.2277
        63        2.0000           -0.4441311             -12.0854
        64        2.0000           -0.4412501             -12.0070
        65        2.0000           -0.4355255             -11.8513
        66        2.0000           -0.4334988             -11.7961
        67        2.0000           -0.4296840             -11.6923
        68        2.0000           -0.4284252             -11.6580
        69        2.0000           -0.4186450             -11.3919
        70        2.0000           -0.4165374             -11.3346
        71        2.0000           -0.4110570             -11.1854
        72        2.0000           -0.3901419             -10.6163
        73        2.0000           -0.3785102             -10.2998 (HOMO)
        74                         -0.2953484              -8.0368 (LUMO)
        75                         -0.2743542              -7.4656
        76                         -0.2551055              -6.9418
        77                         -0.2332048              -6.3458
        78                         -0.2174509              -5.9171
        79                         -0.1983254              -5.3967
        80                         -0.1969568              -5.3595
        81                         -0.1594713              -4.3394
        82                         -0.1310429              -3.5659
        83                         -0.1294974              -3.5238
        84                         -0.1016559              -2.7662
       ...                                ...                  ...
       141                          1.2501445              34.0182
      -------------------------------------------------------------
                  HL-Gap            0.0831618 Eh            2.2629 eV

     #   Z          covCN         q      C6AA      α(0)
     1   6 C        3.767    -0.135    23.126     6.854
     2   6 C        3.856     0.101    18.888     6.181
     3   6 C        3.759    -0.120    22.847     6.814
     4   6 C        3.759    -0.120    22.851     6.815
     5   7 N        2.754    -0.257    26.674     7.671
     6   6 C        2.919     0.276    22.352     7.753
     7   8 O        0.857    -0.400    21.688     6.244
     8   6 C        3.158    -0.026    28.320     8.701
     9   6 C        2.921    -0.029    28.737     8.791
    10   6 C        2.912     0.077    26.283     8.407
    11   7 N        2.802    -0.037    21.948     6.958
    12   6 C        3.067     0.045    26.916     8.507
    13   6 C        2.910    -0.050    29.231     8.866
    14   6 C        2.924    -0.030    28.760     8.795
    15   6 C        2.920    -0.038    28.935     8.821
    16   6 C        2.913    -0.031    28.779     8.797
    17   6 C        3.066    -0.013    28.267     8.718
    18   6 C        3.066    -0.013    28.262     8.717
    19   6 C        2.913    -0.031    28.778     8.797
    20   6 C        2.920    -0.038    28.945     8.823
    21   6 C        2.924    -0.032    28.786     8.799
    22   6 C        2.910    -0.051    29.266     8.871
    23   6 C        3.066     0.045    26.929     8.509
    24   6 C        2.927    -0.037    28.921     8.819
    25   6 C        2.924    -0.016    28.411     8.741
    26   6 C        2.986    -0.101    30.535     9.064
    27  16 S        3.970     1.156   102.278    17.021
    28   8 O        0.860    -0.551    24.947     6.697
    29   8 O        0.860    -0.550    24.918     6.693
    30   1 H        0.925     0.059     2.212     2.326
    31   1 H        0.925     0.059     2.214     2.327
    32   1 H        0.925     0.057     2.231     2.336
    33   1 H        0.925     0.054     2.274     2.358
    34   1 H        0.925     0.045     2.380     2.413
    35   1 H        0.925     0.067     2.119     2.276
    36   1 H        0.925     0.053     2.279     2.361
    37   1 H        0.925     0.069     2.093     2.262
    38   1 H        0.925     0.045     2.386     2.416
    39   1 H        0.926     0.085     1.928     2.171
    40   1 H        0.926     0.032     2.552     2.498
    41   1 H        0.926     0.037     2.491     2.468
    42   1 H        0.926     0.035     2.520     2.482
    43   1 H        0.926     0.037     2.494     2.469
    44   1 H        0.926     0.037     2.490     2.468
    45   1 H        0.926     0.034     2.525     2.485
    46   1 H        0.926     0.035     2.515     2.480
    47   1 H        0.926     0.029     2.599     2.521
    48   1 H        0.926     0.070     2.082     2.256
    49   1 H        0.926     0.065     2.139     2.287

molecular dipole:
                 x           y           z       tot (Debye)
 q only:       -1.300       0.258       0.119
   full:       -1.154       0.096       0.006       2.945

 projected vibrational frequencies (cm⁻¹)
eigval :       -0.00    -0.00     0.00     0.00     0.00     0.00
eigval :       16.28    24.11    30.80    37.64    59.85    89.66
eigval :       98.59   128.41   130.50   138.50   145.02   169.62
eigval :      197.72   208.64   209.30   240.81   244.06   255.37
eigval :      262.78   272.22   286.58   299.32   308.34   352.87
eigval :      360.98   377.45   391.75   395.39   395.95   411.93
eigval :      422.81   424.19   439.48   477.08   486.72   510.31
eigval :      515.18   522.17   538.03   540.84   541.34   554.88
eigval :      584.19   602.90   656.84   669.03   674.49   675.25
eigval :      709.06   718.75   746.32   759.02   771.17   782.36
eigval :      827.28   834.83   870.36   876.19   882.69   896.30
eigval :      898.54   903.92   909.77   918.83   925.66   929.09
eigval :      949.70   955.76   967.11   984.86   993.71  1012.43
eigval :     1031.95  1037.54  1050.39  1072.18  1075.56  1103.21
eigval :     1128.95  1149.23  1154.33  1157.00  1179.40  1180.66
eigval :     1201.25  1212.89  1216.72  1234.60  1238.00  1246.28
eigval :     1255.94  1273.19  1282.32  1295.02  1299.03  1330.90
eigval :     1355.64  1358.81  1361.83  1392.54  1398.86  1409.80
eigval :     1420.50  1422.13  1426.69  1468.70  1471.45  1474.04
eigval :     1483.90  1485.91  1486.67  1489.37  1491.19  1505.28
eigval :     1567.18  1575.90  1583.66  1589.75  1599.34  1612.51
eigval :     1732.33  3034.90  3036.14  3037.57  3044.21  3050.06
eigval :     3056.42  3056.98  3059.51  3062.50  3081.29  3082.83
eigval :     3086.11  3087.94  3093.01  3095.29  3100.17  3100.53
eigval :     3101.74  3108.46  3110.72

   temp. (K)  partition function   enthalpy   heat capacity  entropy
                                   cal/mol     cal/K/mol   cal/K/mol   J/K/mol
 298.15  VIB  0.638E+10            14047.214     90.286     84.541
         ROT  0.191E+08              888.752      2.981     36.301
         INT  0.122E+18            14935.966     93.267    120.842
         TR   0.787E+28             1481.254      4.968     43.864
         TOT                       16417.2201    98.2351   164.7051   689.1263

       T/K    H(0)-H(T)+PV         H(T)/Eh          T*S/Eh         G(T)/Eh
   ------------------------------------------------------------------------
    298.15    0.261625E-01    0.400822E+00    0.782567E-01    0.322566E+00
   ------------------------------------------------------------------------

         :::::::::::::::::::::::::::::::::::::::::::::::::::::
         ::                  THERMODYNAMIC                  ::
         :::::::::::::::::::::::::::::::::::::::::::::::::::::
         :: total free energy         -80.489751249144 Eh   ::
         ::.................................................::
         :: total energy              -80.812316924662 Eh   ::
         :: zero point energy           0.374659900794 Eh   ::
         :: G(RRHO) w/o ZPVE           -0.052094225276 Eh   ::
         :: G(RRHO) contrib.            0.322565675518 Eh   ::
         :::::::::::::::::::::::::::::::::::::::::::::::::::::

           -------------------------------------------------
          | TOTAL ENERGY              -80.812316924662 Eh   |
          | TOTAL ENTHALPY            -80.411494518276 Eh   |
          | TOTAL FREE ENERGY         -80.489751249144 Eh   |
          | GRADIENT NORM               0.000047311766 Eh/α |
          | HOMO-LUMO GAP               2.262947057207 eV   |
           -------------------------------------------------

 * finished run on 2025/08/23 at 09:03:59.907
