   * xtb version 6.7.1 (edcfbbe) compiled by 'albert@albert-system' on 2024-07-22

   ID    Z sym.   atoms
    1    6 C      1-4, 6, 8-10, 12-26
    2    7 N      5, 11
    3    8 O      7, 28, 29
    4   16 S      27
    5    1 H      30-49

          program call               : xtb data2507/gas/5-Cz-Sac/5-Cz-Sac_gas_S0_finalOpt.xtbopt.xyz --gfn 2 --spinpol --tblite --uhf 2 --ohess vtight --parallel 40 --molden --ceasefiles --namespace data2507/gas/5-Cz-Sac/5-Cz-Sac_gas_T1_preOpt
 * total energy  :   -80.7080110 Eh     change       -0.3298538E-08 Eh
 * total energy  :   -80.7127639 Eh     change       -0.4752900E-02 Eh
 * total energy  :   -80.7148665 Eh     change       -0.2102633E-02 Eh
 * total energy  :   -80.7150802 Eh     change       -0.2137207E-03 Eh
 * total energy  :   -80.7152378 Eh     change       -0.1575657E-03 Eh
 * total energy  :   -80.7152688 Eh     change       -0.3098838E-04 Eh
 * total energy  :   -80.7153134 Eh     change       -0.4456411E-04 Eh
 * total energy  :   -80.7153394 Eh     change       -0.2600800E-04 Eh
 * total energy  :   -80.7153797 Eh     change       -0.4032759E-04 Eh
 * total energy  :   -80.7154465 Eh     change       -0.6679192E-04 Eh
 * total energy  :   -80.7159478 Eh     change       -0.3548357E-06 Eh
 * total energy  :   -80.7159482 Eh     change       -0.3836403E-06 Eh
 * total energy  :   -80.7159484 Eh     change       -0.2703428E-06 Eh
 * total energy  :   -80.7159486 Eh     change       -0.1923687E-06 Eh
 * total energy  :   -80.7159488 Eh     change       -0.2141267E-06 Eh
 * total energy  :   -80.7159492 Eh     change       -0.3696132E-06 Eh
 * total energy  :   -80.7159495 Eh     change       -0.2843891E-06 Eh
 * total energy  :   -80.7159496 Eh     change       -0.1532958E-06 Eh
 * total energy  :   -80.7159497 Eh     change       -0.5572021E-07 Eh
   *** GEOMETRY OPTIMIZATION CONVERGED AFTER 55 ITERATIONS ***

 final structure:
================
49
 xtb: 6.7.1 (edcfbbe)
C            4.96754705623538       -1.16753785671350        2.19875410255064
C            4.85701501135752       -0.79422279365349        0.72065158776015
C            5.97039891854024        0.19172375125478        0.35429556051534
C            4.96114541717942       -2.03991127377049       -0.16833708304744
N            3.57210204562698       -0.14185313993857        0.48291972336500
C            2.36555887217880       -0.77734365011472        0.78705714011100
O            2.28852253550011       -1.81080310399459        1.47978720564747
C            1.27337698582198       -0.10853916158484        0.17895695672844
C           -0.09055776662398       -0.42627642701451        0.31948779207340
C           -1.03090970146827        0.38045068217950       -0.27776274722355
N           -2.38652283454228        0.09595134902609       -0.12710425759569
C           -3.36218162234167        1.00470127395380        0.22406144418413
C           -3.23737074501208        2.35021433101915        0.54757348562748
C           -4.38845354504163        3.04029450302122        0.88390784802139
C           -5.62874043618287        2.40944718654872        0.91569358918935
C           -5.75418631357853        1.05944152181768        0.62434007110852
C           -4.61661540274316        0.34951105267629        0.28205077785753
C           -4.36836591054886       -1.03129857495195       -0.04957863340234
C           -5.18326474069953       -2.14355011961182       -0.17121594872114
C           -4.60560026106776       -3.34939840443724       -0.53824938338342
C           -3.24152434140763       -3.44356305464687       -0.79869838018449
C           -2.40790703722786       -2.34529280594284       -0.68391764715841
C           -2.97666476627408       -1.14092662765383       -0.28873533156150
C           -0.65171522201185        1.51779233368649       -1.06184536615872
C            0.69522689469214        1.80632649592963       -1.23455362789130
C            1.63430500095919        1.00507717817421       -0.64350202088935
S            3.38973980474022        1.05251930311048       -0.72402339416635
O            3.89463345190553        0.56791335646288       -1.97886130350216
O            3.93048625494683        2.29264483891836       -0.25244533842580
H            4.15310156069055       -1.83834048923910        2.46923520059834
H            4.90126557655408       -0.27633767335740        2.81810702259863
H            5.91478858924664       -1.66658508767754        2.38439950131242
H            6.93384459090735       -0.25003004830638        0.59711035941079
H            5.84967248497397        1.11938169210008        0.90715046484566
H            5.94111324219254        0.42084762890325       -0.70694024549942
H            5.93557271399191       -2.50582537099201       -0.04863687877514
H            4.82453076274247       -1.75680778183579       -1.20982756961006
H            4.18968496473707       -2.75412819154253        0.11183743401927
H           -0.38097317602300       -1.25299823444903        0.94851545730604
H           -2.27410131929837        2.83550520687474        0.55114690129712
H           -4.32133655161014        4.08762607208461        1.13539228730614
H           -6.50472411617575        2.97992094386290        1.18440483713830
H           -6.71551146962748        0.57128473913397        0.66780352929016
H           -6.24435079888196       -2.07086441374393        0.01094525879740
H           -5.22389194214430       -4.22884416872435       -0.63451244434273
H           -2.82467561757601       -4.39242010466264       -1.09924527832883
H           -1.35470903950250       -2.42043321475482       -0.90328842970824
H           -1.41208935638789        2.07763408790910       -1.57926437156248
H            1.00678527526994        2.63818329072247       -1.84670652156396

 projected vibrational frequencies (cm⁻¹)
eigval :       -0.00     0.00     0.00     0.00     0.00     0.00
eigval :       22.43    25.95    38.79    48.94    56.74    84.71
eigval :       98.50   127.34   131.08   138.65   143.84   160.15
eigval :      194.94   213.67   218.87   239.96   250.90   261.11
eigval :      268.96   269.24   284.71   289.56   307.01   345.12
eigval :      351.37   355.88   373.71   379.70   393.97   401.34
eigval :      417.75   422.58   434.19   464.58   481.04   497.70
eigval :      507.51   513.14   532.64   536.07   538.35   548.13
eigval :      572.15   584.86   608.19   630.80   652.48   655.28
eigval :      674.38   710.37   721.35   735.36   754.67   770.69
eigval :      777.49   827.43   844.33   863.99   870.67   873.85
eigval :      879.53   895.02   906.43   907.68   921.21   922.50
eigval :      936.80   949.27   956.59   963.09   978.31  1005.43
eigval :     1012.42  1022.24  1041.37  1065.58  1068.06  1078.79
eigval :     1091.89  1112.32  1133.63  1144.36  1160.82  1175.71
eigval :     1177.32  1196.28  1206.52  1211.25  1219.54  1223.63
eigval :     1239.62  1240.87  1247.95  1271.53  1281.85  1291.27
eigval :     1325.88  1338.66  1353.72  1365.95  1383.88  1388.39
eigval :     1391.84  1402.86  1412.14  1420.01  1454.50  1459.97
eigval :     1463.21  1473.40  1475.11  1475.75  1482.51  1487.78
eigval :     1495.91  1499.84  1547.18  1562.20  1567.84  1574.56
eigval :     1595.03  3009.61  3032.35  3036.07  3039.35  3040.25
eigval :     3040.68  3045.63  3051.86  3062.98  3088.38  3089.22
eigval :     3094.15  3094.91  3096.02  3100.70  3101.82  3102.97
eigval :     3106.30  3108.30  3115.74

   temp. (K)  partition function   enthalpy   heat capacity  entropy
                                   cal/mol     cal/K/mol   cal/K/mol   J/K/mol
 298.15  VIB  0.378E+10            14254.884     92.424     85.492
         ROT  0.190E+08              888.752      2.981     36.288
         INT  0.719E+17            15143.636     95.405    121.780
         TR   0.787E+28             1481.254      4.968     43.864
         TOT                       16624.8904   100.3734   165.6434   693.0519

       T/K    H(0)-H(T)+PV         H(T)/Eh          T*S/Eh         G(T)/Eh
   ------------------------------------------------------------------------
    298.15    0.264934E-01    0.396676E+00    0.787025E-01    0.317973E+00
   ------------------------------------------------------------------------

         :::::::::::::::::::::::::::::::::::::::::::::::::::::
         ::                  THERMODYNAMIC                  ::
         :::::::::::::::::::::::::::::::::::::::::::::::::::::
         :: total free energy         -80.397976584619 Eh   ::
         ::.................................................::
         :: total energy              -80.715949731301 Eh   ::
         :: zero point energy           0.370182210561 Eh   ::
         :: G(RRHO) w/o ZPVE           -0.052209063879 Eh   ::
         :: G(RRHO) contrib.            0.317973146682 Eh   ::
         :::::::::::::::::::::::::::::::::::::::::::::::::::::

           -------------------------------------------------
          | TOTAL ENERGY              -80.715949731301 Eh   |
          | TOTAL ENTHALPY            -80.319274071498 Eh   |
          | TOTAL FREE ENERGY         -80.397976584619 Eh   |
          | GRADIENT NORM               0.000047637220 Eh/α |
           -------------------------------------------------

 * finished run on 2025/08/23 at 09:05:59.324
