   * xtb version 6.7.1 (edcfbbe) compiled by 'albert@albert-system' on 2024-07-22

   ID    Z sym.   atoms
    1    6 C      1-6, 8-12, 14, 15, 17-40
    2    5 B      7
    3    7 N      13, 16
    4    1 H      41-73

          program call               : xtb data2507/toluene/CzCNoB/CzCNoB_toluene_S0_finalOpt.xtbopt.xyz --gfn 2 --uhf 2 --gbsa toluene --ohess vtight --parallel 40 --molden --ceasefiles --namespace data2507/toluene/CzCNoB/CzCNoB_toluene_T1_preOpt
      * Solvation model:               GBSA
        Solvent                        toluene
        Solvent mass                       9.2140E+01 g/mol
          :  Hamiltonian                  GFN2-xTB          :
 * total energy  :  -103.1023694 Eh     change       -0.7612755E-08 Eh
 * total energy  :  -103.1064069 Eh     change       -0.4037578E-02 Eh
 * total energy  :  -103.1078928 Eh     change       -0.1485829E-02 Eh
 * total energy  :  -103.1081274 Eh     change       -0.2346367E-03 Eh
 * total energy  :  -103.1083636 Eh     change       -0.2361537E-03 Eh
 * total energy  :  -103.1085094 Eh     change       -0.1458514E-03 Eh
 * total energy  :  -103.1086507 Eh     change       -0.1412951E-03 Eh
 * total energy  :  -103.1088353 Eh     change       -0.1845754E-03 Eh
 * total energy  :  -103.1089205 Eh     change       -0.8525776E-04 Eh
 * total energy  :  -103.1089672 Eh     change       -0.4662359E-04 Eh
 * total energy  :  -103.1091572 Eh     change       -0.5211511E-06 Eh
 * total energy  :  -103.1091598 Eh     change       -0.2655283E-05 Eh
 * total energy  :  -103.1091608 Eh     change       -0.9988298E-06 Eh
 * total energy  :  -103.1091622 Eh     change       -0.1346662E-05 Eh
 * total energy  :  -103.1091628 Eh     change       -0.6374185E-06 Eh
 * total energy  :  -103.1091637 Eh     change       -0.8489283E-06 Eh
 * total energy  :  -103.1091641 Eh     change       -0.4645530E-06 Eh
 * total energy  :  -103.1091643 Eh     change       -0.2130396E-06 Eh
 * total energy  :  -103.1091644 Eh     change       -0.3176496E-07 Eh
   *** GEOMETRY OPTIMIZATION CONVERGED AFTER 41 ITERATIONS ***

 final structure:
================
73
 xtb: 6.7.1 (edcfbbe)
C            2.91428032734312        3.93540278222796        1.32436704697244
C            1.78657607681866        2.97792499495621        1.11635388760519
C            0.79359438899470        3.22253763644465        0.16966899821056
C           -0.25303472739927        2.34421675335533       -0.02470619076094
C           -1.30923366452714        2.67316861471457       -1.03163666948459
C           -0.31523613769551        1.13189860624271        0.70490823598438
B           -1.32237355184088       -0.00228999699765        0.31188917800314
C           -0.85061477563146       -1.41141105645119       -0.00002639432736
C           -1.74218419962283       -2.52277763863996        0.09026833585142
C           -1.34297237776874       -3.82022056726304        0.03045741926016
C            0.03001434915937       -4.13704349261138       -0.17591220091944
C            0.45725596749285       -5.45453042913439       -0.26609261832381
N            0.81303791382104       -6.55565576317125       -0.32596301801230
C            0.93718175087651       -3.07424750537614       -0.32904147025918
C            0.52768664944157       -1.76249688682084       -0.27706472981566
N            1.50861948509781       -0.77983230322486       -0.46725912245703
C            2.69873783929721       -0.70277372553209        0.22405236272277
C            3.15940978480174       -1.47833514918757        1.28161657274921
C            4.39805021851183       -1.17335624483954        1.81628744061418
C            5.16522748976549       -0.12392484573939        1.31679313279696
C            4.71510640793318        0.64875467254404        0.25868895684069
C            3.47779884521585        0.36106810162590       -0.29262865616758
C            2.73009275159330        0.91273686178121       -1.39273436741808
C            2.99392940492489        1.90505566644569       -2.32232706070459
C            2.07424990568889        2.12532465363198       -3.33392574204115
C            0.92158237901685        1.35279722584899       -3.43533368601659
C            0.63686846210886        0.35999118155765       -2.51490194160406
C            1.53441042379436        0.16253383094216       -1.47649123643207
C           -2.88395521648885        0.31241493619693        0.26558626667252
C           -3.51051875930516        0.88668451357926        1.38526890689841
C           -2.74715422020547        1.17224887912510        2.64326645851030
C           -4.86877524524105        1.16185909571860        1.36391985955222
C           -5.65196710772069        0.88996959573401        0.25041611094535
C           -7.12111012004786        1.19062658723661        0.25743674285233
C           -5.03324131971606        0.32343589963943       -0.84866486844530
C           -3.67215595882123        0.03290087989650       -0.85865692679447
C           -3.11830627177629       -0.52601550922708       -2.13827798222604
C            0.62724127186086        0.94691810155348        1.74639525055211
C            0.51160260047048       -0.18094957465370        2.72601014861932
C            1.66702823476639        1.84445498509336        1.91171584188221
H            3.84567351620531        3.39473170616975        1.48122794560455
H            2.73075927392001        4.54271360250681        2.21201227607178
H            3.02308353788749        4.60217617640890        0.47275398425627
H            0.84726875318881        4.12228175464002       -0.42730772936330
H           -1.03294273560370        3.55189355723255       -1.60947172454655
H           -2.25728332403867        2.86785570009434       -0.53129767241821
H           -1.46067910022519        1.83635631642091       -1.70749425922724
H           -2.78737426797875       -2.30435935310606        0.25701048780821
H           -2.05231297087578       -4.62928903600699        0.13542384309947
H            1.97198200368549       -3.29989366223353       -0.55260995890540
H            2.57472777184738       -2.29854826246891        1.66911967746124
H            4.77837774278289       -1.76407515291162        2.63656958009162
H            6.12815956173770        0.08306549235735        1.75965475110993
H            5.31652390545139        1.45509956791077       -0.13226823930470
H            3.90359833595882        2.48290731155441       -2.26632171534443
H            2.26213527246663        2.89373666995843       -4.06900667496538
H            0.23905510022930        1.52604361546586       -4.25382093134490
H           -0.24276976204907       -0.25447350716579       -2.61040100380326
H           -3.37941143215558        1.67027987966849        3.37510325305832
H           -2.38200938450643        0.24250865346233        3.07648148760392
H           -1.88799189734050        1.80630806835293        2.43362955342764
H           -5.33360035137525        1.58904569750230        2.24258252544541
H           -7.64421638843658        0.49159618428002        0.91121532256744
H           -7.30458135636503        2.19691844569943        0.63132284543468
H           -7.54107400771855        1.10464032731362       -0.74198270359247
H           -5.61468025237834        0.10822984045634       -1.73543547580495
H           -3.01109774428374        0.26999790337326       -2.87692223411963
H           -2.15213705145268       -0.99242046259721       -1.97972589587650
H           -3.79722666602901       -1.27020934908457       -2.55204934544024
H            0.00629528287964        0.17469371066960        3.62513313390204
H           -0.06423755975597       -1.00860542464540        2.32212024931929
H            1.49703546833245       -0.53226505414238        3.02398901277686
H            2.40076636894402        1.66309197833942        2.68511140788943

          :  Hamiltonian                  GFN2-xTB          :
         :: gradient norm              0.000152844100 Eh/a0 ::
         :: HOMO-LUMO gap              0.676738284259 eV    ::
         :: SCC energy              -105.013745167089 Eh    ::
         :: -> dispersion             -0.112295702738 Eh    ::
         :: -> Gsolv                  -0.043847691695 Eh    ::
         :: repulsion energy           1.904580789682 Eh    ::

    * Orbital Energies and Occupations

         #    Occupation            Energy/Eh            Energy/eV
      -------------------------------------------------------------
         1        2.0000           -0.6868859             -18.6911
       ...           ...                  ...                  ...
        86        2.0000           -0.4143742             -11.2757
        87        2.0000           -0.4077497             -11.0954
        88        2.0000           -0.4053146             -11.0292
        89        2.0000           -0.3979160             -10.8278
        90        2.0000           -0.3960071             -10.7759
        91        2.0000           -0.3941666             -10.7258
        92        2.0000           -0.3926836             -10.6855
        93        2.0000           -0.3837936             -10.4436
        94        2.0000           -0.3807081             -10.3596
        95        2.0000           -0.3777641             -10.2795
        96        1.9962           -0.3735354             -10.1644
        97        1.0038           -0.3629572              -9.8766
        98        1.0000           -0.2801117              -7.6222 (HOMO)
        99        0.0000           -0.2552416              -6.9455 (LUMO)
       100                         -0.2363615              -6.4317
       101                         -0.2321158              -6.3162
       102                         -0.2240745              -6.0974
       103                         -0.2160300              -5.8785
       104                         -0.2140470              -5.8245
       105                         -0.2080518              -5.6614
       106                         -0.2015060              -5.4833
       107                         -0.1965861              -5.3494
       108                         -0.1875106              -5.1024
       109                         -0.1849529              -5.0328
       ...                                ...                  ...
       193                          1.1692390              31.8166
      -------------------------------------------------------------
                  HL-Gap            0.0248701 Eh            0.6768 eV

     #   Z          covCN         q      C6AA      α(0)
     1   6 C        3.758    -0.110    22.654     6.786
     2   6 C        2.963     0.024    27.473     8.597
     3   6 C        2.926    -0.053    29.306     8.878
     4   6 C        2.964     0.017    27.634     8.623
     5   6 C        3.759    -0.115    22.756     6.801
     6   6 C        2.888    -0.061    29.512     8.906
     7   5 B        2.709     0.196    18.467     7.207
     8   6 C        2.879    -0.083    30.074     8.990
     9   6 C        2.915    -0.040    28.993     8.830
    10   6 C        2.913    -0.035    28.874     8.811
    11   6 C        2.966    -0.021    28.531     8.761
    12   6 C        1.910     0.098    28.655     8.645
    13   7 N        0.911    -0.357    29.181     7.813
    14   6 C        2.925    -0.039    28.976     8.828
    15   6 C        2.905     0.045    26.990     8.519
    16   7 N        2.803    -0.006    21.369     6.866
    17   6 C        3.078     0.050    26.793     8.486
    18   6 C        2.909    -0.039    28.969     8.826
    19   6 C        2.922    -0.032    28.800     8.801
    20   6 C        2.920    -0.033    28.812     8.802
    21   6 C        2.912    -0.030    28.737     8.790
    22   6 C        3.066    -0.009    28.173     8.704
    23   6 C        3.065    -0.011    28.223     8.711
    24   6 C        2.912    -0.029    28.721     8.788
    25   6 C        2.920    -0.033    28.828     8.805
    26   6 C        2.923    -0.030    28.741     8.792
    27   6 C        2.910    -0.042    29.036     8.836
    28   6 C        3.079     0.049    26.819     8.490
    29   6 C        2.886    -0.065    29.618     8.922
    30   6 C        2.966     0.010    27.800     8.648
    31   6 C        3.759    -0.113    22.705     6.793
    32   6 C        2.931    -0.056    29.403     8.893
    33   6 C        2.961     0.007    27.855     8.657
    34   6 C        3.757    -0.106    22.575     6.774
    35   6 C        2.933    -0.057    29.409     8.894
    36   6 C        2.965     0.010    27.787     8.646
    37   6 C        3.760    -0.109    22.636     6.783
    38   6 C        2.963     0.016    27.641     8.624
    39   6 C        3.759    -0.114    22.724     6.796
    40   6 C        2.927    -0.055    29.366     8.887
    41   1 H        0.925     0.052     2.295     2.369
    42   1 H        0.924     0.056     2.243     2.342
    43   1 H        0.925     0.048     2.346     2.395
    44   1 H        0.926     0.031     2.569     2.506
    45   1 H        0.925     0.042     2.428     2.437
    46   1 H        0.925     0.055     2.254     2.348
    47   1 H        0.925     0.059     2.212     2.326
    48   1 H        0.926     0.033     2.545     2.495
    49   1 H        0.926     0.013     2.842     2.636
    50   1 H        0.925     0.020     2.732     2.585
    51   1 H        0.926     0.040     2.446     2.446
    52   1 H        0.926     0.039     2.461     2.453
    53   1 H        0.926     0.041     2.437     2.441
    54   1 H        0.926     0.044     2.394     2.420
    55   1 H        0.926     0.044     2.399     2.422
    56   1 H        0.926     0.041     2.431     2.438
    57   1 H        0.926     0.043     2.412     2.428
    58   1 H        0.926     0.043     2.404     2.425
    59   1 H        0.925     0.038     2.477     2.461
    60   1 H        0.925     0.047     2.361     2.403
    61   1 H        0.925     0.053     2.283     2.363
    62   1 H        0.925     0.024     2.679     2.559
    63   1 H        0.924     0.043     2.405     2.425
    64   1 H        0.925     0.042     2.417     2.431
    65   1 H        0.925     0.039     2.467     2.456
    66   1 H        0.925     0.023     2.681     2.561
    67   1 H        0.924     0.043     2.408     2.427
    68   1 H        0.925     0.046     2.376     2.411
    69   1 H        0.925     0.038     2.471     2.458
    70   1 H        0.924     0.055     2.254     2.348
    71   1 H        0.925     0.048     2.346     2.395
    72   1 H        0.925     0.044     2.393     2.419
    73   1 H        0.925     0.029     2.595     2.519

molecular dipole:
                 x           y           z       tot (Debye)
 q only:        0.448       4.488       0.218
   full:        0.281       4.707       0.304      12.011

 projected vibrational frequencies (cm⁻¹)
eigval :       -0.00    -0.00    -0.00     0.00     0.00     0.00
eigval :       13.44    28.98    30.63    36.52    39.66    43.91
eigval :       50.33    51.87    53.64    67.95    81.19    85.40
eigval :       99.46   104.76   106.94   116.88   135.00   136.13
eigval :      139.11   149.59   158.48   164.99   166.45   176.14
eigval :      179.46   188.18   189.92   203.79   210.56   214.32
eigval :      250.48   272.26   275.91   278.38   288.02   299.72
eigval :      305.05   322.19   324.50   351.37   378.94   390.23
eigval :      403.99   424.38   428.85   433.61   441.70   455.50
eigval :      474.90   481.53   484.85   496.20   499.49   511.77
eigval :      512.56   515.51   527.18   528.88   535.82   538.69
eigval :      561.80   565.45   577.75   584.12   599.32   600.06
eigval :      605.09   612.14   649.71   665.17   669.79   673.93
eigval :      682.10   708.17   752.52   771.56   780.15   797.29
eigval :      802.02   836.49   839.95   851.41   858.06   865.74
eigval :      872.41   874.12   878.05   880.97   894.25   903.93
eigval :      906.59   911.90   923.85   927.23   960.79   961.95
eigval :      967.16   972.21   973.38  1010.19  1010.79  1017.67
eigval :     1021.09  1023.39  1026.26  1028.00  1029.86  1033.61
eigval :     1036.88  1037.77  1040.26  1041.99  1059.31  1063.84
eigval :     1066.82  1085.23  1123.18  1132.45  1137.35  1166.64
eigval :     1174.02  1175.94  1193.46  1196.12  1205.00  1212.73
eigval :     1222.30  1225.12  1229.22  1233.72  1258.69  1272.93
eigval :     1282.71  1290.98  1295.23  1305.84  1316.24  1329.43
eigval :     1333.59  1337.93  1364.29  1376.64  1392.42  1393.33
eigval :     1394.40  1399.03  1399.83  1401.11  1404.29  1408.69
eigval :     1415.71  1418.00  1420.80  1425.44  1436.04  1448.93
eigval :     1457.23  1460.87  1464.35  1468.98  1471.13  1474.25
eigval :     1476.90  1478.34  1478.95  1479.40  1480.86  1483.74
eigval :     1485.79  1489.27  1498.96  1542.66  1552.91  1566.01
eigval :     1574.66  1575.81  1579.33  1581.83  1600.41  2268.39
eigval :     2982.10  2987.80  2988.28  2990.97  3008.42  3011.80
eigval :     3015.59  3017.66  3022.16  3026.28  3030.44  3031.63
eigval :     3036.66  3036.78  3041.45  3049.32  3051.17  3053.27
eigval :     3055.63  3056.29  3063.56  3065.32  3067.10  3067.46
eigval :     3077.33  3077.69  3080.60  3084.47  3088.38  3092.30
eigval :     3096.45  3097.82  3119.47

   temp. (K)  partition function   enthalpy   heat capacity  entropy
                                   cal/mol     cal/K/mol   cal/K/mol   J/K/mol
 298.15  VIB  0.360E+17            22183.755    134.464    139.009
         ROT  0.300E+08              888.752      2.981     37.197
         INT  0.108E+25            23072.507    137.445    176.205
         TR   0.114E+29             1481.254      4.968     44.592
         TOT                       24553.7612   142.4134   220.7969   923.8144

       T/K    H(0)-H(T)+PV         H(T)/Eh          T*S/Eh         G(T)/Eh
   ------------------------------------------------------------------------
    298.15    0.391289E-01    0.617602E+00    0.104908E+00    0.512694E+00
   ------------------------------------------------------------------------

         :::::::::::::::::::::::::::::::::::::::::::::::::::::
         ::                  THERMODYNAMIC                  ::
         :::::::::::::::::::::::::::::::::::::::::::::::::::::
         :: total free energy        -102.596470423012 Eh   ::
         ::.................................................::
         :: total energy             -103.109164377959 Eh   ::
         :: zero point energy           0.578472800310 Eh   ::
         :: G(RRHO) w/o ZPVE           -0.065778845363 Eh   ::
         :: G(RRHO) contrib.            0.512693954947 Eh   ::
         :::::::::::::::::::::::::::::::::::::::::::::::::::::

           -------------------------------------------------
          | TOTAL ENERGY             -103.109164377959 Eh   |
          | TOTAL ENTHALPY           -102.491562668443 Eh   |
          | TOTAL FREE ENERGY        -102.596470423012 Eh   |
          | GRADIENT NORM               0.000152633515 Eh/α |
          | HOMO-LUMO GAP               0.676750520510 eV   |
           -------------------------------------------------

 * finished run on 2025/08/24 at 01:09:16.560
