   * xtb version 6.7.1 (edcfbbe) compiled by 'albert@albert-system' on 2024-07-22

   ID    Z sym.   atoms
    1    6 C      1-6, 8-12, 14, 15, 17-40
    2    5 B      7
    3    7 N      13, 16
    4    1 H      41-73

          program call               : xtb data2507/toluene/CzCNoB/CzCNoB.xyz --gfn 2 --gbsa toluene --ohess vtight --parallel 40 --molden --ceasefiles --namespace data2507/toluene/CzCNoB/CzCNoB_toluene_S0_preOpt
      * Solvation model:               GBSA
        Solvent                        toluene
        Solvent mass                       9.2140E+01 g/mol
          :  Hamiltonian                  GFN2-xTB          :
 * total energy  :  -103.1334485 Eh     change       -0.4097586E-08 Eh
 * total energy  :  -103.1689318 Eh     change       -0.3548330E-01 Eh
 * total energy  :  -103.1777643 Eh     change       -0.8832526E-02 Eh
 * total energy  :  -103.1800475 Eh     change       -0.2283220E-02 Eh
 * total energy  :  -103.1814660 Eh     change       -0.1418483E-02 Eh
 * total energy  :  -103.1820981 Eh     change       -0.6320811E-03 Eh
 * total energy  :  -103.1824525 Eh     change       -0.3544308E-03 Eh
 * total energy  :  -103.1826530 Eh     change       -0.2005003E-03 Eh
 * total energy  :  -103.1829134 Eh     change       -0.2603638E-03 Eh
 * total energy  :  -103.1831253 Eh     change       -0.2119667E-03 Eh
 * total energy  :  -103.1871790 Eh     change       -0.4872640E-06 Eh
 * total energy  :  -103.1871794 Eh     change       -0.4272763E-06 Eh
 * total energy  :  -103.1871798 Eh     change       -0.4219754E-06 Eh
 * total energy  :  -103.1871802 Eh     change       -0.3881765E-06 Eh
 * total energy  :  -103.1871806 Eh     change       -0.3334089E-06 Eh
 * total energy  :  -103.1871810 Eh     change       -0.4860429E-06 Eh
 * total energy  :  -103.1871810 Eh     change        0.9492553E-08 Eh
 * total energy  :  -103.1871812 Eh     change       -0.1227214E-06 Eh
 * total energy  :  -103.1871812 Eh     change       -0.7257644E-07 Eh
   *** GEOMETRY OPTIMIZATION CONVERGED AFTER 130 ITERATIONS ***

 final structure:
================
73
 xtb: 6.7.1 (edcfbbe)
C            3.36409985698759        3.59527585030782       -1.17097085445368
C            2.20823452045378        2.72168557287054       -0.78883627029279
C            1.34484919300074        2.22712296529295       -1.75835785558804
C            0.26962924623976        1.42006029922650       -1.43277801518340
C           -0.64755539680503        0.96301689343335       -2.52963446565423
C            0.03580169252733        1.04989194063267       -0.09356759579931
B           -1.09749496209673        0.02162046057987        0.24413815490235
C           -0.77078613676504       -1.24436920358610        1.13393995137291
C           -1.79964710580465       -1.75053396036272        1.94366433546790
C           -1.61536901770324       -2.79154763744907        2.82776984127771
C           -0.35813797813455       -3.39227963815658        2.92048281381149
C           -0.14248770640015       -4.46601133759774        3.81116393900731
N            0.03163566763232       -5.33629986602285        4.53939392472781
C            0.68690321670399       -2.92689430587432        2.12576594178366
C            0.49078098392142       -1.86295407313405        1.25329818547303
N            1.61721380317934       -1.42139426666971        0.53360936896519
C            2.77749215623592       -0.95962499822605        1.12410993738175
C            3.09157779061310       -0.82273523234757        2.46878207839510
C            4.33522579456413       -0.31549879336004        2.79473421411813
C            5.25070311143088        0.05195615036830        1.81079929642553
C            4.94564141572976       -0.08678119596424        0.47134330675866
C            3.70323377038374       -0.59791838686809        0.11960770555650
C            3.07987292014631       -0.90514901004564       -1.13617421335875
C            3.50752457680467       -0.83913395248994       -2.45545633697971
C            2.67119407201272       -1.31001015140023       -3.44795105694516
C            1.43018335141793       -1.85919924040654       -3.13535613633613
C            0.98007770930410       -1.92638355900781       -1.83039769661829
C            1.80011543295310       -1.42340881581715       -0.83293478425744
C           -2.59131502823849        0.25027097276738       -0.18963915284356
C           -3.23177589772326        1.46432233907205        0.13135688331750
C           -2.50779086874107        2.55139789249607        0.87137613673627
C           -4.56365238045063        1.66976919785747       -0.19234630160905
C           -5.31195285341393        0.70753002648961       -0.85355150705335
C           -6.74581296151909        0.94248763491753       -1.21943362370570
C           -4.68565879901657       -0.48562141470087       -1.17652520667395
C           -3.35782300151108       -0.72527604551089       -0.85299221851226
C           -2.77405158454011       -2.03454806394602       -1.30038962554871
C            0.87424259593470        1.59898343024344        0.88869690828612
C            0.60109167439540        1.42621218635426        2.35578352524785
C            1.94039182406176        2.41421692449195        0.53317151802249
H            3.92305287570573        3.15139707483050       -1.99301613970897
H            4.03491946401957        3.74292811036860       -0.32794559922156
H            3.00542376046829        4.57079053694108       -1.50168247860878
H            1.51992563590906        2.48075955305869       -2.79525913532764
H           -0.23557533017882        1.21882282506569       -3.50322782207929
H           -1.61899182593383        1.44572737184880       -2.42816741324463
H           -0.80012319371780       -0.11067540839953       -2.48905343304315
H           -2.77511318868774       -1.29259169273139        1.87324008691914
H           -2.42816481395499       -3.14838191565971        3.44260551246329
H            1.65976830887183       -3.39364627646203        2.18900598786010
H            2.39230952713023       -1.10750374007866        3.24130511045617
H            4.60349708480019       -0.20288843254526        3.83550555823055
H            6.21242774832983        0.44585981079129        2.10577551439316
H            5.65691227557093        0.19449850006727       -0.29082776672113
H            4.48220343246456       -0.44049690379004       -2.69485092415966
H            2.98696245225792       -1.27118985539460       -4.48034432232013
H            0.81004142147468       -2.24760526797886       -3.93040702030533
H            0.02874662342999       -2.37471620053556       -1.59382468905233
H           -3.16730464270726        3.39854129680062        1.04716084193136
H           -2.15095720884825        2.18705301202128        1.83209824584133
H           -1.64578918619071        2.89411242026037        0.30355971525452
H           -5.03185415075510        2.60680156000748        0.07791126172063
H           -7.12352941575776        1.85116622749623       -0.75670635443453
H           -6.84562685180243        1.03953834590093       -2.30102665142520
H           -7.36402391263369        0.10323400490035       -0.90351952694978
H           -5.24702086476856       -1.25226860604441       -1.69365506151884
H           -2.41597145712214       -1.94725343731359       -2.32744015159848
H           -1.94485687091232       -2.33857008743721       -0.66996679146579
H           -3.53230251695712       -2.81540114757490       -1.28143752503159
H            0.16560815364805        2.34552461736474        2.75064656731236
H           -0.09219040098909        0.61308668161271        2.54841347647348
H            1.52795386221294        1.24522647638517        2.89637654855950
H            2.57324250788679        2.81586995781359        1.31306332920781

          :  Hamiltonian                  GFN2-xTB          :
         :: gradient norm              0.000065340806 Eh/a0 ::
         :: HOMO-LUMO gap              1.843247385547 eV    ::
         :: SCC energy              -105.103438094088 Eh    ::
         :: -> dispersion             -0.110128714017 Eh    ::
         :: -> Gsolv                  -0.039033505691 Eh    ::
         :: repulsion energy           1.916256862530 Eh    ::

    * Orbital Energies and Occupations

         #    Occupation            Energy/Eh            Energy/eV
      -------------------------------------------------------------
         1        2.0000           -0.6761509             -18.3990
       ...           ...                  ...                  ...
        85        2.0000           -0.4184852             -11.3876
        86        2.0000           -0.4169573             -11.3460
        87        2.0000           -0.4147000             -11.2846
        88        2.0000           -0.4127182             -11.2306
        89        2.0000           -0.4056662             -11.0387
        90        2.0000           -0.4045274             -11.0078
        91        2.0000           -0.3967654             -10.7965
        92        2.0000           -0.3834019             -10.4329
        93        2.0000           -0.3827271             -10.4145
        94        2.0000           -0.3774264             -10.2703
        95        2.0000           -0.3754911             -10.2176
        96        2.0000           -0.3724166             -10.1340
        97        2.0000           -0.3620273              -9.8513 (HOMO)
        98                         -0.2942892              -8.0080 (LUMO)
        99                         -0.2508094              -6.8249
       100                         -0.2473773              -6.7315
       101                         -0.2423507              -6.5947
       102                         -0.2224800              -6.0540
       103                         -0.2165316              -5.8921
       104                         -0.2130977              -5.7987
       105                         -0.2094626              -5.6998
       106                         -0.2061571              -5.6098
       107                         -0.1978089              -5.3827
       108                         -0.1908803              -5.1941
       ...                                ...                  ...
       193                          1.1563965              31.4672
      -------------------------------------------------------------
                  HL-Gap            0.0677381 Eh            1.8432 eV

     #   Z          covCN         q      C6AA      α(0)
     1   6 C        3.757    -0.106    22.576     6.774
     2   6 C        2.963     0.013    27.722     8.636
     3   6 C        2.930    -0.056    29.393     8.891
     4   6 C        2.967     0.012    27.741     8.639
     5   6 C        3.759    -0.112    22.700     6.792
     6   6 C        2.889    -0.083    30.062     8.989
     7   5 B        2.707     0.256    17.635     7.043
     8   6 C        2.880    -0.063    29.554     8.912
     9   6 C        2.925    -0.025    28.637     8.776
    10   6 C        2.920    -0.024    28.610     8.771
    11   6 C        2.972     0.018    27.608     8.619
    12   6 C        1.912     0.119    28.179     8.573
    13   7 N        0.911    -0.269    26.971     7.511
    14   6 C        2.930    -0.033    28.815     8.803
    15   6 C        2.912     0.070    26.444     8.432
    16   7 N        2.804    -0.048    22.173     6.994
    17   6 C        3.082     0.050    26.789     8.485
    18   6 C        2.910    -0.051    29.263     8.870
    19   6 C        2.924    -0.036    28.891     8.815
    20   6 C        2.920    -0.042    29.055     8.839
    21   6 C        2.913    -0.034    28.836     8.805
    22   6 C        3.068    -0.016    28.344     8.730
    23   6 C        3.070    -0.017    28.357     8.732
    24   6 C        2.913    -0.034    28.840     8.806
    25   6 C        2.920    -0.042    29.046     8.838
    26   6 C        2.924    -0.034    28.838     8.806
    27   6 C        2.911    -0.053    29.322     8.879
    28   6 C        3.078     0.050    26.793     8.486
    29   6 C        2.886    -0.083    30.076     8.991
    30   6 C        2.967     0.013    27.712     8.635
    31   6 C        3.759    -0.115    22.752     6.800
    32   6 C        2.929    -0.056    29.403     8.893
    33   6 C        2.962     0.014    27.707     8.634
    34   6 C        3.757    -0.108    22.613     6.780
    35   6 C        2.931    -0.058    29.437     8.898
    36   6 C        2.966     0.012    27.740     8.639
    37   6 C        3.760    -0.109    22.631     6.782
    38   6 C        2.967     0.011    27.757     8.642
    39   6 C        3.759    -0.109    22.636     6.783
    40   6 C        2.930    -0.056    29.390     8.891
    41   1 H        0.925     0.043     2.409     2.427
    42   1 H        0.925     0.039     2.464     2.455
    43   1 H        0.924     0.046     2.374     2.409
    44   1 H        0.925     0.023     2.691     2.565
    45   1 H        0.925     0.037     2.495     2.470
    46   1 H        0.925     0.049     2.329     2.386
    47   1 H        0.925     0.046     2.375     2.410
    48   1 H        0.926     0.054     2.269     2.355
    49   1 H        0.926     0.045     2.388     2.417
    50   1 H        0.926     0.043     2.405     2.425
    51   1 H        0.926     0.025     2.653     2.547
    52   1 H        0.926     0.028     2.613     2.528
    53   1 H        0.926     0.027     2.622     2.532
    54   1 H        0.926     0.031     2.575     2.509
    55   1 H        0.926     0.029     2.593     2.518
    56   1 H        0.926     0.028     2.616     2.529
    57   1 H        0.926     0.030     2.580     2.512
    58   1 H        0.926     0.029     2.606     2.525
    59   1 H        0.925     0.039     2.465     2.455
    60   1 H        0.925     0.045     2.379     2.412
    61   1 H        0.925     0.051     2.310     2.377
    62   1 H        0.925     0.024     2.674     2.557
    63   1 H        0.925     0.040     2.452     2.449
    64   1 H        0.924     0.046     2.368     2.406
    65   1 H        0.925     0.044     2.393     2.419
    66   1 H        0.925     0.025     2.653     2.547
    67   1 H        0.924     0.044     2.398     2.422
    68   1 H        0.925     0.039     2.465     2.455
    69   1 H        0.925     0.041     2.437     2.441
    70   1 H        0.924     0.046     2.368     2.407
    71   1 H        0.925     0.036     2.506     2.476
    72   1 H        0.925     0.041     2.431     2.438
    73   1 H        0.925     0.021     2.718     2.578

molecular dipole:
                 x           y           z       tot (Debye)
 q only:       -0.896       1.340      -0.979
   full:       -0.948       1.556      -1.152       5.479

 projected vibrational frequencies (cm⁻¹)
eigval :       -0.00    -0.00    -0.00     0.00     0.00     0.00
eigval :       14.85    23.82    29.68    36.83    40.29    44.57
eigval :       50.86    54.59    63.00    81.01    90.59    97.43
eigval :      101.14   103.97   117.64   122.14   127.60   136.65
eigval :      139.52   143.80   158.95   164.51   167.68   176.29
eigval :      181.94   187.69   195.21   201.37   203.31   213.22
eigval :      248.00   272.49   274.23   277.96   284.12   310.40
eigval :      322.34   327.50   330.83   342.92   388.43   398.85
eigval :      411.10   426.53   436.47   447.69   451.63   463.54
eigval :      486.30   489.14   496.52   498.45   508.59   513.55
eigval :      519.01   527.41   537.05   540.38   540.69   544.49
eigval :      568.37   582.91   588.55   596.73   601.27   604.29
eigval :      620.26   629.06   671.53   674.96   680.69   690.72
eigval :      703.86   707.13   755.03   770.89   782.21   806.16
eigval :      831.23   838.93   840.87   866.90   872.67   874.96
eigval :      885.61   887.98   889.12   889.50   898.80   902.38
eigval :      906.80   922.57   924.26   929.15   963.01   964.00
eigval :      974.07   976.81   987.04  1012.46  1020.23  1023.27
eigval :     1028.56  1029.45  1030.44  1032.87  1033.59  1034.04
eigval :     1040.25  1040.84  1042.82  1043.48  1068.23  1069.99
eigval :     1072.13  1109.68  1143.40  1150.92  1160.04  1172.30
eigval :     1178.55  1180.16  1183.16  1205.99  1214.46  1220.22
eigval :     1234.66  1235.44  1236.49  1241.40  1258.88  1288.36
eigval :     1300.63  1301.54  1302.20  1302.90  1328.69  1337.02
eigval :     1339.53  1359.64  1363.24  1392.03  1397.10  1398.70
eigval :     1401.17  1401.85  1403.07  1407.47  1424.37  1427.61
eigval :     1427.94  1432.04  1446.75  1451.99  1457.64  1473.24
eigval :     1475.17  1476.99  1477.83  1479.41  1479.50  1482.22
eigval :     1483.22  1485.77  1486.80  1487.97  1489.11  1491.75
eigval :     1496.49  1518.08  1555.11  1558.30  1565.32  1574.53
eigval :     1590.81  1598.88  1599.07  1602.03  1615.50  2361.53
eigval :     2984.47  2985.42  2993.32  2994.47  3008.74  3015.42
eigval :     3021.17  3024.10  3025.25  3028.20  3029.24  3033.10
eigval :     3037.72  3038.06  3038.70  3055.41  3056.31  3058.41
eigval :     3060.40  3061.41  3062.01  3063.02  3068.65  3070.38
eigval :     3074.14  3077.15  3080.79  3082.50  3085.09  3087.33
eigval :     3090.71  3095.72  3110.86

   temp. (K)  partition function   enthalpy   heat capacity  entropy
                                   cal/mol     cal/K/mol   cal/K/mol   J/K/mol
 298.15  VIB  0.182E+17            21926.315    133.430    137.175
         ROT  0.305E+08              888.752      2.981     37.227
         INT  0.556E+24            22815.067    136.411    174.403
         TR   0.114E+29             1481.254      4.968     44.592
         TOT                       24296.3210   141.3787   218.9945   916.2732

       T/K    H(0)-H(T)+PV         H(T)/Eh          T*S/Eh         G(T)/Eh
   ------------------------------------------------------------------------
    298.15    0.387187E-01    0.620773E+00    0.104051E+00    0.516721E+00
   ------------------------------------------------------------------------

         :::::::::::::::::::::::::::::::::::::::::::::::::::::
         ::                  THERMODYNAMIC                  ::
         :::::::::::::::::::::::::::::::::::::::::::::::::::::
         :: total free energy        -102.670459898068 Eh   ::
         ::.................................................::
         :: total energy             -103.187181237356 Eh   ::
         :: zero point energy           0.582054063888 Eh   ::
         :: G(RRHO) w/o ZPVE           -0.065332724599 Eh   ::
         :: G(RRHO) contrib.            0.516721339288 Eh   ::
         :::::::::::::::::::::::::::::::::::::::::::::::::::::

           -------------------------------------------------
          | TOTAL ENERGY             -103.187181237356 Eh   |
          | TOTAL ENTHALPY           -102.566408521337 Eh   |
          | TOTAL FREE ENERGY        -102.670459898068 Eh   |
          | GRADIENT NORM               0.000065549112 Eh/α |
          | HOMO-LUMO GAP               1.843248139288 eV   |
           -------------------------------------------------

 * finished run on 2025/08/24 at 01:04:27.780
