   * xtb version 6.7.1 (edcfbbe) compiled by 'albert@albert-system' on 2024-07-22

   ID    Z sym.   atoms
    1    6 C      1-6, 8-12, 14, 15, 17-40
    2    5 B      7
    3    7 N      13, 16
    4    1 H      41-73

          program call               : xtb data2507/toluene/CzCNoB/CzCNoB_toluene_T1_crest.xyz --gfn 2 --uhf 2 --gbsa toluene --ohess vtight --parallel 40 --molden --ceasefiles --namespace data2507/toluene/CzCNoB/CzCNoB_toluene_T1_finalOpt
      * Solvation model:               GBSA
        Solvent                        toluene
        Solvent mass                       9.2140E+01 g/mol
          :  Hamiltonian                  GFN2-xTB          :
 * total energy  :  -103.1087088 Eh     change       -0.4517105E-08 Eh
 * total energy  :  -103.1088538 Eh     change       -0.1450447E-03 Eh
 * total energy  :  -103.1089305 Eh     change       -0.7665706E-04 Eh
 * total energy  :  -103.1089616 Eh     change       -0.3111222E-04 Eh
 * total energy  :  -103.1089820 Eh     change       -0.2037310E-04 Eh
 * total energy  :  -103.1090168 Eh     change       -0.3484943E-04 Eh
 * total energy  :  -103.1090370 Eh     change       -0.2019272E-04 Eh
 * total energy  :  -103.1090776 Eh     change       -0.4057198E-04 Eh
 * total energy  :  -103.1090917 Eh     change       -0.1412195E-04 Eh
 * total energy  :  -103.1091077 Eh     change       -0.1601555E-04 Eh
 * total energy  :  -103.1091547 Eh     change       -0.5687815E-06 Eh
 * total energy  :  -103.1091552 Eh     change       -0.4152878E-06 Eh
 * total energy  :  -103.1091556 Eh     change       -0.4502306E-06 Eh
 * total energy  :  -103.1091559 Eh     change       -0.2878259E-06 Eh
 * total energy  :  -103.1091562 Eh     change       -0.3096139E-06 Eh
 * total energy  :  -103.1091565 Eh     change       -0.2568110E-06 Eh
 * total energy  :  -103.1091567 Eh     change       -0.2531260E-06 Eh
 * total energy  :  -103.1091567 Eh     change       -0.1514807E-07 Eh
 * total energy  :  -103.1091568 Eh     change       -0.5969436E-07 Eh
   *** GEOMETRY OPTIMIZATION CONVERGED AFTER 37 ITERATIONS ***

 final structure:
================
73
 xtb: 6.7.1 (edcfbbe)
C            2.80211411090412        3.99584032306478        1.34548146075349
C            1.70025024316481        3.00974385439863        1.13286651619820
C            0.69356546429844        3.23660586728903        0.19653083496667
C           -0.32803008422227        2.32991546861173       -0.00146504097510
C           -1.40159970916470        2.64073227336384       -0.99565957571357
C           -0.34890333508715        1.10724333928925        0.71297441213476
B           -1.32491062720650       -0.05164520569381        0.31314864277450
C           -0.81250873090861       -1.44181532720537       -0.01938626123429
C           -1.66760308452341       -2.58176974140884        0.06711390378292
C           -1.22806966737112       -3.86522488390179       -0.01041960905417
C            0.15200095910296       -4.13614474754614       -0.23413947207980
C            0.61949847416935       -5.43853423570120       -0.34245401267610
N            1.00879049323616       -6.52732631753545       -0.41766198984099
C            1.02352305057974       -3.04351508105254       -0.38425872239509
C            0.57332012901191       -1.74609246030978       -0.31326795994671
N            1.52127190520702       -0.73099045066753       -0.50071950685587
C            2.71451898358923       -0.62481781926218        0.18130347872818
C            3.20843309685516       -1.39735877326185        1.22595960056011
C            4.44117049410086       -1.05923656038745        1.75424645800879
C            5.17082916332611        0.01932960201644        1.26066682680579
C            4.68791663629207        0.78882482274575        0.21478172550154
C            3.45559708004091        0.46849274250267       -0.32967887911946
C            2.68154706553255        1.00890417998794       -1.41701763705717
C            2.90627587611687        2.01956527404568       -2.33706276364754
C            1.97104149916143        2.22287760271693       -3.33788429296709
C            0.84156719119901        1.41663721961910       -3.43803292592531
C            0.59592256841082        0.40491280922963       -2.52696404447752
C            1.50878138887104        0.22314050232489       -1.49905225229797
C           -2.89553438655905        0.21641427330399        0.28226477454385
C           -3.52941849167278        0.76089872357030        1.41267330455540
C           -2.76444689805235        1.05522533451165        2.66763637499985
C           -4.89510946836090        0.99720939818072        1.40468069737002
C           -5.67902851294760        0.71451300299331        0.29443781131399
C           -7.15620678875063        0.97184790965595        0.31593342587960
C           -5.05313377112821        0.17694469230848       -0.81515837898591
C           -3.68453971605758       -0.07484323668928       -0.83853868347636
C           -3.12523162835322       -0.60511208225352       -2.12798743447612
C            0.60650458650642        0.93724834286342        1.74527186161394
C            0.53187334000886       -0.20564283066718        2.71140823443401
C            1.62033936873618        1.86312274105132        1.91445026200680
H            2.86320466970721        4.69908066111415        0.51877866864662
H            3.75469206293236        3.47981998291453        1.45173743740462
H            2.62822323159802        4.56008651441215        2.26300705385136
H            0.71581478265565        4.14491804617843       -0.38939190565340
H           -1.15247712859946        3.53037680354884       -1.56911798399263
H           -2.34880561339762        2.80897923588391       -0.48420501480092
H           -1.53997454190000        1.80576280398037       -1.67650846419601
H           -2.71743586512099       -2.39858124639580        0.24664148931708
H           -1.91022861885464       -4.69753142343888        0.09313370870284
H            2.06261934583167       -3.23342157744265       -0.62071883740167
H            2.65365372196349       -2.24030240705187        1.60857499701908
H            4.84662141100389       -1.64673461467737        2.56476279711799
H            6.13028086383015        0.25192714609592        1.69833492058625
H            5.26066841784934        1.61763235613050       -0.17226246295389
H            3.79817728142844        2.62460382724593       -2.28217846666529
H            2.12830946713366        3.00525687093929       -4.06539725121976
H            0.14671809588233        1.57830544369104       -4.24849824977292
H           -0.26549056355910       -0.23499552794441       -2.62163138845778
H           -1.92982309723413        1.72174389494727        2.45931234032994
H           -3.40648854732492        1.52081003614007        3.41220060806242
H           -2.36310770891525        0.13286105750895        3.08411075409082
H           -5.36488875103028        1.40191785782201        2.29131261719261
H           -7.57804297727633        0.90367949828948       -0.68410368759704
H           -7.65541281004492        0.23769753178990        0.94970211256541
H           -7.36770715404323        1.96022997169568        0.72122575990464
H           -5.63533790663320       -0.04560591985504       -1.69960448368031
H           -3.04375591113970        0.20153375091625       -2.85840004720855
H           -2.14620297725935       -1.04811880311382       -1.98122367272183
H           -3.78768277384538       -1.36202510141575       -2.54542943887906
H           -0.02215141853729       -1.04503846679464        2.30130340882709
H            1.52953955543425       -0.53118873403735        2.99777332821722
H            0.02309469316169        0.12356882656040        3.61862764467269
H            2.36510822454708        1.69419035846006        2.68006182486363

          :  Hamiltonian                  GFN2-xTB          :
         :: gradient norm              0.000068686417 Eh/a0 ::
         :: HOMO-LUMO gap              0.675980744108 eV    ::
         :: SCC energy              -105.013649051920 Eh    ::
         :: -> dispersion             -0.112297584513 Eh    ::
         :: -> Gsolv                  -0.043839821336 Eh    ::
         :: repulsion energy           1.904492166113 Eh    ::

    * Orbital Energies and Occupations

         #    Occupation            Energy/Eh            Energy/eV
      -------------------------------------------------------------
         1        2.0000           -0.6868881             -18.6912
       ...           ...                  ...                  ...
        86        2.0000           -0.4143683             -11.2755
        87        2.0000           -0.4077519             -11.0955
        88        2.0000           -0.4053118             -11.0291
        89        2.0000           -0.3979142             -10.8278
        90        2.0000           -0.3960220             -10.7763
        91        2.0000           -0.3941994             -10.7267
        92        2.0000           -0.3926677             -10.6850
        93        2.0000           -0.3837828             -10.4433
        94        2.0000           -0.3807163             -10.3598
        95        2.0000           -0.3777664             -10.2795
        96        1.9962           -0.3735448             -10.1647
        97        1.0038           -0.3629564              -9.8765
        98        1.0000           -0.2800951              -7.6218 (HOMO)
        99        0.0000           -0.2552529              -6.9458 (LUMO)
       100                         -0.2363619              -6.4317
       101                         -0.2321655              -6.3175
       102                         -0.2240913              -6.0978
       103                         -0.2160567              -5.8792
       104                         -0.2140571              -5.8248
       105                         -0.2080373              -5.6610
       106                         -0.2015179              -5.4836
       107                         -0.1965808              -5.3492
       108                         -0.1875176              -5.1026
       109                         -0.1849244              -5.0320
       ...                                ...                  ...
       193                          1.1691477              31.8141
      -------------------------------------------------------------
                  HL-Gap            0.0248422 Eh            0.6760 eV

     #   Z          covCN         q      C6AA      α(0)
     1   6 C        3.758    -0.110    22.655     6.786
     2   6 C        2.963     0.024    27.473     8.597
     3   6 C        2.926    -0.053    29.306     8.878
     4   6 C        2.964     0.017    27.634     8.622
     5   6 C        3.759    -0.115    22.754     6.801
     6   6 C        2.888    -0.061    29.511     8.906
     7   5 B        2.709     0.196    18.468     7.207
     8   6 C        2.879    -0.083    30.073     8.990
     9   6 C        2.915    -0.040    28.993     8.830
    10   6 C        2.913    -0.035    28.874     8.811
    11   6 C        2.966    -0.021    28.530     8.761
    12   6 C        1.910     0.098    28.655     8.645
    13   7 N        0.911    -0.357    29.181     7.813
    14   6 C        2.925    -0.039    28.976     8.828
    15   6 C        2.905     0.045    26.990     8.519
    16   7 N        2.803    -0.006    21.370     6.866
    17   6 C        3.078     0.050    26.793     8.486
    18   6 C        2.909    -0.039    28.968     8.825
    19   6 C        2.922    -0.032    28.800     8.801
    20   6 C        2.920    -0.033    28.812     8.802
    21   6 C        2.912    -0.030    28.738     8.790
    22   6 C        3.066    -0.009    28.174     8.704
    23   6 C        3.066    -0.011    28.223     8.711
    24   6 C        2.912    -0.029    28.720     8.788
    25   6 C        2.920    -0.033    28.828     8.805
    26   6 C        2.923    -0.030    28.741     8.792
    27   6 C        2.910    -0.042    29.036     8.836
    28   6 C        3.079     0.049    26.819     8.490
    29   6 C        2.886    -0.065    29.618     8.922
    30   6 C        2.966     0.010    27.800     8.648
    31   6 C        3.759    -0.113    22.705     6.793
    32   6 C        2.931    -0.056    29.403     8.893
    33   6 C        2.961     0.007    27.855     8.657
    34   6 C        3.757    -0.106    22.575     6.774
    35   6 C        2.933    -0.057    29.409     8.894
    36   6 C        2.965     0.010    27.788     8.646
    37   6 C        3.760    -0.109    22.637     6.783
    38   6 C        2.963     0.016    27.641     8.624
    39   6 C        3.759    -0.114    22.723     6.796
    40   6 C        2.927    -0.055    29.367     8.887
    41   1 H        0.925     0.048     2.350     2.397
    42   1 H        0.925     0.053     2.289     2.366
    43   1 H        0.924     0.056     2.246     2.344
    44   1 H        0.926     0.031     2.570     2.507
    45   1 H        0.925     0.042     2.427     2.436
    46   1 H        0.925     0.055     2.254     2.348
    47   1 H        0.925     0.059     2.212     2.326
    48   1 H        0.926     0.033     2.546     2.495
    49   1 H        0.926     0.013     2.842     2.636
    50   1 H        0.925     0.020     2.733     2.585
    51   1 H        0.926     0.040     2.447     2.446
    52   1 H        0.926     0.039     2.461     2.453
    53   1 H        0.926     0.041     2.437     2.441
    54   1 H        0.926     0.044     2.396     2.421
    55   1 H        0.926     0.044     2.398     2.422
    56   1 H        0.926     0.041     2.431     2.438
    57   1 H        0.926     0.043     2.412     2.429
    58   1 H        0.926     0.043     2.403     2.424
    59   1 H        0.925     0.053     2.284     2.363
    60   1 H        0.925     0.038     2.477     2.461
    61   1 H        0.925     0.047     2.360     2.402
    62   1 H        0.925     0.024     2.679     2.560
    63   1 H        0.925     0.039     2.465     2.455
    64   1 H        0.924     0.043     2.405     2.425
    65   1 H        0.925     0.042     2.418     2.432
    66   1 H        0.925     0.023     2.681     2.560
    67   1 H        0.924     0.043     2.409     2.427
    68   1 H        0.925     0.046     2.376     2.410
    69   1 H        0.925     0.038     2.471     2.458
    70   1 H        0.925     0.048     2.346     2.395
    71   1 H        0.925     0.044     2.394     2.419
    72   1 H        0.924     0.055     2.254     2.348
    73   1 H        0.925     0.029     2.594     2.519

molecular dipole:
                 x           y           z       tot (Debye)
 q only:        0.309       4.494       0.267
   full:        0.138       4.706       0.357      12.002

 projected vibrational frequencies (cm⁻¹)
eigval :       -0.00    -0.00    -0.00    -0.00     0.00     0.00
eigval :       19.86    31.70    32.94    39.74    43.32    51.34
eigval :       53.37    56.85    68.69    81.87    83.00    87.48
eigval :      100.16   105.49   108.23   117.73   135.94   138.13
eigval :      140.16   149.75   158.79   165.74   167.54   176.72
eigval :      179.48   189.19   191.03   204.04   210.76   216.11
eigval :      250.98   272.44   275.94   278.10   288.27   300.14
eigval :      305.00   322.39   324.56   351.12   379.45   390.72
eigval :      404.56   425.24   429.39   433.83   441.73   455.29
eigval :      475.04   481.67   484.65   496.34   499.78   511.88
eigval :      512.78   515.62   527.58   529.48   536.76   539.10
eigval :      562.14   565.63   577.90   584.56   599.34   600.01
eigval :      605.34   612.02   649.85   665.40   670.02   674.32
eigval :      682.05   708.16   753.10   771.34   779.78   797.22
eigval :      801.36   837.80   840.80   851.60   858.06   867.14
eigval :      872.78   875.12   879.26   881.01   894.27   904.17
eigval :      906.04   911.72   925.51   926.52   960.64   962.05
eigval :      967.09   972.07   972.55  1010.72  1011.43  1018.46
eigval :     1021.85  1024.15  1026.72  1028.65  1030.41  1033.87
eigval :     1035.76  1037.89  1040.21  1041.55  1059.17  1064.99
eigval :     1067.69  1085.43  1123.07  1132.20  1138.48  1168.05
eigval :     1176.89  1177.82  1193.14  1195.87  1204.52  1212.77
eigval :     1223.53  1225.37  1228.90  1233.32  1258.70  1273.12
eigval :     1282.68  1291.29  1295.37  1306.02  1316.03  1329.32
eigval :     1333.61  1337.91  1364.45  1376.76  1392.31  1393.62
eigval :     1395.17  1399.24  1400.50  1400.87  1403.89  1408.92
eigval :     1415.76  1418.01  1420.91  1425.25  1435.67  1448.77
eigval :     1457.33  1461.39  1464.90  1469.36  1472.54  1473.68
eigval :     1476.52  1478.18  1479.11  1479.86  1480.80  1483.87
eigval :     1486.43  1489.85  1499.36  1542.50  1552.83  1566.08
eigval :     1574.71  1575.75  1579.31  1581.78  1600.49  2268.22
eigval :     2981.75  2987.33  2987.88  2990.71  3008.51  3012.19
eigval :     3016.94  3017.28  3021.85  3022.75  3031.27  3032.34
eigval :     3035.90  3036.51  3042.53  3049.44  3050.61  3053.38
eigval :     3055.54  3056.42  3063.17  3065.08  3065.25  3067.29
eigval :     3077.03  3078.65  3080.15  3084.72  3088.51  3092.24
eigval :     3096.33  3097.81  3119.69

   temp. (K)  partition function   enthalpy   heat capacity  entropy
                                   cal/mol     cal/K/mol   cal/K/mol   J/K/mol
 298.15  VIB  0.858E+16            22074.251    135.249    137.802
         ROT  0.300E+08              888.752      2.981     37.196
         INT  0.257E+24            22963.003    138.230    174.998
         TR   0.114E+29             1481.254      4.968     44.592
         TOT                       24444.2571   143.1985   219.5896   918.7630

       T/K    H(0)-H(T)+PV         H(T)/Eh          T*S/Eh         G(T)/Eh
   ------------------------------------------------------------------------
    298.15    0.389544E-01    0.617677E+00    0.104334E+00    0.513343E+00
   ------------------------------------------------------------------------

         :::::::::::::::::::::::::::::::::::::::::::::::::::::
         ::                  THERMODYNAMIC                  ::
         :::::::::::::::::::::::::::::::::::::::::::::::::::::
         :: total free energy        -102.595814353739 Eh   ::
         ::.................................................::
         :: total energy             -103.109156886471 Eh   ::
         :: zero point energy           0.578722241631 Eh   ::
         :: G(RRHO) w/o ZPVE           -0.065379708898 Eh   ::
         :: G(RRHO) contrib.            0.513342532732 Eh   ::
         :::::::::::::::::::::::::::::::::::::::::::::::::::::

           -------------------------------------------------
          | TOTAL ENERGY             -103.109156886471 Eh   |
          | TOTAL ENTHALPY           -102.491480241626 Eh   |
          | TOTAL FREE ENERGY        -102.595814353739 Eh   |
          | GRADIENT NORM               0.000069629952 Eh/α |
          | HOMO-LUMO GAP               0.675989722411 eV   |
           -------------------------------------------------

 * finished run on 2025/08/24 at 01:14:17.774
