   * xtb version 6.7.1 (edcfbbe) compiled by 'albert@albert-system' on 2024-07-22

   ID    Z sym.   atoms
    1    6 C      1-6, 8-12, 14, 15, 17-40
    2    5 B      7
    3    7 N      13, 16
    4    1 H      41-73

          program call               : xtb data2507/toluene/CzCNoB/CzCNoB_toluene_S0_crest.xyz --gfn 2 --gbsa toluene --ohess vtight --parallel 40 --molden --ceasefiles --namespace data2507/toluene/CzCNoB/CzCNoB_toluene_S0_finalOpt
      * Solvation model:               GBSA
        Solvent                        toluene
        Solvent mass                       9.2140E+01 g/mol
          :  Hamiltonian                  GFN2-xTB          :
 * total energy  :  -103.1868146 Eh     change       -0.5910763E-08 Eh
 * total energy  :  -103.1869060 Eh     change       -0.9138979E-04 Eh
 * total energy  :  -103.1868261 Eh     change        0.7984475E-04 Eh
 * total energy  :  -103.1869859 Eh     change       -0.1597589E-03 Eh
 * total energy  :  -103.1870155 Eh     change       -0.2965206E-04 Eh
 * total energy  :  -103.1870651 Eh     change       -0.4952771E-04 Eh
 * total energy  :  -103.1871290 Eh     change       -0.6395061E-04 Eh
 * total energy  :  -103.1871793 Eh     change       -0.5029078E-04 Eh
 * total energy  :  -103.1871989 Eh     change       -0.1955657E-04 Eh
 * total energy  :  -103.1872080 Eh     change       -0.9086320E-05 Eh
 * total energy  :  -103.1872492 Eh     change       -0.4473010E-06 Eh
 * total energy  :  -103.1872493 Eh     change       -0.1538665E-06 Eh
 * total energy  :  -103.1872496 Eh     change       -0.2071035E-06 Eh
 * total energy  :  -103.1872497 Eh     change       -0.1796192E-06 Eh
 * total energy  :  -103.1872497 Eh     change        0.2682455E-07 Eh
 * total energy  :  -103.1872499 Eh     change       -0.1712123E-06 Eh
 * total energy  :  -103.1872498 Eh     change        0.5155937E-07 Eh
 * total energy  :  -103.1872500 Eh     change       -0.1433855E-06 Eh
 * total energy  :  -103.1872501 Eh     change       -0.8637718E-07 Eh
   *** GEOMETRY OPTIMIZATION CONVERGED AFTER 51 ITERATIONS ***

 final structure:
================
73
 xtb: 6.7.1 (edcfbbe)
C            2.80527258966077        4.08447371607430        1.56483590136290
C            1.73486486554526        3.07309974625004        1.28892370150988
C            0.78906738906567        3.28397279621091        0.29515314941695
C           -0.20697955245092        2.36013846035789        0.02959434745500
C           -1.22112942600619        2.67851710823661       -1.03021950850659
C           -0.26995589580496        1.15291927464641        0.75169842550882
B           -1.29766849901987        0.04657869920455        0.33142829876458
C           -0.79241926258365       -1.43065354001390        0.08005999613188
C           -1.68328069784275       -2.47748256614015        0.36390036765688
C           -1.32778446399554       -3.80677427218300        0.28444404551195
C           -0.03214189777601       -4.14318909781090       -0.11345973720438
C            0.35858925127953       -5.49640907683932       -0.20738034669657
N            0.67467730081668       -6.59771836396116       -0.28016539328747
C            0.87772965129834       -3.13381530560004       -0.41991375485551
C            0.51037386527800       -1.79759340487985       -0.31625735131796
N            1.51003720795839       -0.84431885120958       -0.58765457977569
C            2.69732745910443       -0.74944539615339        0.11199109198726
C            3.16702375211220       -1.51985077056864        1.16604901958898
C            4.39970719806816       -1.19965643414898        1.70301638569804
C            5.15350713405838       -0.13708130153551        1.20912712555511
C            4.69363096823223        0.62945331495230        0.15677350696847
C            3.45928789482573        0.32432976258236       -0.40120751686057
C            2.70705789435006        0.86983302635538       -1.49484381929717
C            2.95673763449320        1.87804552000370       -2.41604929880664
C            2.03886461211797        2.09715235599346       -3.42389047644205
C            0.89356931709726        1.31200629923242       -3.53003978419394
C            0.61902228964357        0.31081127383174       -2.61773218724937
C            1.51857304812698        0.10975164681152       -1.58296509049184
C           -2.84084508575921        0.33162867423280        0.23883276697365
C           -3.50996149443808        0.91275619567924        1.33701616620017
C           -2.77522677933593        1.24745454708362        2.60241911294792
C           -4.87279524336294        1.14896718972083        1.28999141440846
C           -5.63097818682537        0.84342308037455        0.16695752090755
C           -7.10451729054638        1.11293459148659        0.14410808698628
C           -4.98072243995307        0.27047730112798       -0.91122312263935
C           -3.61659128353583        0.00732994176698       -0.88722660425218
C           -3.01584233422341       -0.57220717787720       -2.13551022396293
C            0.64655282375056        0.97339928082200        1.80031024678231
C            0.54230917386216       -0.18044684118620        2.75647901725417
C            1.62870276526791        1.92100752127127        2.04961645193253
H            3.69546728112725        3.60354616943092        1.96437534756758
H            2.45384841673972        4.80952337625873        2.30084940991847
H            3.06909966905767        4.62577899637372        0.65891372618803
H            0.83330664059555        4.19314270855352       -0.28923076729556
H           -0.93299874297484        3.57276801081017       -1.57825982021685
H           -2.19472977214023        2.85242908604245       -0.57320108431834
H           -1.32180773599575        1.85841049080084       -1.73381702436801
H           -2.68739811096245       -2.22292245494372        0.66946146123373
H           -2.03640368727773       -4.58620654829581        0.52186166635553
H            1.87905281281323       -3.38959111261312       -0.73674983223761
H            2.59377617523662       -2.34818810409693        1.55589440509469
H            4.78756445131739       -1.78756690241044        2.52269936412085
H            6.11232533000391        0.08242299247305        1.65604829441802
H            5.28033212859631        1.44953006094280       -0.22942663655682
H            3.85920229874178        2.46738241202631       -2.35016693955788
H            2.21611020619373        2.87447472583076       -4.15292178529768
H            0.20850383516573        1.48637710197630       -4.34718908172417
H           -0.25817469115332       -0.30741676202190       -2.71923027651826
H           -3.45411974686271        1.67545746733912        3.33684429890068
H           -2.32562195967574        0.35326737105556        3.02886324365316
H           -1.97837493682430        1.96135900383229        2.40744779760741
H           -5.36327680360261        1.58706552759356        2.14897673048862
H           -7.62398754470079        0.41158659710430        0.79815466348321
H           -7.31496934472387        2.11936513747619        0.50290773999601
H           -7.50576311776973        1.00609301238142       -0.86092383678819
H           -5.54567553713855        0.01995103197424       -1.79911466321541
H           -2.76397718711463        0.22935419864937       -2.83174891781783
H           -2.11563364625051       -1.13824488916951       -1.91945045645257
H           -3.72997391216471       -1.22709216091485       -2.63183388411073
H            0.08315121895632        0.16334270368362        3.68474025489477
H           -0.06549544925455       -0.98671546775332        2.35724422713110
H            1.53113507624976       -0.56184990923475        3.00228733532790
H            2.32826858374027        1.75034352005323        2.85676059042568

          :  Hamiltonian                  GFN2-xTB          :
         :: gradient norm              0.000049106410 Eh/a0 ::
         :: HOMO-LUMO gap              1.840698992148 eV    ::
         :: SCC energy              -105.103694100987 Eh    ::
         :: -> dispersion             -0.110700476858 Eh    ::
         :: -> Gsolv                  -0.038725801068 Eh    ::
         :: repulsion energy           1.916444043648 Eh    ::

    * Orbital Energies and Occupations

         #    Occupation            Energy/Eh            Energy/eV
      -------------------------------------------------------------
         1        2.0000           -0.6761096             -18.3979
       ...           ...                  ...                  ...
        85        2.0000           -0.4184313             -11.3861
        86        2.0000           -0.4168694             -11.3436
        87        2.0000           -0.4148494             -11.2886
        88        2.0000           -0.4125805             -11.2269
        89        2.0000           -0.4056113             -11.0372
        90        2.0000           -0.4045028             -11.0071
        91        2.0000           -0.3967378             -10.7958
        92        2.0000           -0.3834419             -10.4340
        93        2.0000           -0.3828984             -10.4192
        94        2.0000           -0.3774632             -10.2713
        95        2.0000           -0.3752203             -10.2103
        96        2.0000           -0.3721436             -10.1265
        97        2.0000           -0.3618931              -9.8476 (HOMO)
        98                         -0.2942487              -8.0069 (LUMO)
        99                         -0.2508284              -6.8254
       100                         -0.2473040              -6.7295
       101                         -0.2423201              -6.5939
       102                         -0.2224756              -6.0539
       103                         -0.2165450              -5.8925
       104                         -0.2131079              -5.7990
       105                         -0.2094902              -5.7005
       106                         -0.2060223              -5.6062
       107                         -0.1977313              -5.3805
       108                         -0.1908991              -5.1946
       ...                                ...                  ...
       193                          1.1562722              31.4638
      -------------------------------------------------------------
                  HL-Gap            0.0676444 Eh            1.8407 eV

     #   Z          covCN         q      C6AA      α(0)
     1   6 C        3.757    -0.106    22.573     6.774
     2   6 C        2.963     0.013    27.722     8.636
     3   6 C        2.929    -0.056    29.383     8.890
     4   6 C        2.967     0.012    27.742     8.639
     5   6 C        3.759    -0.112    22.694     6.792
     6   6 C        2.889    -0.083    30.067     8.990
     7   5 B        2.707     0.256    17.632     7.043
     8   6 C        2.880    -0.063    29.554     8.912
     9   6 C        2.925    -0.025    28.638     8.776
    10   6 C        2.920    -0.024    28.611     8.771
    11   6 C        2.972     0.018    27.609     8.619
    12   6 C        1.912     0.119    28.180     8.573
    13   7 N        0.911    -0.269    26.971     7.511
    14   6 C        2.930    -0.033    28.815     8.803
    15   6 C        2.912     0.070    26.443     8.432
    16   7 N        2.804    -0.049    22.180     6.995
    17   6 C        3.082     0.050    26.787     8.485
    18   6 C        2.910    -0.051    29.261     8.870
    19   6 C        2.924    -0.036    28.890     8.814
    20   6 C        2.920    -0.043    29.058     8.840
    21   6 C        2.913    -0.034    28.839     8.806
    22   6 C        3.069    -0.016    28.340     8.729
    23   6 C        3.070    -0.017    28.353     8.731
    24   6 C        2.913    -0.034    28.836     8.805
    25   6 C        2.920    -0.042    29.045     8.838
    26   6 C        2.924    -0.034    28.838     8.807
    27   6 C        2.911    -0.053    29.326     8.880
    28   6 C        3.078     0.050    26.792     8.486
    29   6 C        2.886    -0.083    30.076     8.991
    30   6 C        2.967     0.013    27.713     8.635
    31   6 C        3.759    -0.115    22.755     6.801
    32   6 C        2.930    -0.057    29.418     8.895
    33   6 C        2.962     0.014    27.706     8.634
    34   6 C        3.757    -0.108    22.614     6.780
    35   6 C        2.931    -0.057    29.422     8.896
    36   6 C        2.966     0.012    27.737     8.639
    37   6 C        3.760    -0.109    22.630     6.782
    38   6 C        2.966     0.011    27.762     8.643
    39   6 C        3.759    -0.109    22.639     6.783
    40   6 C        2.931    -0.056    29.395     8.891
    41   1 H        0.925     0.041     2.441     2.443
    42   1 H        0.924     0.046     2.369     2.407
    43   1 H        0.925     0.041     2.437     2.441
    44   1 H        0.925     0.022     2.699     2.569
    45   1 H        0.925     0.036     2.497     2.471
    46   1 H        0.925     0.049     2.330     2.387
    47   1 H        0.925     0.045     2.378     2.412
    48   1 H        0.926     0.054     2.268     2.355
    49   1 H        0.926     0.045     2.387     2.416
    50   1 H        0.926     0.043     2.403     2.424
    51   1 H        0.926     0.025     2.653     2.547
    52   1 H        0.926     0.028     2.614     2.528
    53   1 H        0.926     0.027     2.627     2.535
    54   1 H        0.926     0.031     2.575     2.509
    55   1 H        0.926     0.030     2.586     2.515
    56   1 H        0.926     0.028     2.616     2.529
    57   1 H        0.926     0.030     2.583     2.513
    58   1 H        0.926     0.029     2.606     2.524
    59   1 H        0.925     0.039     2.463     2.454
    60   1 H        0.925     0.045     2.383     2.414
    61   1 H        0.925     0.051     2.308     2.376
    62   1 H        0.925     0.025     2.659     2.550
    63   1 H        0.924     0.046     2.367     2.406
    64   1 H        0.925     0.044     2.397     2.421
    65   1 H        0.925     0.040     2.448     2.447
    66   1 H        0.925     0.024     2.667     2.554
    67   1 H        0.924     0.044     2.400     2.423
    68   1 H        0.925     0.039     2.463     2.454
    69   1 H        0.925     0.041     2.435     2.440
    70   1 H        0.924     0.047     2.363     2.404
    71   1 H        0.925     0.036     2.504     2.475
    72   1 H        0.925     0.041     2.435     2.440
    73   1 H        0.925     0.021     2.714     2.576

molecular dipole:
                 x           y           z       tot (Debye)
 q only:       -1.093       1.509       0.290
   full:       -1.178       1.771       0.336       5.474

 projected vibrational frequencies (cm⁻¹)
eigval :       -0.00    -0.00    -0.00     0.00     0.00     0.00
eigval :      -17.38    11.75    24.32    30.21    38.11    39.02
eigval :       40.73    50.30    54.42    61.46    78.74    88.84
eigval :      101.58   102.24   117.28   122.33   127.88   134.25
eigval :      139.06   144.00   159.95   163.17   167.94   177.20
eigval :      181.13   185.60   194.35   201.62   207.51   213.48
eigval :      248.51   273.03   273.84   278.56   284.18   310.23
eigval :      321.39   326.30   330.86   343.54   388.87   398.33
eigval :      411.75   425.36   436.78   449.93   450.57   463.58
eigval :      487.91   489.31   495.02   499.18   507.40   513.20
eigval :      518.89   527.82   534.48   540.50   541.11   544.47
eigval :      569.13   582.73   588.70   596.86   601.93   604.11
eigval :      620.46   629.84   671.17   674.60   680.12   690.77
eigval :      704.39   707.01   754.92   771.25   782.76   806.34
eigval :      831.71   841.25   841.36   867.70   872.93   875.53
eigval :      887.85   889.77   890.31   891.35   901.47   902.63
eigval :      905.85   923.80   923.89   933.26   963.19   964.49
eigval :      974.32   977.19   986.92  1012.50  1020.23  1022.76
eigval :     1029.27  1030.06  1030.22  1031.96  1033.48  1034.26
eigval :     1040.82  1041.15  1042.94  1043.45  1067.93  1069.89
eigval :     1071.89  1109.27  1142.24  1149.62  1160.05  1170.98
eigval :     1177.21  1178.28  1180.66  1206.00  1214.70  1219.61
eigval :     1234.51  1235.30  1236.82  1241.02  1258.22  1288.23
eigval :     1298.41  1301.03  1301.69  1304.35  1331.99  1335.61
eigval :     1339.30  1359.73  1363.28  1392.26  1396.94  1398.87
eigval :     1399.81  1401.11  1403.21  1408.34  1424.06  1427.78
eigval :     1427.94  1432.06  1446.53  1451.97  1457.39  1473.98
eigval :     1475.18  1476.13  1477.64  1479.11  1479.16  1482.57
eigval :     1483.14  1484.49  1485.50  1487.97  1489.42  1491.25
eigval :     1496.72  1517.64  1555.78  1557.74  1565.21  1574.70
eigval :     1591.04  1599.29  1599.76  1602.01  1615.82  2361.16
eigval :     2983.06  2984.93  2985.46  2993.26  3008.68  3018.10
eigval :     3022.38  3022.67  3029.18  3030.24  3031.05  3032.42
eigval :     3033.08  3038.01  3038.66  3056.81  3057.00  3058.34
eigval :     3059.75  3060.36  3062.30  3062.38  3067.11  3070.61
eigval :     3072.93  3077.39  3080.73  3082.65  3083.70  3087.28
eigval :     3089.99  3094.30  3111.86

   temp. (K)  partition function   enthalpy   heat capacity  entropy
                                   cal/mol     cal/K/mol   cal/K/mol   J/K/mol
 298.15  VIB  0.122E+18            22046.659    132.402    138.671
         ROT  0.303E+08              888.752      2.981     37.218
         INT  0.370E+25            22935.412    135.383    175.889
         TR   0.114E+29             1481.254      4.968     44.592
         TOT                       24416.6654   140.3508   220.4808   922.4918

       T/K    H(0)-H(T)+PV         H(T)/Eh          T*S/Eh         G(T)/Eh
   ------------------------------------------------------------------------
    298.15    0.389104E-01    0.620738E+00    0.104758E+00    0.515981E+00
   ------------------------------------------------------------------------

         :::::::::::::::::::::::::::::::::::::::::::::::::::::
         ::                  THERMODYNAMIC                  ::
         :::::::::::::::::::::::::::::::::::::::::::::::::::::
         :: total free energy        -102.671269282937 Eh   ::
         ::.................................................::
         :: total energy             -103.187250060092 Eh   ::
         :: zero point energy           0.581827900832 Eh   ::
         :: G(RRHO) w/o ZPVE           -0.065847123677 Eh   ::
         :: G(RRHO) contrib.            0.515980777155 Eh   ::
         :::::::::::::::::::::::::::::::::::::::::::::::::::::

           -------------------------------------------------
          | TOTAL ENERGY             -103.187250060092 Eh   |
          | TOTAL ENTHALPY           -102.566511726127 Eh   |
          | TOTAL FREE ENERGY        -102.671269282937 Eh   |
          | GRADIENT NORM               0.000048980309 Eh/α |
          | HOMO-LUMO GAP               1.840697729969 eV   |
           -------------------------------------------------

 * finished run on 2025/08/24 at 01:09:10.443
