   * xtb version 6.7.1 (edcfbbe) compiled by 'albert@albert-system' on 2024-07-22

   ID    Z sym.   atoms
    1    8 O      1, 14, 29, 41
    2    6 C      2-6, 8-13, 15-28, 30-33, 35-40, 42-49
    3    7 N      7, 34, 50
    4    1 H      51-77

          program call               : xtb data2507/toluene/26DPXZBPy/26DPXZBPy_toluene_S0_finalOpt.xtbopt.xyz --gfn 2 --uhf 2 --gbsa toluene --ohess vtight --parallel 40 --molden --ceasefiles --namespace data2507/toluene/26DPXZBPy/26DPXZBPy_toluene_T1_preOpt
      * Solvation model:               GBSA
        Solvent                        toluene
        Solvent mass                       9.2140E+01 g/mol
          :  Hamiltonian                  GFN2-xTB          :
 * total energy  :  -130.9035482 Eh     change       -0.8813348E-07 Eh
 * total energy  :  -130.9062777 Eh     change       -0.2729534E-02 Eh
 * total energy  :  -130.9071196 Eh     change       -0.8418923E-03 Eh
 * total energy  :  -130.9072883 Eh     change       -0.1686486E-03 Eh
 * total energy  :  -130.9074811 Eh     change       -0.1928367E-03 Eh
 * total energy  :  -130.9076152 Eh     change       -0.1340606E-03 Eh
 * total energy  :  -130.9077278 Eh     change       -0.1126510E-03 Eh
 * total energy  :  -130.9078155 Eh     change       -0.8771152E-04 Eh
 * total energy  :  -130.9078838 Eh     change       -0.6829583E-04 Eh
 * total energy  :  -130.9079376 Eh     change       -0.5379488E-04 Eh
 * total energy  :  -130.9080326 Eh     change       -0.3067964E-06 Eh
 * total energy  :  -130.9080328 Eh     change       -0.2066164E-06 Eh
 * total energy  :  -130.9080330 Eh     change       -0.2041560E-06 Eh
 * total energy  :  -130.9080332 Eh     change       -0.1726276E-06 Eh
 * total energy  :  -130.9080333 Eh     change       -0.1378539E-06 Eh
 * total energy  :  -130.9080334 Eh     change       -0.1225377E-06 Eh
 * total energy  :  -130.9080336 Eh     change       -0.1204745E-06 Eh
 * total energy  :  -130.9080337 Eh     change       -0.1040184E-06 Eh
 * total energy  :  -130.9080337 Eh     change       -0.8993592E-07 Eh
   *** GEOMETRY OPTIMIZATION CONVERGED AFTER 37 ITERATIONS ***

 final structure:
================
77
 xtb: 6.7.1 (edcfbbe)
O           -4.92628102495514       -2.40977661222555       -2.56427590929515
C           -4.39511693526072       -1.79119437941692       -1.62229044775855
C           -2.95287034462332       -1.89832310028578       -1.35634299430846
C           -2.09547512045607       -2.20494633000710       -2.42194815825989
C           -0.73347778354694       -2.29382311565319       -2.23643078403015
C           -0.19412337810840       -2.09883593970755       -0.96596469803090
N            1.20988486416514       -2.16646739780340       -0.76281386352326
C            2.03801507026059       -1.18546818758628       -1.28469871206091
C            1.53866953405922       -0.08893264268354       -1.98530017589919
C            2.39332076474642        0.86998141775254       -2.49723472775608
C            3.76392065691200        0.75231461939700       -2.32609573985538
C            4.27880114830136       -0.32213476562628       -1.62173419118449
C            3.42806513088256       -1.28035730245151       -1.09344180285915
O            3.99316789601655       -2.30099992090341       -0.38702359967667
C            3.16449091304363       -3.25187860179113        0.13770564547603
C            3.75361602567697       -4.28461449938845        0.84917649021100
C            2.97068031112433       -5.29219986111575        1.38638730413028
C            1.59741626528474       -5.27163861616225        1.19769615440166
C            1.00079790988630       -4.24513374722492        0.48862619031989
C            1.76992110342953       -3.21067663399782       -0.04173759552460
C           -1.03912247814344       -1.84119407438451        0.11090454084216
C           -2.39944922729092       -1.74020717129392       -0.08111402569305
C           -5.18468664838663       -0.88865329229762       -0.77339614340104
C           -6.59137539744427       -0.91155129015773       -0.81748564122546
C           -7.29127722556109       -0.02408296141695       -0.01860768904560
C           -6.60117427430601        0.86732282010190        0.78444376881774
C           -5.19418818662230        0.85249567719351        0.74859200660110
C           -4.41468618978021        1.75920803912008        1.60237097544176
O           -4.95448007633579        2.37340587836970        2.54227905267782
C           -2.97187113986239        1.87578569156482        1.34361020935415
C           -2.41149195997767        1.72295034490482        0.07077549845444
C           -1.05101575052862        1.83348101537063       -0.11476940058172
C           -0.21277760238174        2.09557428387213        0.96632114804588
N            1.19150893379966        2.17391087785385        0.76929415599448
C            2.02501785113568        1.19895439730750        1.29395430204742
C            1.53138578750937        0.09854445567511        1.99252795136246
C            2.39135795842502       -0.85396094263280        2.50751355759277
C            3.76165097527324       -0.72594815263822        2.34141991522085
C            4.27098443745352        0.35234030725327        1.63889954869916
C            3.41499780658249        1.30423045282219        1.10765222773516
O            3.97501572473367        2.32906380939352        0.40323438183643
C            3.14119882515987        3.27394318830559       -0.12418504350909
C            3.72514141164498        4.31099868284144       -0.83364365586794
C            2.93670596039587        5.31304492027881       -1.37317623011911
C            1.56304277060307        5.28258332832232       -1.18883480182177
C            0.97156091284130        4.25161392890682       -0.48194859247999
C            1.74637772512796        3.22250980766333        0.05055031342145
C           -0.75927924397411        2.28499817794245        2.23456531749419
C           -2.12152010144866        2.18668563830615        2.41359737788672
N           -4.53637129030779       -0.01612448622214       -0.01055786415903
H           -2.53112840067251       -2.36001964552592       -3.39815791790715
H           -0.08101133589413       -2.51700708751113       -3.06784630651932
H            0.47387276488572       -0.00482983052491       -2.12932975670000
H            1.98519741577670        1.71080619844492       -3.03630576830813
H            4.42963956127085        1.49565195164018       -2.73362201614632
H            5.33881636870739       -0.43672506871622       -1.46400247926047
H            4.82556041934857       -4.28055479942856        0.96400328563628
H            3.43340852904294       -6.09340271607393        1.94007322337959
H            0.98240714889862       -6.06090932255714        1.60079420544632
H           -0.06628014745901       -4.24223333642964        0.33482494260104
H           -0.62027139028368       -1.72547171380586        1.09823981021276
H           -3.04187568913793       -1.54533767548007        0.76160911765222
H           -7.07987642180154       -1.62487564943896       -1.46263815626564
H           -8.37237475472109       -0.02712620236302       -0.02178544802901
H           -7.09755680088201        1.57772176876619        1.42679262775141
H           -3.04864843419932        1.52479504739816       -0.77518670058279
H           -0.62672835009053        1.72209015369433       -1.10028517292362
H            0.46672758258777        0.00625031545905        2.13251712733207
H            1.98763350358183       -1.69792032227467        3.04500209906565
H            4.43146125816592       -1.46427520833955        2.75133983455707
H            5.33066654273248        0.47482447133358        1.48488475646778
H            4.79745154523789        4.31467252606533       -0.94505051829986
H            3.39542578213357        6.11762074714475       -1.92529226228995
H            0.94367389178635        6.06754161136147       -1.59366870273771
H           -0.09596688370273        4.24101249604189       -0.33163890851402
H           -0.11228279655793        2.51161177981364        3.06932841111301
H           -2.56275044736600        2.33751318356332        3.38796636253865

          :  Hamiltonian                  GFN2-xTB          :
         :: gradient norm              0.000040654113 Eh/a0 ::
         :: HOMO-LUMO gap              0.027403910579 eV    ::
         :: SCC energy              -133.076371047057 Eh    ::
         :: -> dispersion             -0.127207691275 Eh    ::
         :: -> Gsolv                  -0.065533570815 Eh    ::
         :: repulsion energy           2.168337296506 Eh    ::

    * Orbital Energies and Occupations

         #    Occupation            Energy/Eh            Energy/eV
      -------------------------------------------------------------
         1        2.0000           -0.7548497             -20.5405
       ...           ...                  ...                  ...
       108        2.0000           -0.4224688             -11.4960
       109        2.0000           -0.4180543             -11.3758
       110        2.0000           -0.4168310             -11.3425
       111        2.0000           -0.4157840             -11.3141
       112        2.0000           -0.4113273             -11.1928
       113        2.0000           -0.4090489             -11.1308
       114        2.0000           -0.4088742             -11.1260
       115        2.0000           -0.3988777             -10.8540
       116        2.0000           -0.3789910             -10.3129
       117        1.9118           -0.3644143              -9.9162
       118        1.5624           -0.3624331              -9.8623
       119        1.5258           -0.3622928              -9.8585
       120        0.6295           -0.2916603              -7.9365 (HOMO)
       121        0.3705           -0.2906530              -7.9091 (LUMO)
       122                         -0.2615238              -7.1164
       123                         -0.2593503              -7.0573
       124                         -0.2488381              -6.7712
       125                         -0.2478926              -6.7455
       126                         -0.2470436              -6.7224
       127                         -0.2433474              -6.6218
       128                         -0.2374726              -6.4620
       129                         -0.2347968              -6.3891
       130                         -0.2336970              -6.3592
       131                         -0.2318202              -6.3081
       ...                                ...                  ...
       227                          0.6806465              18.5213
      -------------------------------------------------------------
                  HL-Gap            0.0010073 Eh            0.0274 eV

     #   Z          covCN         q      C6AA      α(0)
     1   8 O        0.857    -0.490    23.571     6.509
     2   6 C        2.831     0.189    23.966     8.022
     3   6 C        2.969    -0.008    28.216     8.713
     4   6 C        2.925    -0.022    28.561     8.764
     5   6 C        2.917    -0.039    28.965     8.825
     6   6 C        2.923     0.050    26.878     8.502
     7   7 N        2.752    -0.025    21.729     6.923
     8   6 C        2.925     0.041    27.080     8.534
     9   6 C        2.922    -0.054    29.351     8.884
    10   6 C        2.918    -0.033    28.812     8.802
    11   6 C        2.919    -0.030    28.745     8.792
    12   6 C        2.917    -0.051    29.272     8.872
    13   6 C        2.886     0.129    25.184     8.227
    14   8 O        1.709    -0.225    17.733     5.686
    15   6 C        2.886     0.130    25.154     8.222
    16   6 C        2.917    -0.051    29.260     8.870
    17   6 C        2.919    -0.029    28.725     8.789
    18   6 C        2.918    -0.029    28.725     8.789
    19   6 C        2.921    -0.050    29.242     8.868
    20   6 C        2.925     0.044    27.016     8.524
    21   6 C        2.919    -0.040    28.993     8.830
    22   6 C        2.921    -0.026    28.656     8.778
    23   6 C        2.937     0.066    26.515     8.445
    24   6 C        2.916    -0.044    29.081     8.843
    25   6 C        2.920    -0.019    28.481     8.752
    26   6 C        2.916    -0.044    29.082     8.843
    27   6 C        2.937     0.066    26.515     8.445
    28   6 C        2.831     0.189    23.965     8.022
    29   8 O        0.857    -0.490    23.569     6.509
    30   6 C        2.969    -0.008    28.216     8.713
    31   6 C        2.921    -0.026    28.655     8.778
    32   6 C        2.919    -0.040    28.993     8.830
    33   6 C        2.923     0.050    26.877     8.502
    34   7 N        2.752    -0.025    21.728     6.923
    35   6 C        2.925     0.041    27.080     8.534
    36   6 C        2.922    -0.054    29.351     8.884
    37   6 C        2.918    -0.033    28.812     8.802
    38   6 C        2.919    -0.030    28.745     8.792
    39   6 C        2.917    -0.051    29.272     8.872
    40   6 C        2.886     0.129    25.184     8.227
    41   8 O        1.709    -0.225    17.733     5.686
    42   6 C        2.886     0.130    25.154     8.222
    43   6 C        2.917    -0.051    29.260     8.870
    44   6 C        2.919    -0.029    28.725     8.789
    45   6 C        2.918    -0.029    28.725     8.789
    46   6 C        2.921    -0.050    29.242     8.868
    47   6 C        2.925     0.044    27.016     8.524
    48   6 C        2.917    -0.039    28.965     8.825
    49   6 C        2.925    -0.022    28.561     8.764
    50   7 N        1.848    -0.247    27.284     7.741
    51   1 H        0.926     0.049     2.337     2.391
    52   1 H        0.926     0.051     2.306     2.375
    53   1 H        0.926     0.052     2.292     2.367
    54   1 H        0.926     0.053     2.287     2.365
    55   1 H        0.926     0.060     2.199     2.319
    56   1 H        0.926     0.068     2.107     2.270
    57   1 H        0.926     0.068     2.108     2.270
    58   1 H        0.926     0.060     2.193     2.316
    59   1 H        0.926     0.057     2.239     2.340
    60   1 H        0.926     0.054     2.274     2.358
    61   1 H        0.926     0.050     2.314     2.379
    62   1 H        0.926     0.047     2.351     2.398
    63   1 H        0.926     0.041     2.440     2.443
    64   1 H        0.926     0.040     2.453     2.449
    65   1 H        0.926     0.041     2.440     2.443
    66   1 H        0.926     0.047     2.352     2.398
    67   1 H        0.926     0.050     2.314     2.379
    68   1 H        0.926     0.052     2.292     2.367
    69   1 H        0.926     0.053     2.287     2.365
    70   1 H        0.926     0.060     2.199     2.319
    71   1 H        0.926     0.068     2.107     2.270
    72   1 H        0.926     0.068     2.108     2.270
    73   1 H        0.926     0.060     2.193     2.316
    74   1 H        0.926     0.057     2.239     2.340
    75   1 H        0.926     0.054     2.274     2.358
    76   1 H        0.926     0.051     2.305     2.374
    77   1 H        0.926     0.049     2.337     2.390

molecular dipole:
                 x           y           z       tot (Debye)
 q only:        8.160       0.030       0.019
   full:        7.492       0.028       0.017      19.042

 projected vibrational frequencies (cm⁻¹)
eigval :       -0.00    -0.00     0.00     0.00     0.00     0.00
eigval :        7.96    20.10    22.07    26.78    33.11    34.70
eigval :       45.70    52.95    60.69    63.24    63.77    70.65
eigval :       83.82    84.55   112.56   119.53   128.20   130.62
eigval :      139.17   155.45   160.62   162.61   176.36   206.92
eigval :      215.18   237.92   248.12   248.69   264.22   265.18
eigval :      278.71   283.43   284.90   299.74   337.43   342.50
eigval :      367.02   377.38   378.87   380.53   386.35   389.21
eigval :      397.19   404.70   414.11   417.17   433.64   436.11
eigval :      438.23   443.00   456.57   463.89   471.90   477.10
eigval :      500.38   500.81   523.96   528.72   529.05   536.36
eigval :      551.56   551.73   580.84   581.99   588.02   588.22
eigval :      603.36   607.99   612.05   615.58   644.07   654.36
eigval :      665.79   668.40   669.38   672.04   672.70   674.89
eigval :      689.98   698.77   704.03   715.63   767.86   777.12
eigval :      780.36   780.90   782.37   787.03   799.54   807.74
eigval :      809.77   815.06   849.28   854.69   855.22   856.63
eigval :      856.79   870.86   871.63   872.20   875.92   881.12
eigval :      900.49   902.60   906.56   907.18   907.53   911.07
eigval :      911.54   913.38   916.16   917.25   917.88   918.64
eigval :      921.91   923.19   925.41   926.87   931.15   986.06
eigval :      990.71  1014.81  1022.68  1082.14  1082.41  1084.05
eigval :     1084.52  1092.42  1112.99  1113.16  1115.93  1120.02
eigval :     1124.97  1129.00  1131.51  1157.89  1162.23  1165.80
eigval :     1170.79  1171.18  1171.63  1174.47  1183.88  1186.08
eigval :     1197.23  1206.84  1208.78  1209.68  1222.19  1226.77
eigval :     1236.03  1236.48  1252.21  1252.52  1254.96  1255.10
eigval :     1256.66  1260.32  1305.95  1306.44  1307.50  1308.05
eigval :     1315.03  1315.23  1323.97  1324.16  1338.97  1342.96
eigval :     1348.80  1361.42  1397.79  1400.74  1416.44  1416.61
eigval :     1432.60  1438.00  1438.12  1438.25  1440.26  1446.35
eigval :     1453.41  1458.41  1464.40  1478.60  1504.34  1524.12
eigval :     1525.73  1554.59  1554.81  1556.01  1561.94  1562.05
eigval :     1564.43  1566.12  1569.96  1574.79  1581.79  1584.46
eigval :     3061.88  3080.50  3080.59  3090.88  3091.08  3095.88
eigval :     3096.96  3097.01  3097.14  3097.43  3098.25  3098.54
eigval :     3098.82  3104.57  3104.82  3109.51  3110.06  3113.50
eigval :     3113.56  3113.86  3114.47  3116.44  3116.60  3117.42
eigval :     3118.33  3120.25  3121.55

   temp. (K)  partition function   enthalpy   heat capacity  entropy
                                   cal/mol     cal/K/mol   cal/K/mol   J/K/mol
 298.15  VIB  0.236E+18            23043.828    146.916    142.418
         ROT  0.297E+08              888.752      2.981     37.172
         INT  0.701E+25            23932.581    149.897    179.591
         TR   0.160E+29             1481.254      4.968     45.275
         TOT                       25413.8345   154.8651   224.8661   940.8399

       T/K    H(0)-H(T)+PV         H(T)/Eh          T*S/Eh         G(T)/Eh
   ------------------------------------------------------------------------
    298.15    0.404995E-01    0.607611E+00    0.106841E+00    0.500770E+00
   ------------------------------------------------------------------------

         :::::::::::::::::::::::::::::::::::::::::::::::::::::
         ::                  THERMODYNAMIC                  ::
         :::::::::::::::::::::::::::::::::::::::::::::::::::::
         :: total free energy        -130.407263747118 Eh   ::
         ::.................................................::
         :: total energy             -130.908033748687 Eh   ::
         :: zero point energy           0.567111639487 Eh   ::
         :: G(RRHO) w/o ZPVE           -0.066341637917 Eh   ::
         :: G(RRHO) contrib.            0.500770001570 Eh   ::
         :::::::::::::::::::::::::::::::::::::::::::::::::::::

           -------------------------------------------------
          | TOTAL ENERGY             -130.908033748687 Eh   |
          | TOTAL ENTHALPY           -130.300422586046 Eh   |
          | TOTAL FREE ENERGY        -130.407263747118 Eh   |
          | GRADIENT NORM               0.000043009283 Eh/α |
          | HOMO-LUMO GAP               0.027409576115 eV   |
           -------------------------------------------------

 * finished run on 2025/09/07 at 04:37:56.240
