   * xtb version 6.7.1 (edcfbbe) compiled by 'albert@albert-system' on 2024-07-22

   ID    Z sym.   atoms
    1    8 O      1, 14, 29, 41
    2    6 C      2-6, 8-13, 15-28, 30-33, 35-40, 42-49
    3    7 N      7, 34, 50
    4    1 H      51-77

          program call               : xtb data2507/toluene/26DPXZBPy/26DPXZBPy.xyz --gfn 2 --gbsa toluene --ohess vtight --parallel 40 --molden --ceasefiles --namespace data2507/toluene/26DPXZBPy/26DPXZBPy_toluene_S0_preOpt
      * Solvation model:               GBSA
        Solvent                        toluene
        Solvent mass                       9.2140E+01 g/mol
          :  Hamiltonian                  GFN2-xTB          :
 * total energy  :  -130.9377973 Eh     change       -0.1020481E-08 Eh
 * total energy  :  -130.9495861 Eh     change       -0.1178882E-01 Eh
 * total energy  :  -130.9539704 Eh     change       -0.4384229E-02 Eh
 * total energy  :  -130.9552832 Eh     change       -0.1312849E-02 Eh
 * total energy  :  -130.9561087 Eh     change       -0.8254710E-03 Eh
 * total energy  :  -130.9565101 Eh     change       -0.4014014E-03 Eh
 * total energy  :  -130.9568925 Eh     change       -0.3824042E-03 Eh
 * total energy  :  -130.9573938 Eh     change       -0.5012885E-03 Eh
 * total energy  :  -130.9580402 Eh     change       -0.6464152E-03 Eh
 * total energy  :  -130.9587457 Eh     change       -0.7054800E-03 Eh
 * total energy  :  -130.9617228 Eh     change       -0.9776715E-06 Eh
 * total energy  :  -130.9617237 Eh     change       -0.9666309E-06 Eh
 * total energy  :  -130.9617247 Eh     change       -0.9514031E-06 Eh
 * total energy  :  -130.9617256 Eh     change       -0.9348931E-06 Eh
 * total energy  :  -130.9617266 Eh     change       -0.9183887E-06 Eh
 * total energy  :  -130.9617275 Eh     change       -0.9015535E-06 Eh
 * total energy  :  -130.9617283 Eh     change       -0.8840683E-06 Eh
 * total energy  :  -130.9617292 Eh     change       -0.8656063E-06 Eh
 * total energy  :  -130.9617292 Eh     change       -0.3395087E-08 Eh
   *** GEOMETRY OPTIMIZATION CONVERGED AFTER 94 ITERATIONS ***

 final structure:
================
77
 xtb: 6.7.1 (edcfbbe)
O           -5.01605079901418       -2.33078451452434       -2.57525605669277
C           -4.49464069655066       -1.77723767561351       -1.61942831377939
C           -3.05943239547084       -1.90671879765623       -1.31038926630219
C           -2.16711598761021       -2.07635176236395       -2.37233933505878
C           -0.81039914007861       -2.15255936214740       -2.14590107991304
C           -0.31297233785221       -2.09542857611514       -0.84283791762721
N            1.07361007171632       -2.16133848424629       -0.61611517971163
C            1.92615652858432       -1.21582913306481       -1.19620716810001
C            1.44356001206651       -0.10299931426036       -1.87425834925127
C            2.30959758730553        0.81905276230405       -2.44090806389097
C            3.67565332935674        0.64860024894778       -2.33382513290872
C            4.17396283366847       -0.43530848911509       -1.62790689381837
C            3.31218775073511       -1.35166910788978       -1.05225812427233
O            3.88058933186821       -2.37434199677505       -0.33601877578174
C            3.03152808805438       -3.27178211726383        0.26493479888486
C            3.62006614493504       -4.28914890627481        0.99421882280263
C            2.83889539342029       -5.26613124066193        1.59273321773865
C            1.46794098591941       -5.22845450242522        1.43408981891431
C            0.87328025123819       -4.20902199083999        0.70606059450893
C            1.63819888495320       -3.20007151490135        0.13268789744462
C           -1.20480826489095       -1.97647653915582        0.22276799826888
C           -2.56086241119771       -1.87292112339318       -0.00750007665218
C           -5.29456052560161       -0.86670459025179       -0.74527611413843
C           -6.69073368535003       -0.90178721514096       -0.78084382637335
C           -7.39595615866089       -0.00039252653223        0.00000024453840
C           -6.69082630262548        0.90106242883594        0.78085884964203
C           -5.29464922661723        0.86609652873085        0.74532061555113
C           -4.49482062042465        1.77668818818257        1.61949522477784
O           -5.01628921058703        2.33017117336690        2.57532826599814
C           -3.05963199816004        1.90634337222270        1.31044009770904
C           -2.56107537819231        1.87260931238877        0.00754348931721
C           -1.20503630987942        1.97632281708387       -0.22274201201580
C           -0.31319986187507        2.09537225880086        0.84285286115416
N            1.07337080636051        2.16145335424757        0.61611017928334
C            1.92604335047573        1.21604864815666        1.19618744217098
C            1.44359573885010        0.10315499033642        1.87423994885704
C            2.30975633084637       -0.81878815283067        2.44087892000864
C            3.67578920752893       -0.64816095920636        2.33378245060193
C            4.17395321521430        0.43581180329650        1.62786009583518
C            3.31205564937377        1.35206397980645        1.05222204738216
O            3.88031933786859        2.37480932763686        0.33597679349133
C            3.03113776628867        3.27214243887206       -0.26496631070844
C            3.61953954702591        4.28958239177806       -0.99425838368474
C            2.83823921713832        5.26646896281435       -1.59275981769535
C            1.46729219569140        5.22862363882305       -1.43409386099307
C            0.87276791422080        4.20911692981427       -0.70605715174784
C            1.63781936311329        3.20025853217822       -0.13269935131512
C           -0.81061560965062        2.15243366867554        2.14592340091766
C           -2.16732110822694        2.07607400449444        2.37237861322966
N           -4.62293960628519       -0.00027544321454        0.00002914641686
H           -2.56006286311287       -2.13343317903095       -3.37677309546281
H           -0.12515839073606       -2.26859304731544       -2.97247424939365
H            0.37857174111897        0.04090137814638       -1.95776675748580
H            1.90758276534103        1.67302322175339       -2.96454940578062
H            4.35471356504958        1.35832872262816       -2.77870564866667
H            5.23463952410337       -0.58519688156564       -1.50350687811501
H            4.69574885691531       -4.30219261237490        1.07273071137126
H            3.30690547385647       -6.05398686963062        2.16159273743810
H            0.84646636467988       -5.99515639154009        1.87068197174914
H           -0.19646665401322       -4.20963987899622        0.57182802272869
H           -0.82484412139483       -1.95229637501537        1.23227728425087
H           -3.23597509226092       -1.77910475197461        0.82744818574748
H           -7.18422454862934       -1.62659633331654       -1.40963003594018
H           -8.47570693559054       -0.00043930238360       -0.00000928694491
H           -7.18439207690305        1.62582693003991        1.40963772442671
H           -3.23618840633859        1.77871956524060       -0.82739635423353
H           -0.82508233456076        1.95219575395166       -1.23225653799274
H            0.37862681041241       -0.04088323621605        1.95775741018297
H            1.90785594796787       -1.67281179936050        2.96452123697081
H            4.35494450105284       -1.35780451080467        2.77865324010782
H            5.23460948959503        0.58583403106831        1.50344782356730
H            4.69521946830124        4.30275904661660       -1.07278675188365
H            3.30614396186513        6.05438221034687       -2.16162602848546
H            0.84571665213823        5.99525059434280       -1.87067372925115
H           -0.19697709355527        4.20960454384594       -0.57180865622447
H           -0.12537780840670        2.26853536218404        2.97248936657031
H           -2.56026099593002        2.13309608342765        3.37681842773611

          :  Hamiltonian                  GFN2-xTB          :
         :: gradient norm              0.000067164724 Eh/a0 ::
         :: HOMO-LUMO gap              0.935992854548 eV    ::
         :: SCC energy              -133.143386060069 Eh    ::
         :: -> dispersion             -0.128204186725 Eh    ::
         :: -> Gsolv                  -0.047543312043 Eh    ::
         :: repulsion energy           2.181656853473 Eh    ::

    * Orbital Energies and Occupations

         #    Occupation            Energy/Eh            Energy/eV
      -------------------------------------------------------------
         1        2.0000           -0.7319680             -19.9179
       ...           ...                  ...                  ...
       107        2.0000           -0.4232569             -11.5174
       108        2.0000           -0.4230166             -11.5109
       109        2.0000           -0.4224218             -11.4947
       110        2.0000           -0.4208708             -11.4525
       111        2.0000           -0.4169581             -11.3460
       112        2.0000           -0.4163605             -11.3297
       113        2.0000           -0.4138839             -11.2624
       114        2.0000           -0.4061343             -11.0515
       115        2.0000           -0.3935220             -10.7083
       116        2.0000           -0.3932622             -10.7012
       117        2.0000           -0.3876257             -10.5478
       118        2.0000           -0.3478525              -9.4655
       119        2.0000           -0.3474835              -9.4555 (HOMO)
       120                         -0.3130864              -8.5195 (LUMO)
       121                         -0.3106714              -8.4538
       122                         -0.2651555              -7.2152
       123                         -0.2553353              -6.9480
       124                         -0.2445713              -6.6551
       125                         -0.2434264              -6.6240
       126                         -0.2426363              -6.6025
       127                         -0.2402556              -6.5377
       128                         -0.2336631              -6.3583
       129                         -0.2315365              -6.3004
       130                         -0.2233651              -6.0781
       ...                                ...                  ...
       227                          0.6795789              18.4923
      -------------------------------------------------------------
                  HL-Gap            0.0343971 Eh            0.9360 eV

     #   Z          covCN         q      C6AA      α(0)
     1   8 O        0.858    -0.404    21.766     6.255
     2   6 C        2.830     0.224    23.292     7.908
     3   6 C        2.971    -0.010    28.268     8.721
     4   6 C        2.924    -0.016    28.400     8.739
     5   6 C        2.919    -0.038    28.952     8.824
     6   6 C        2.920     0.073    26.376     8.422
     7   7 N        2.750    -0.063    22.469     7.040
     8   6 C        2.923     0.039    27.122     8.540
     9   6 C        2.925    -0.061    29.524     8.911
    10   6 C        2.919    -0.039    28.971     8.826
    11   6 C        2.919    -0.037    28.921     8.819
    12   6 C        2.920    -0.056    29.384     8.889
    13   6 C        2.885     0.124    25.277     8.242
    14   8 O        1.709    -0.265    18.386     5.789
    15   6 C        2.884     0.125    25.257     8.239
    16   6 C        2.920    -0.056    29.397     8.891
    17   6 C        2.919    -0.039    28.976     8.827
    18   6 C        2.919    -0.038    28.951     8.823
    19   6 C        2.924    -0.060    29.486     8.905
    20   6 C        2.920     0.041    27.076     8.533
    21   6 C        2.920    -0.040    28.989     8.829
    22   6 C        2.920    -0.018    28.470     8.750
    23   6 C        2.953     0.073    26.367     8.422
    24   6 C        2.917    -0.023    28.567     8.765
    25   6 C        2.923    -0.007    28.184     8.706
    26   6 C        2.917    -0.023    28.567     8.765
    27   6 C        2.953     0.073    26.367     8.422
    28   6 C        2.830     0.224    23.292     7.908
    29   8 O        0.858    -0.404    21.766     6.255
    30   6 C        2.971    -0.010    28.268     8.721
    31   6 C        2.920    -0.018    28.470     8.750
    32   6 C        2.920    -0.040    28.989     8.829
    33   6 C        2.920     0.073    26.376     8.422
    34   7 N        2.750    -0.063    22.469     7.040
    35   6 C        2.923     0.039    27.122     8.540
    36   6 C        2.925    -0.061    29.524     8.911
    37   6 C        2.919    -0.039    28.971     8.826
    38   6 C        2.919    -0.037    28.921     8.819
    39   6 C        2.920    -0.056    29.384     8.889
    40   6 C        2.885     0.124    25.277     8.242
    41   8 O        1.709    -0.265    18.386     5.789
    42   6 C        2.884     0.125    25.257     8.239
    43   6 C        2.920    -0.056    29.397     8.891
    44   6 C        2.919    -0.039    28.976     8.827
    45   6 C        2.919    -0.038    28.951     8.823
    46   6 C        2.924    -0.060    29.486     8.905
    47   6 C        2.920     0.041    27.076     8.533
    48   6 C        2.919    -0.038    28.952     8.824
    49   6 C        2.924    -0.016    28.400     8.739
    50   7 N        1.846    -0.228    26.825     7.676
    51   1 H        0.926     0.058     2.224     2.332
    52   1 H        0.926     0.056     2.245     2.343
    53   1 H        0.926     0.041     2.435     2.440
    54   1 H        0.926     0.039     2.462     2.454
    55   1 H        0.926     0.043     2.411     2.428
    56   1 H        0.926     0.050     2.321     2.382
    57   1 H        0.926     0.051     2.310     2.377
    58   1 H        0.926     0.045     2.384     2.414
    59   1 H        0.926     0.044     2.398     2.422
    60   1 H        0.926     0.043     2.404     2.425
    61   1 H        0.926     0.058     2.227     2.334
    62   1 H        0.926     0.053     2.288     2.365
    63   1 H        0.926     0.069     2.099     2.266
    64   1 H        0.926     0.066     2.125     2.280
    65   1 H        0.926     0.069     2.099     2.266
    66   1 H        0.926     0.053     2.288     2.365
    67   1 H        0.926     0.058     2.227     2.334
    68   1 H        0.926     0.041     2.435     2.440
    69   1 H        0.926     0.039     2.462     2.454
    70   1 H        0.926     0.043     2.411     2.428
    71   1 H        0.926     0.050     2.321     2.382
    72   1 H        0.926     0.051     2.310     2.377
    73   1 H        0.926     0.045     2.384     2.414
    74   1 H        0.926     0.044     2.398     2.422
    75   1 H        0.926     0.043     2.404     2.425
    76   1 H        0.926     0.056     2.245     2.343
    77   1 H        0.926     0.058     2.224     2.332

molecular dipole:
                 x           y           z       tot (Debye)
 q only:        0.667       0.000      -0.000
   full:        0.185       0.000      -0.000       0.471

 projected vibrational frequencies (cm⁻¹)
eigval :       -0.00    -0.00     0.00     0.00     0.00     0.00
eigval :       13.93    22.01    22.70    26.84    34.23    38.41
eigval :       51.29    54.44    55.51    61.12    70.21    83.25
eigval :       89.84    90.43   116.66   126.98   128.87   132.02
eigval :      135.64   160.56   160.82   167.63   177.17   208.54
eigval :      213.99   231.75   248.20   253.03   264.18   266.91
eigval :      278.52   279.93   280.75   293.72   338.73   343.17
eigval :      356.86   374.50   378.63   380.79   383.74   384.45
eigval :      393.36   402.18   417.14   418.91   429.57   433.22
eigval :      442.07   445.19   449.72   451.10   475.69   480.10
eigval :      508.84   509.71   524.52   524.64   530.79   539.96
eigval :      558.86   560.54   584.26   586.47   592.66   594.93
eigval :      610.20   610.69   622.13   635.72   651.58   657.17
eigval :      658.93   660.80   661.22   664.62   682.31   694.20
eigval :      697.65   717.88   722.69   742.31   778.39   779.13
eigval :      781.21   782.35   785.58   799.65   801.68   817.93
eigval :      823.92   826.12   854.42   855.05   861.23   866.00
eigval :      866.93   869.64   873.64   875.67   890.48   898.59
eigval :      899.67   900.07   900.89   906.03   913.33   914.46
eigval :      915.01   916.53   916.70   917.65   917.91   928.27
eigval :      931.43   934.98   935.29   937.69   941.00   982.83
eigval :     1009.96  1026.78  1027.58  1089.33  1089.34  1092.21
eigval :     1092.30  1103.47  1107.26  1107.44  1118.32  1118.87
eigval :     1133.65  1134.10  1153.11  1168.03  1168.97  1172.46
eigval :     1173.77  1173.97  1179.78  1180.68  1185.75  1189.68
eigval :     1197.82  1201.57  1202.09  1219.62  1223.20  1241.07
eigval :     1241.54  1245.53  1259.91  1260.33  1261.27  1261.76
eigval :     1278.11  1305.32  1305.63  1305.91  1306.95  1307.85
eigval :     1318.37  1318.39  1332.97  1333.20  1352.04  1352.13
eigval :     1395.83  1400.96  1401.76  1415.39  1422.24  1422.67
eigval :     1441.04  1441.19  1469.78  1470.11  1478.29  1479.30
eigval :     1500.97  1500.98  1545.00  1546.75  1548.62  1552.06
eigval :     1567.40  1567.50  1572.54  1573.99  1578.49  1578.67
eigval :     1589.07  1589.21  1600.67  1600.89  1650.04  1653.67
eigval :     3084.11  3085.54  3085.54  3087.56  3087.64  3088.19
eigval :     3088.23  3095.70  3095.77  3097.35  3097.38  3098.67
eigval :     3098.87  3100.51  3100.99  3102.13  3103.84  3107.36
eigval :     3107.39  3109.94  3111.15  3111.29  3111.34  3111.38
eigval :     3111.63  3113.99  3114.69

   temp. (K)  partition function   enthalpy   heat capacity  entropy
                                   cal/mol     cal/K/mol   cal/K/mol   J/K/mol
 298.15  VIB  0.672E+17            22884.666    146.223    140.688
         ROT  0.295E+08              888.752      2.981     37.158
         INT  0.198E+25            23773.418    149.204    177.847
         TR   0.160E+29             1481.254      4.968     45.275
         TOT                       25254.6723   154.1717   223.1222   933.5434

       T/K    H(0)-H(T)+PV         H(T)/Eh          T*S/Eh         G(T)/Eh
   ------------------------------------------------------------------------
    298.15    0.402459E-01    0.610962E+00    0.106013E+00    0.504949E+00
   ------------------------------------------------------------------------

         :::::::::::::::::::::::::::::::::::::::::::::::::::::
         ::                  THERMODYNAMIC                  ::
         :::::::::::::::::::::::::::::::::::::::::::::::::::::
         :: total free energy        -130.456779728759 Eh   ::
         ::.................................................::
         :: total energy             -130.961729203422 Eh   ::
         :: zero point energy           0.570716166888 Eh   ::
         :: G(RRHO) w/o ZPVE           -0.065766692225 Eh   ::
         :: G(RRHO) contrib.            0.504949474663 Eh   ::
         :::::::::::::::::::::::::::::::::::::::::::::::::::::

           -------------------------------------------------
          | TOTAL ENERGY             -130.961729203422 Eh   |
          | TOTAL ENTHALPY           -130.350767154523 Eh   |
          | TOTAL FREE ENERGY        -130.456779728759 Eh   |
          | GRADIENT NORM               0.000067165421 Eh/α |
          | HOMO-LUMO GAP               0.935993184146 eV   |
           -------------------------------------------------

 * finished run on 2025/09/07 at 04:33:38.232
