   * xtb version 6.7.1 (edcfbbe) compiled by 'albert@albert-system' on 2024-07-22

   ID    Z sym.   atoms
    1    8 O      1, 14, 29, 41
    2    6 C      2-6, 8-13, 15-28, 30-33, 35-40, 42-49
    3    7 N      7, 34, 50
    4    1 H      51-77

          program call               : xtb data2507/toluene/26DPXZBPy/26DPXZBPy_toluene_S0_crest.xyz --gfn 2 --gbsa toluene --ohess vtight --parallel 40 --molden --ceasefiles --namespace data2507/toluene/26DPXZBPy/26DPXZBPy_toluene_S0_finalOpt
      * Solvation model:               GBSA
        Solvent                        toluene
        Solvent mass                       9.2140E+01 g/mol
          :  Hamiltonian                  GFN2-xTB          :
 * total energy  :  -130.9610366 Eh     change       -0.2657231E-08 Eh
 * total energy  :  -130.9611491 Eh     change       -0.1124492E-03 Eh
 * total energy  :  -130.9612124 Eh     change       -0.6329590E-04 Eh
 * total energy  :  -130.9612392 Eh     change       -0.2679773E-04 Eh
 * total energy  :  -130.9612691 Eh     change       -0.2990040E-04 Eh
 * total energy  :  -130.9612946 Eh     change       -0.2552326E-04 Eh
 * total energy  :  -130.9613114 Eh     change       -0.1680415E-04 Eh
 * total energy  :  -130.9613203 Eh     change       -0.8883341E-05 Eh
 * total energy  :  -130.9613352 Eh     change       -0.1497452E-04 Eh
 * total energy  :  -130.9613453 Eh     change       -0.1006307E-04 Eh
 * total energy  :  -130.9617676 Eh     change       -0.2946903E-05 Eh
 * total energy  :  -130.9617705 Eh     change       -0.2929331E-05 Eh
 * total energy  :  -130.9617733 Eh     change       -0.2808652E-05 Eh
 * total energy  :  -130.9617757 Eh     change       -0.2382347E-05 Eh
 * total energy  :  -130.9617774 Eh     change       -0.1754825E-05 Eh
 * total energy  :  -130.9617787 Eh     change       -0.1243860E-05 Eh
 * total energy  :  -130.9617796 Eh     change       -0.9281480E-06 Eh
 * total energy  :  -130.9617804 Eh     change       -0.7581074E-06 Eh
 * total energy  :  -130.9617804 Eh     change       -0.4933071E-08 Eh
   *** GEOMETRY OPTIMIZATION CONVERGED AFTER 122 ITERATIONS ***

 final structure:
================
77
 xtb: 6.7.1 (edcfbbe)
O           -4.91283304355958       -2.31470590795482       -2.62140289672846
C           -4.39105652502122       -1.76923511170795       -1.66114044984248
C           -2.95373602079250       -1.89343411116282       -1.35968817858826
C           -2.06492644266611       -2.04132745191553       -2.42781893699425
C           -0.70642817327430       -2.10765027279117       -2.20866611238682
C           -0.20345899791928       -2.06166700433985       -0.90731002463987
N            1.18503400532305       -2.11128289048896       -0.68731913695847
C            2.02132030688880       -1.14342701281596       -1.25414880959465
C            1.52039389171390       -0.03254265659032       -1.92195184456018
C            2.37065123610749        0.91303049387704       -2.47351515601352
C            3.73926468497128        0.76786011328239       -2.36272115940266
C            4.25549732353176       -0.31510196994658       -1.66831703487268
C            3.40933438728998       -1.25490309053730       -1.10736647433164
O            3.99503673074306       -2.27666534301843       -0.40376704760288
C            3.16153021407585       -3.19970682090911        0.17977725410448
C            3.76744549088111       -4.21904878961943        0.89177565396698
C            3.00305752453993       -5.21903988902083        1.47366971557211
C            1.63157152229891       -5.20181878172328        1.31581722919599
C            1.01960916679779       -4.18105122936490        0.60420130297282
C            1.76736609240886       -3.15047571088161        0.04700837901012
C           -1.09158768817267       -1.96794998684092        0.16382353932942
C           -2.44960548158754       -1.87423304622866       -0.05867030269514
C           -5.19319504036324       -0.87343511109125       -0.77376828791928
C           -6.58928620187773       -0.91029736041862       -0.81324533805798
C           -7.29805984976463       -0.02257618888954       -0.02010935396937
C           -6.59631961631131        0.86700706429589        0.77716765364673
C           -5.19991857500992        0.83438635483880        0.74532458425783
C           -4.40537466723747        1.73139311927199        1.63827525007387
O           -4.93379524707292        2.27202942889066        2.59768026960774
C           -2.96738849039303        1.86336788970123        1.34357394954361
C           -2.45727476707381        1.84981809557279        0.04483402735113
C           -1.09900969133880        1.95432289652314       -0.17143016539583
C           -0.21630280030133        2.05318534352802        0.90374025722277
N            1.17258107599433        2.11619111001647        0.69006424395191
C            2.01559834844103        1.15720999341955        1.26206168438017
C            1.52224673074263        0.03924312216290        1.92366428042064
C            2.37895487401719       -0.89664651273038        2.48170354001540
C            3.74664930664947       -0.73472688180815        2.38326677565673
C            4.25588487063839        0.35503697470064        1.69442272312119
C            3.40335899296441        1.28521993996961        1.12710609493820
O            3.98274061767472        2.31441939237342        0.42919943381219
C            3.14326473862758        3.22818650105424       -0.16031645212235
C            3.74319765363109        4.25488802385828       -0.86680050123995
C            2.97221573076586        5.24674254226520       -1.45383138799265
C            1.59983838564408        5.21395737972285       -1.30657524542684
C            0.99391416297794        4.18572413660694       -0.60056683059438
C            1.74873355847877        3.16290917578833       -0.03860453693821
C           -0.72535936448158        2.09155083437246        2.20301125423157
C           -2.08426852169463        2.01485344963840        2.41594607624901
N           -4.52480155848552       -0.01831037537008       -0.01258791348387
H           -2.46201860695270       -2.08874331996929       -3.43113840553112
H           -0.02414778860012       -2.20633012989838       -3.03992407324842
H            0.45330247990106        0.09077939572752       -2.01055370275824
H            1.95403507761504        1.76504195460180       -2.98867373802002
H            4.40602996989828        1.49605166781589       -2.79614682106963
H            5.31839240964807       -0.44624917583094       -1.54166325245284
H            4.84317352497710       -4.21453819143450        0.97042618313433
H            3.48440927807016       -6.00832820185378        2.02929895317287
H            1.02321231000145       -5.98566401802393        1.74024986323040
H           -0.04998297053938       -4.19734007763228        0.46959701885635
H           -0.70687598336839       -1.95517563027791        1.17162893217514
H           -3.12169575980729       -1.79896830177008        0.78056203449902
H           -7.07988620825032       -1.62588967766084       -1.45474260619896
H           -8.37780347976847       -0.02408750968592       -0.02314978302074
H           -7.09261523064201        1.58082776879714        1.41624549252558
H           -3.12502176986312        1.77080271599130       -0.79752899894871
H           -0.70968663880940        1.94639804378085       -1.17747866598620
H            0.45596687260757       -0.09729128036711        2.00220185701995
H            1.96816876907662       -1.75443707841397        2.99193131845524
H            4.41830109367135       -1.45527381428675        2.82187668337429
H            5.31818780353672        0.49913111504302        1.57714122279236
H            4.81950877160428        4.26266453584178       -0.93687816624294
H            3.44900149375636        6.04182400389922       -2.00510463499384
H            0.98599592828515        5.99131710160913       -1.73501154825043
H           -0.07678143406085        4.19014385741229       -0.47421658455257
H           -0.04759790394660        2.19320277175228        3.03760585960286
H           -2.48608318875391        2.05714088496925        3.41760914256842

          :  Hamiltonian                  GFN2-xTB          :
         :: gradient norm              0.000058473579 Eh/a0 ::
         :: HOMO-LUMO gap              0.939116988103 eV    ::
         :: SCC energy              -133.143524866842 Eh    ::
         :: -> dispersion             -0.128442335157 Eh    ::
         :: -> Gsolv                  -0.047458790859 Eh    ::
         :: repulsion energy           2.181744483992 Eh    ::

    * Orbital Energies and Occupations

         #    Occupation            Energy/Eh            Energy/eV
      -------------------------------------------------------------
         1        2.0000           -0.7319878             -19.9184
       ...           ...                  ...                  ...
       107        2.0000           -0.4232216             -11.5164
       108        2.0000           -0.4229578             -11.5093
       109        2.0000           -0.4223885             -11.4938
       110        2.0000           -0.4214208             -11.4674
       111        2.0000           -0.4166226             -11.3369
       112        2.0000           -0.4157076             -11.3120
       113        2.0000           -0.4142940             -11.2735
       114        2.0000           -0.4061661             -11.0523
       115        2.0000           -0.3937355             -10.7141
       116        2.0000           -0.3930457             -10.6953
       117        2.0000           -0.3876203             -10.5477
       118        2.0000           -0.3476801              -9.4609
       119        2.0000           -0.3476495              -9.4600 (HOMO)
       120                         -0.3131376              -8.5209 (LUMO)
       121                         -0.3107601              -8.4562
       122                         -0.2650830              -7.2133
       123                         -0.2553026              -6.9471
       124                         -0.2446453              -6.6571
       125                         -0.2433112              -6.6208
       126                         -0.2432946              -6.6204
       127                         -0.2396584              -6.5214
       128                         -0.2337205              -6.3599
       129                         -0.2313101              -6.2943
       130                         -0.2233690              -6.0782
       ...                                ...                  ...
       227                          0.6795246              18.4908
      -------------------------------------------------------------
                  HL-Gap            0.0345119 Eh            0.9391 eV

     #   Z          covCN         q      C6AA      α(0)
     1   8 O        0.858    -0.404    21.765     6.255
     2   6 C        2.830     0.224    23.293     7.909
     3   6 C        2.971    -0.010    28.267     8.721
     4   6 C        2.924    -0.016    28.402     8.740
     5   6 C        2.919    -0.038    28.952     8.824
     6   6 C        2.920     0.073    26.377     8.422
     7   7 N        2.750    -0.064    22.476     7.041
     8   6 C        2.923     0.039    27.123     8.541
     9   6 C        2.925    -0.061    29.528     8.911
    10   6 C        2.919    -0.039    28.975     8.827
    11   6 C        2.919    -0.037    28.924     8.819
    12   6 C        2.920    -0.055    29.375     8.888
    13   6 C        2.885     0.124    25.278     8.243
    14   8 O        1.709    -0.265    18.392     5.790
    15   6 C        2.885     0.125    25.258     8.239
    16   6 C        2.920    -0.056    29.397     8.891
    17   6 C        2.919    -0.039    28.975     8.827
    18   6 C        2.919    -0.038    28.951     8.823
    19   6 C        2.924    -0.060    29.484     8.905
    20   6 C        2.920     0.041    27.077     8.533
    21   6 C        2.920    -0.040    28.991     8.830
    22   6 C        2.920    -0.018    28.469     8.750
    23   6 C        2.953     0.073    26.368     8.422
    24   6 C        2.917    -0.022    28.567     8.765
    25   6 C        2.923    -0.007    28.184     8.706
    26   6 C        2.917    -0.022    28.567     8.765
    27   6 C        2.953     0.073    26.368     8.422
    28   6 C        2.830     0.224    23.293     7.909
    29   8 O        0.858    -0.404    21.767     6.255
    30   6 C        2.971    -0.010    28.268     8.721
    31   6 C        2.920    -0.018    28.470     8.750
    32   6 C        2.920    -0.040    28.993     8.830
    33   6 C        2.920     0.073    26.377     8.422
    34   7 N        2.750    -0.064    22.476     7.041
    35   6 C        2.923     0.039    27.124     8.541
    36   6 C        2.925    -0.061    29.527     8.911
    37   6 C        2.919    -0.039    28.974     8.827
    38   6 C        2.919    -0.037    28.922     8.819
    39   6 C        2.920    -0.055    29.374     8.888
    40   6 C        2.885     0.124    25.278     8.243
    41   8 O        1.709    -0.265    18.391     5.790
    42   6 C        2.885     0.125    25.258     8.239
    43   6 C        2.920    -0.056    29.397     8.891
    44   6 C        2.919    -0.039    28.975     8.827
    45   6 C        2.919    -0.038    28.951     8.823
    46   6 C        2.924    -0.060    29.484     8.905
    47   6 C        2.920     0.041    27.077     8.533
    48   6 C        2.919    -0.038    28.952     8.824
    49   6 C        2.924    -0.016    28.402     8.740
    50   7 N        1.846    -0.228    26.822     7.676
    51   1 H        0.926     0.058     2.225     2.332
    52   1 H        0.926     0.056     2.244     2.342
    53   1 H        0.926     0.041     2.432     2.438
    54   1 H        0.926     0.039     2.457     2.451
    55   1 H        0.926     0.043     2.412     2.428
    56   1 H        0.926     0.050     2.323     2.384
    57   1 H        0.926     0.051     2.310     2.377
    58   1 H        0.926     0.045     2.383     2.414
    59   1 H        0.926     0.044     2.397     2.421
    60   1 H        0.926     0.043     2.404     2.425
    61   1 H        0.926     0.058     2.226     2.333
    62   1 H        0.926     0.053     2.286     2.364
    63   1 H        0.926     0.069     2.098     2.265
    64   1 H        0.926     0.066     2.125     2.280
    65   1 H        0.926     0.069     2.098     2.265
    66   1 H        0.926     0.053     2.286     2.364
    67   1 H        0.926     0.058     2.224     2.332
    68   1 H        0.926     0.041     2.433     2.439
    69   1 H        0.926     0.039     2.458     2.452
    70   1 H        0.926     0.043     2.410     2.428
    71   1 H        0.926     0.050     2.323     2.383
    72   1 H        0.926     0.051     2.310     2.377
    73   1 H        0.926     0.045     2.383     2.414
    74   1 H        0.926     0.044     2.397     2.421
    75   1 H        0.926     0.043     2.404     2.424
    76   1 H        0.926     0.056     2.245     2.343
    77   1 H        0.926     0.058     2.225     2.333

molecular dipole:
                 x           y           z       tot (Debye)
 q only:        0.667       0.004      -0.002
   full:        0.188       0.003      -0.003       0.478

 projected vibrational frequencies (cm⁻¹)
eigval :       -0.00    -0.00    -0.00     0.00     0.00     0.00
eigval :       17.34    22.41    23.95    26.33    34.48    39.25
eigval :       50.98    55.34    56.37    60.97    67.41    82.09
eigval :       91.01    92.29   115.80   126.73   129.23   133.95
eigval :      137.32   161.41   161.87   167.59   177.61   208.57
eigval :      213.86   232.10   250.21   254.18   264.88   267.50
eigval :      278.79   281.17   281.77   294.09   338.96   343.66
eigval :      357.70   375.80   378.88   380.62   384.41   384.58
eigval :      393.54   402.49   417.16   419.12   432.03   436.12
eigval :      442.38   444.95   450.32   452.41   476.06   480.40
eigval :      510.19   510.95   524.60   524.90   530.67   540.05
eigval :      558.72   560.96   584.39   586.52   592.69   595.04
eigval :      610.30   610.82   622.29   635.90   651.63   658.44
eigval :      661.30   662.54   662.91   664.91   682.46   694.17
eigval :      697.47   717.81   722.51   742.71   777.87   779.13
eigval :      779.69   780.50   785.69   799.79   801.95   817.84
eigval :      824.48   826.45   854.48   855.15   860.79   865.83
eigval :      866.72   868.60   873.62   876.23   890.50   897.45
eigval :      898.42   900.13   901.05   906.10   912.46   914.45
eigval :      914.70   915.00   916.44   917.13   917.41   928.56
eigval :      931.72   935.49   935.97   938.61   940.97   982.89
eigval :     1009.72  1026.07  1027.19  1088.39  1089.03  1091.52
eigval :     1091.87  1103.75  1107.45  1107.76  1118.28  1119.02
eigval :     1131.10  1131.51  1153.22  1167.40  1168.28  1172.29
eigval :     1173.63  1173.90  1178.83  1179.27  1185.50  1189.02
eigval :     1196.63  1201.36  1201.82  1219.45  1223.17  1240.83
eigval :     1241.35  1245.11  1257.68  1258.90  1260.06  1261.04
eigval :     1277.54  1305.35  1305.46  1305.88  1307.00  1307.72
eigval :     1318.29  1318.34  1332.99  1333.14  1351.99  1352.06
eigval :     1395.55  1400.21  1400.97  1415.61  1422.31  1422.71
eigval :     1441.08  1441.30  1468.83  1469.18  1478.19  1479.41
eigval :     1500.89  1500.99  1544.95  1546.74  1548.51  1552.43
eigval :     1567.54  1567.67  1572.09  1573.56  1578.58  1578.78
eigval :     1589.14  1589.33  1600.76  1600.96  1649.83  1653.48
eigval :     3084.21  3085.00  3085.02  3087.69  3087.89  3090.26
eigval :     3090.34  3094.99  3095.10  3096.68  3096.84  3099.98
eigval :     3100.27  3100.79  3101.36  3102.13  3103.86  3106.90
eigval :     3107.36  3110.05  3111.01  3111.25  3111.42  3111.58
eigval :     3111.85  3114.56  3115.19

   temp. (K)  partition function   enthalpy   heat capacity  entropy
                                   cal/mol     cal/K/mol   cal/K/mol   J/K/mol
 298.15  VIB  0.480E+17            22855.449    146.216    140.278
         ROT  0.292E+08              888.752      2.981     37.143
         INT  0.140E+25            23744.201    149.197    177.421
         TR   0.160E+29             1481.254      4.968     45.275
         TOT                       25225.4553   154.1647   222.6967   931.7628

       T/K    H(0)-H(T)+PV         H(T)/Eh          T*S/Eh         G(T)/Eh
   ------------------------------------------------------------------------
    298.15    0.401993E-01    0.610951E+00    0.105810E+00    0.505140E+00
   ------------------------------------------------------------------------

         :::::::::::::::::::::::::::::::::::::::::::::::::::::
         ::                  THERMODYNAMIC                  ::
         :::::::::::::::::::::::::::::::::::::::::::::::::::::
         :: total free energy        -130.456639993475 Eh   ::
         ::.................................................::
         :: total energy             -130.961780380915 Eh   ::
         :: zero point energy           0.570751435585 Eh   ::
         :: G(RRHO) w/o ZPVE           -0.065611048145 Eh   ::
         :: G(RRHO) contrib.            0.505140387440 Eh   ::
         :::::::::::::::::::::::::::::::::::::::::::::::::::::

           -------------------------------------------------
          | TOTAL ENERGY             -130.961780380915 Eh   |
          | TOTAL ENTHALPY           -130.350829623489 Eh   |
          | TOTAL FREE ENERGY        -130.456639993475 Eh   |
          | GRADIENT NORM               0.000058479744 Eh/α |
          | HOMO-LUMO GAP               0.939116366932 eV   |
           -------------------------------------------------

 * finished run on 2025/09/07 at 04:37:47.318
