   * xtb version 6.7.1 (edcfbbe) compiled by 'albert@albert-system' on 2024-07-22

   ID    Z sym.   atoms
    1    8 O      1, 14, 29, 41
    2    6 C      2-6, 8-13, 15-28, 30-33, 35-40, 42-49
    3    7 N      7, 34, 50
    4    1 H      51-77

          program call               : xtb data2507/toluene/26DPXZBPy/26DPXZBPy_toluene_T1_crest.xyz --gfn 2 --uhf 2 --gbsa toluene --ohess vtight --parallel 40 --molden --ceasefiles --namespace data2507/toluene/26DPXZBPy/26DPXZBPy_toluene_T1_finalOpt
      * Solvation model:               GBSA
        Solvent                        toluene
        Solvent mass                       9.2140E+01 g/mol
          :  Hamiltonian                  GFN2-xTB          :
 * total energy  :  -130.9075373 Eh     change       -0.1969880E-08 Eh
 * total energy  :  -130.9079181 Eh     change       -0.3808111E-03 Eh
 * total energy  :  -130.9080941 Eh     change       -0.1759942E-03 Eh
 * total energy  :  -130.9081265 Eh     change       -0.3244623E-04 Eh
 * total energy  :  -130.9081712 Eh     change       -0.4472992E-04 Eh
 * total energy  :  -130.9082003 Eh     change       -0.2906693E-04 Eh
 * total energy  :  -130.9082257 Eh     change       -0.2535416E-04 Eh
 * total energy  :  -130.9082440 Eh     change       -0.1833034E-04 Eh
 * total energy  :  -130.9082593 Eh     change       -0.1535624E-04 Eh
 * total energy  :  -130.9082706 Eh     change       -0.1120616E-04 Eh
 * total energy  :  -130.9083556 Eh     change       -0.3300052E-06 Eh
 * total energy  :  -130.9083559 Eh     change       -0.3355284E-06 Eh
 * total energy  :  -130.9083562 Eh     change       -0.3052664E-06 Eh
 * total energy  :  -130.9083565 Eh     change       -0.2655604E-06 Eh
 * total energy  :  -130.9083567 Eh     change       -0.2143760E-06 Eh
 * total energy  :  -130.9083569 Eh     change       -0.1805355E-06 Eh
 * total energy  :  -130.9083570 Eh     change       -0.1619708E-06 Eh
 * total energy  :  -130.9083572 Eh     change       -0.1217182E-06 Eh
 * total energy  :  -130.9083572 Eh     change       -0.7038742E-07 Eh
   *** GEOMETRY OPTIMIZATION CONVERGED AFTER 42 ITERATIONS ***

 final structure:
================
77
 xtb: 6.7.1 (edcfbbe)
O           -4.98581492032696       -2.74313383629872       -2.19206915082470
C           -4.43442367662791       -1.98237406626585       -1.37381486637610
C           -2.98016323905843       -2.02064017200032       -1.15932103669583
C           -2.16182168800692       -2.45961251172262       -2.20946327148150
C           -0.78989738123062       -2.47392609371627       -2.08536822991412
C           -0.20078636315975       -2.06353563167375       -0.89092035085002
N            1.21221363761523       -2.02193869814582       -0.75311150365614
C            1.95396037425338       -1.07734515852926       -1.44686902788889
C            1.36784323341704       -0.16701757827281       -2.32450312211032
C            2.13908492462423        0.76992825827407       -2.98813095418254
C            3.51072145331900        0.81418690369164       -2.79685161926458
C            4.11263608091463       -0.08072949346569       -1.92832522953837
C            3.34575893157633       -1.01515639680087       -1.25100156925571
O            3.99428914487886       -1.85320914745668       -0.39054086920284
C            3.25479713346939       -2.79291217057355        0.26848408957436
C            3.93295101056401       -3.66364338271216        1.10667293743177
C            3.24149794723855       -4.65158119418313        1.78581792974203
C            1.87068167381938       -4.77315854506709        1.61735088097652
C            1.18590476313613       -3.90959041598970        0.78264052109483
C            1.86208364727370       -2.89780134483730        0.10316502211649
C           -1.00428032512994       -1.68098935561792        0.18029917414235
C           -2.37520684794781       -1.65950046118705        0.04923200604857
C           -5.21489483768198       -0.97499597330934       -0.64197179370388
C           -6.62218582496524       -1.00554891593739       -0.67367360104532
C           -7.31956107279467       -0.01210206370825       -0.00898465820083
C           -6.62702062383259        0.98346770983546        0.65761335181070
C           -5.21958122805275        0.95717527515643        0.62978551882960
C           -4.44421218455899        1.96705708229212        1.36364934532429
O           -5.00011416956424        2.72578049596119        2.18064941068871
C           -2.98958753664386        2.01034561846602        1.15263083925843
C           -2.38047911599300        1.65110226644045       -0.05439108027824
C           -1.00933785102584        1.67759234156425       -0.18224195766321
C           -0.20977747682521        2.06340037873597        0.89073987511680
N            1.20369177750746        2.02712697764077        0.75617327348377
C            1.94739269723302        1.08522611601209        1.45151392167248
C            1.36268105190039        0.17260624743851        2.32769523436538
C            2.13592760679849       -0.76145243306026        2.99306607178158
C            3.50815958582603       -0.80050098733530        2.80496756017756
C            4.10869174480320        0.09672077446786        1.93786174052657
C            3.33985625507132        1.02828887283987        1.25882595835813
O            3.98719205937865        1.86883773820575        0.39988626109936
C            3.24564474791930        2.80565510725355       -0.26095427552412
C            3.92238188265443        3.67875177373526       -1.09782269294653
C            3.22872721950197        4.66393745591625       -1.77872340634212
C            1.85709820112278        4.78041157853087       -1.61331027774575
C            1.17372075230110        3.91446918056426       -0.77990514297994
C            1.85218725543113        2.90535186885303       -0.09874515593308
C           -0.80317751910910        2.47187969085034        2.08370649409770
C           -2.17532538888705        2.45251553402826        2.20459469197364
N           -4.56482969708824       -0.00790546999555       -0.00518919575096
H           -2.63645686054297       -2.77413579747475       -3.12747095913360
H           -0.16919677320329       -2.79964763136329       -2.90715206496414
H            0.30330213695687       -0.20896023657199       -2.48952058827636
H            1.66292629229829        1.46483385353370       -3.66172541760415
H            4.11053291316778        1.53957182775297       -3.32145375731026
H            5.17619299162921       -0.06911477808676       -1.75383646646339
H            5.00070409563945       -3.55226566820415        1.20409570109065
H            3.77300762298258       -5.32740734651850        2.43645680299652
H            1.32738244378803       -5.54918123919656        2.13331504025932
H            0.12203706253979       -4.01792201796321        0.64490813897325
H           -0.54061896625592       -1.39869842142629        1.11240501578382
H           -2.98492693566105       -1.36265717817458        0.88635131733876
H           -7.11229031917514       -1.80344016338964       -1.20921063638205
H           -8.40066664978368       -0.01371343771799       -0.01047320013134
H           -7.12100148267716        1.77989764678138        1.19176279859931
H           -2.98711663236804        1.35179943493071       -0.89287594800693
H           -0.54243218047657        1.39681098977395       -1.11318129243184
H            0.29759723108693        0.21046228764261        2.49018351634414
H            1.66084610835383       -1.45821290482275        3.66550055609901
H            4.10949731384085       -1.52361845741380        3.33095109738334
H            5.17268299722945        0.08912159800905        1.76581651383948
H            4.99075839573467        3.57135889735873       -1.19286960465748
H            3.75913129329055        5.34157129361800       -2.42838109068984
H            1.31203056970964        5.55424937036921       -2.13068251670187
H            0.10914928098491        4.01883553954676       -0.64455159143171
H           -0.18558065358881        2.80011787092302        2.90682030274588
H           -2.65327572933652        2.76555820989292        3.12138557249485

          :  Hamiltonian                  GFN2-xTB          :
         :: gradient norm              0.000100759116 Eh/a0 ::
         :: HOMO-LUMO gap              0.030160353749 eV    ::
         :: SCC energy              -133.076800217742 Eh    ::
         :: -> dispersion             -0.128833493080 Eh    ::
         :: -> Gsolv                  -0.064782766471 Eh    ::
         :: repulsion energy           2.168442927976 Eh    ::

    * Orbital Energies and Occupations

         #    Occupation            Energy/Eh            Energy/eV
      -------------------------------------------------------------
         1        2.0000           -0.7556160             -20.5614
       ...           ...                  ...                  ...
       108        2.0000           -0.4234981             -11.5240
       109        2.0000           -0.4172344             -11.3535
       110        2.0000           -0.4169681             -11.3463
       111        2.0000           -0.4155373             -11.3073
       112        2.0000           -0.4113809             -11.1942
       113        2.0000           -0.4096932             -11.1483
       114        2.0000           -0.4081572             -11.1065
       115        2.0000           -0.3991220             -10.8607
       116        2.0000           -0.3792161             -10.3190
       117        1.9124           -0.3645398              -9.9196
       118        1.8809           -0.3642142              -9.9108
       119        1.2066           -0.3610351              -9.8243
       120        0.6419           -0.2921009              -7.9485 (HOMO)
       121        0.3581           -0.2909918              -7.9183 (LUMO)
       122                         -0.2638742              -7.1804
       123                         -0.2570216              -6.9939
       124                         -0.2492187              -6.7816
       125                         -0.2476886              -6.7399
       126                         -0.2468050              -6.7159
       127                         -0.2436540              -6.6302
       128                         -0.2387260              -6.4961
       129                         -0.2340605              -6.3691
       130                         -0.2337620              -6.3610
       131                         -0.2316444              -6.3034
       ...                                ...                  ...
       227                          0.6805015              18.5174
      -------------------------------------------------------------
                  HL-Gap            0.0011091 Eh            0.0302 eV

     #   Z          covCN         q      C6AA      α(0)
     1   8 O        0.857    -0.490    23.570     6.509
     2   6 C        2.831     0.189    23.968     8.023
     3   6 C        2.969    -0.008    28.220     8.714
     4   6 C        2.925    -0.022    28.566     8.765
     5   6 C        2.916    -0.039    28.971     8.826
     6   6 C        2.923     0.050    26.878     8.502
     7   7 N        2.752    -0.027    21.773     6.930
     8   6 C        2.925     0.041    27.090     8.535
     9   6 C        2.921    -0.055    29.359     8.885
    10   6 C        2.918    -0.032    28.808     8.802
    11   6 C        2.919    -0.032    28.793     8.799
    12   6 C        2.917    -0.050    29.236     8.867
    13   6 C        2.885     0.128    25.188     8.228
    14   8 O        1.709    -0.226    17.750     5.688
    15   6 C        2.885     0.129    25.168     8.225
    16   6 C        2.917    -0.051    29.260     8.870
    17   6 C        2.919    -0.029    28.733     8.790
    18   6 C        2.918    -0.029    28.718     8.788
    19   6 C        2.921    -0.050    29.248     8.869
    20   6 C        2.925     0.043    27.032     8.526
    21   6 C        2.919    -0.040    29.000     8.831
    22   6 C        2.920    -0.026    28.652     8.778
    23   6 C        2.937     0.066    26.519     8.446
    24   6 C        2.916    -0.044    29.083     8.843
    25   6 C        2.920    -0.019    28.480     8.751
    26   6 C        2.916    -0.044    29.083     8.843
    27   6 C        2.937     0.066    26.519     8.446
    28   6 C        2.831     0.189    23.968     8.022
    29   8 O        0.857    -0.490    23.568     6.509
    30   6 C        2.969    -0.008    28.220     8.714
    31   6 C        2.920    -0.026    28.652     8.778
    32   6 C        2.919    -0.040    29.000     8.831
    33   6 C        2.923     0.050    26.878     8.502
    34   7 N        2.752    -0.027    21.773     6.930
    35   6 C        2.925     0.041    27.090     8.535
    36   6 C        2.921    -0.055    29.358     8.885
    37   6 C        2.918    -0.032    28.808     8.802
    38   6 C        2.919    -0.032    28.792     8.799
    39   6 C        2.917    -0.050    29.236     8.867
    40   6 C        2.885     0.128    25.188     8.228
    41   8 O        1.709    -0.226    17.750     5.688
    42   6 C        2.885     0.129    25.168     8.225
    43   6 C        2.917    -0.051    29.260     8.870
    44   6 C        2.919    -0.029    28.733     8.790
    45   6 C        2.918    -0.029    28.718     8.788
    46   6 C        2.921    -0.050    29.248     8.869
    47   6 C        2.925     0.043    27.032     8.526
    48   6 C        2.916    -0.039    28.971     8.826
    49   6 C        2.925    -0.022    28.566     8.765
    50   7 N        1.848    -0.245    27.252     7.737
    51   1 H        0.926     0.049     2.337     2.390
    52   1 H        0.926     0.052     2.298     2.370
    53   1 H        0.926     0.052     2.295     2.369
    54   1 H        0.926     0.055     2.261     2.351
    55   1 H        0.926     0.060     2.197     2.318
    56   1 H        0.926     0.068     2.106     2.269
    57   1 H        0.926     0.069     2.097     2.265
    58   1 H        0.926     0.061     2.182     2.310
    59   1 H        0.926     0.058     2.227     2.334
    60   1 H        0.926     0.054     2.274     2.358
    61   1 H        0.926     0.050     2.324     2.384
    62   1 H        0.926     0.049     2.333     2.389
    63   1 H        0.926     0.041     2.433     2.439
    64   1 H        0.926     0.040     2.452     2.449
    65   1 H        0.926     0.041     2.433     2.439
    66   1 H        0.926     0.049     2.333     2.389
    67   1 H        0.926     0.050     2.324     2.384
    68   1 H        0.926     0.052     2.295     2.369
    69   1 H        0.926     0.055     2.261     2.351
    70   1 H        0.926     0.060     2.197     2.318
    71   1 H        0.926     0.068     2.106     2.269
    72   1 H        0.926     0.069     2.097     2.265
    73   1 H        0.926     0.061     2.182     2.310
    74   1 H        0.926     0.058     2.227     2.334
    75   1 H        0.926     0.054     2.274     2.358
    76   1 H        0.926     0.052     2.298     2.370
    77   1 H        0.926     0.049     2.337     2.390

molecular dipole:
                 x           y           z       tot (Debye)
 q only:        8.234       0.015       0.010
   full:        7.570       0.014       0.009      19.240

 projected vibrational frequencies (cm⁻¹)
eigval :       -0.00    -0.00    -0.00     0.00     0.00     0.00
eigval :       20.85    21.48    23.01    26.22    39.38    39.96
eigval :       48.96    51.37    60.99    67.29    68.17    75.71
eigval :       82.95    87.44   112.53   126.76   128.21   131.95
eigval :      140.74   155.42   161.51   163.61   177.26   204.37
eigval :      216.47   237.86   248.50   248.76   262.98   266.42
eigval :      279.49   283.20   285.01   299.28   338.12   343.54
eigval :      370.51   375.79   379.00   379.73   383.69   385.71
eigval :      396.83   406.33   413.61   417.89   433.43   436.44
eigval :      439.27   440.21   455.80   463.37   472.71   477.25
eigval :      500.35   501.01   522.22   527.59   529.56   536.23
eigval :      550.57   553.09   580.35   582.13   588.06   588.69
eigval :      602.67   608.84   612.40   615.52   643.60   654.10
eigval :      664.45   667.03   668.20   671.45   671.59   674.32
eigval :      689.40   698.76   703.25   715.66   769.27   778.30
eigval :      779.17   782.86   782.96   786.94   799.05   807.23
eigval :      808.74   813.35   851.13   855.97   856.22   856.51
eigval :      862.31   871.22   871.78   874.17   876.04   881.17
eigval :      899.48   899.79   904.81   905.50   907.82   908.21
eigval :      909.19   912.20   915.37   916.07   920.06   920.19
eigval :      922.92   925.54   927.75   930.52   932.00   986.30
eigval :      989.66  1016.79  1023.28  1082.45  1083.40  1084.00
eigval :     1084.30  1093.77  1113.15  1113.35  1117.16  1120.17
eigval :     1124.73  1130.63  1130.95  1158.48  1161.85  1167.25
eigval :     1169.80  1171.40  1171.53  1174.94  1183.47  1184.64
eigval :     1198.74  1205.45  1207.98  1208.86  1222.11  1227.65
eigval :     1235.93  1236.33  1251.15  1251.75  1254.50  1257.07
eigval :     1258.10  1259.07  1305.09  1305.92  1307.39  1309.50
eigval :     1315.20  1315.37  1324.01  1324.65  1339.66  1342.34
eigval :     1349.22  1362.45  1398.28  1401.49  1416.46  1416.68
eigval :     1432.13  1438.24  1438.41  1439.52  1440.56  1447.89
eigval :     1453.10  1457.87  1462.95  1478.87  1504.87  1524.46
eigval :     1526.80  1554.90  1555.15  1555.29  1561.95  1562.27
eigval :     1564.66  1566.59  1570.05  1574.89  1581.07  1584.42
eigval :     3061.40  3080.07  3080.34  3090.78  3090.99  3097.22
eigval :     3097.56  3097.60  3098.85  3099.63  3099.67  3101.97
eigval :     3102.73  3105.32  3105.37  3109.76  3110.12  3113.36
eigval :     3113.39  3113.55  3114.34  3115.01  3115.60  3116.94
eigval :     3117.04  3120.80  3121.57

   temp. (K)  partition function   enthalpy   heat capacity  entropy
                                   cal/mol     cal/K/mol   cal/K/mol   J/K/mol
 298.15  VIB  0.482E+17            22974.634    147.344    141.005
         ROT  0.282E+08              888.752      2.981     37.074
         INT  0.136E+25            23863.387    150.325    178.079
         TR   0.160E+29             1481.254      4.968     45.275
         TOT                       25344.6405   155.2933   223.3547   934.5161

       T/K    H(0)-H(T)+PV         H(T)/Eh          T*S/Eh         G(T)/Eh
   ------------------------------------------------------------------------
    298.15    0.403893E-01    0.607676E+00    0.106123E+00    0.501553E+00
   ------------------------------------------------------------------------

         :::::::::::::::::::::::::::::::::::::::::::::::::::::
         ::                  THERMODYNAMIC                  ::
         :::::::::::::::::::::::::::::::::::::::::::::::::::::
         :: total free energy        -130.406804599149 Eh   ::
         ::.................................................::
         :: total energy             -130.908357292971 Eh   ::
         :: zero point energy           0.567286468541 Eh   ::
         :: G(RRHO) w/o ZPVE           -0.065733774720 Eh   ::
         :: G(RRHO) contrib.            0.501552693821 Eh   ::
         :::::::::::::::::::::::::::::::::::::::::::::::::::::

           -------------------------------------------------
          | TOTAL ENERGY             -130.908357292971 Eh   |
          | TOTAL ENTHALPY           -130.300681568897 Eh   |
          | TOTAL FREE ENERGY        -130.406804599149 Eh   |
          | GRADIENT NORM               0.000049985210 Eh/α |
          | HOMO-LUMO GAP               0.030180151154 eV   |
           -------------------------------------------------

 * finished run on 2025/09/07 at 04:44:27.508
