   * xtb version 6.7.1 (edcfbbe) compiled by 'albert@albert-system' on 2024-07-22

   ID    Z sym.   atoms
    1    6 C      1-5, 7-13, 15-19, 21-28, 30-46, 48-60, 62, 63
    2    7 N      6, 14, 20, 61
    3    8 O      29, 47
    4    1 H      64-97

          program call               : xtb data2507/toluene/BDBFCz-Trz/BDBFCz-Trz_toluene_S0_finalOpt.xtbopt.xyz --gfn 2 --uhf 2 --gbsa toluene --ohess vtight --parallel 40 --molden --ceasefiles --namespace data2507/toluene/BDBFCz-Trz/BDBFCz-Trz_toluene_T1_preOpt
      * Solvation model:               GBSA
        Solvent                        toluene
        Solvent mass                       9.2140E+01 g/mol
          :  Hamiltonian                  GFN2-xTB          :
 * total energy  :  -159.3178078 Eh     change        0.1572027E-07 Eh
 * total energy  :  -159.3197851 Eh     change       -0.1977307E-02 Eh
 * total energy  :  -159.3207512 Eh     change       -0.9661728E-03 Eh
 * total energy  :  -159.3209073 Eh     change       -0.1560659E-03 Eh
 * total energy  :  -159.3210590 Eh     change       -0.1517338E-03 Eh
 * total energy  :  -159.3210882 Eh     change       -0.2917582E-04 Eh
 * total energy  :  -159.3211017 Eh     change       -0.1352187E-04 Eh
 * total energy  :  -159.3211057 Eh     change       -0.3922922E-05 Eh
 * total energy  :  -159.3211110 Eh     change       -0.5329537E-05 Eh
 * total energy  :  -159.3211170 Eh     change       -0.6055719E-05 Eh
 * total energy  :  -159.3211551 Eh     change       -0.4004144E-06 Eh
 * total energy  :  -159.3211554 Eh     change       -0.3650098E-06 Eh
 * total energy  :  -159.3211558 Eh     change       -0.3437013E-06 Eh
 * total energy  :  -159.3211562 Eh     change       -0.3980353E-06 Eh
 * total energy  :  -159.3211567 Eh     change       -0.5387442E-06 Eh
 * total energy  :  -159.3211574 Eh     change       -0.6621625E-06 Eh
 * total energy  :  -159.3211578 Eh     change       -0.4282270E-06 Eh
 * total energy  :  -159.3211580 Eh     change       -0.1991820E-06 Eh
 * total energy  :  -159.3211581 Eh     change       -0.8690165E-07 Eh
   *** GEOMETRY OPTIMIZATION CONVERGED AFTER 41 ITERATIONS ***

 final structure:
================
97
 xtb: 6.7.1 (edcfbbe)
C           -9.39800338286868       -3.48359675724648       -3.63126748356187
C          -10.13842555866972       -2.63465579685137       -2.82221046120405
C           -9.50147434160011       -1.79295053494680       -1.93189317949822
C           -8.10844170771369       -1.78998643827858       -1.83922483974713
C           -7.43553688525002       -0.90200891056684       -0.89693400740091
N           -8.20431602317856       -0.12153169531949       -0.10937232096026
C           -7.54692219785876        0.68055194938655        0.75333320798843
C           -8.33939624488677        1.54448948354831        1.62204134872933
C           -7.71307973582146        2.41078287658274        2.52062275321628
C           -8.46603780010624        3.22792471989110        3.33914041068653
C           -9.85196878597539        3.19438255039397        3.27474488069512
C          -10.48169695730325        2.33621666159780        2.38563149793714
C           -9.73396488382886        1.51609519807158        1.56382369003668
N           -6.24176691016438        0.71677581642113        0.85167475737782
C           -5.51068858025688       -0.07946529974663        0.03107590214168
C           -4.09389372567960       -0.05430738633366        0.10556367471416
C           -3.30424536599120       -0.88055207848566       -0.72641206954421
C           -1.93716193461514       -0.85386613347587       -0.65292121429961
C           -1.29171501422285       -0.00035743293749        0.25425465463587
N            0.10506550759627        0.02733416134294        0.33075605250296
C            0.88882494641360        1.15822990055302        0.30582950663541
C            0.52308189929575        2.49076046726086        0.14753322079679
C            1.52345052094981        3.44026793680427        0.13637112876505
C            2.87743407295698        3.09944884883745        0.27893862132180
C            3.90604393416266        4.14665764307055        0.27629294769241
C            4.99079966517812        4.06219953284138        1.16291556838730
C            5.97975989053010        5.02493799502324        1.20843302814688
C            5.87460428578783        6.08966599676191        0.32959000959549
O            6.74006364994592        7.13379453017812        0.20947447455357
C            6.24018053324932        7.93145390864125       -0.77989370374737
C            6.79612238259628        9.11027116242863       -1.24284673143809
C            6.12782378855723        9.76742324224276       -2.26184776634402
C            4.94557384835604        9.26434045132564       -2.79895518794836
C            4.39070081738862        8.08736087376807       -2.33364558752450
C            5.04387663628758        7.41070005835823       -1.31184822247779
C            4.79969330096010        6.19567650381229       -0.57712786374411
C            3.81126876283399        5.22518848189789       -0.59904001769843
C            3.23986026985267        1.75757465188749        0.41217581533367
C            2.25372072821933        0.79033087672979        0.41457635893614
C            2.27718872349928       -0.64804393892059        0.50696188095976
C            3.29362244332508       -1.57381484567069        0.64110988838337
C            2.97340582294871       -2.93062671749266        0.72151037449961
C            4.03374900041932       -3.93712192524817        0.84899942288872
C            5.15406785593925       -3.68089647018731        1.65503333488022
C            6.17514876434026       -4.59778896319473        1.80838221782171
C            6.06450957109465       -5.79701473969819        1.12506681516124
O            6.95714642074761       -6.82486732380787        1.13444811353680
C            6.43637083996445       -7.78982261486891        0.32010323581672
C            7.00688365728077       -9.01626257753110        0.03129522673766
C            6.30950444268224       -9.85286446420445       -0.82357924683690
C            5.08530659631228       -9.47714953478027       -1.37075969584031
C            4.51691854768608       -8.25131282370885       -1.08096545943142
C            5.19875132776948       -7.39552684249186       -0.22587878021314
C            4.95173505872826       -6.07970421301377        0.30614598452109
C            3.93357318996628       -5.15023673964878        0.17235696342624
C            1.62692664132245       -3.32692676946415        0.68753824041394
C            0.59736586527995       -2.41792619427219        0.56352221078798
C            0.92504790798914       -1.07065531795098        0.45173871457556
C           -2.06187960427680        0.82515540467670        1.08718227953647
C           -3.42874708879862        0.79951359563092        1.01515554796111
N           -6.12654946251444       -0.89732550958698       -0.86000713677435
C           -7.37016010729801       -2.64730268420358       -2.65774800568604
C           -8.01284985221878       -3.48651017719131       -3.54522228291746
H           -9.89834852473580       -4.14131743251507       -4.32661534467348
H          -11.21686537895792       -2.62998543559466       -2.88768331938633
H          -10.06363784082452       -1.12547292767081       -1.29672260358598
H           -6.63448510969482        2.42576418134669        2.55902539095846
H           -7.97385579035916        3.89564714401810        4.03140685193897
H          -10.43887352124963        3.83512828090339        3.91613826863652
H          -11.56055082493289        2.30798662255643        2.33454553571463
H          -10.20944592668021        0.84234182635200        0.86735997633871
H           -3.80894320187059       -1.52407622862457       -1.43030409823733
H           -1.34301058476510       -1.46534225519888       -1.31629634116640
H           -0.51129294548109        2.77431023430632        0.03010280800422
H            1.25594434060924        4.48112316115948        0.03671945216120
H            5.03811273809037        3.23188170340596        1.85072000810728
H            6.80346087488881        4.95847349772521        1.90136023013301
H            7.71220260474215        9.49383794124186       -0.82234793547380
H            6.53386040192366       10.69023885212271       -2.64794031517020
H            4.45587564698376        9.80698178196566       -3.59378524995994
H            3.47444420743422        7.69924912155880       -2.75118093858386
H            2.99720633676510        5.29332500701775       -1.30360758009304
H            4.27959222226592        1.47816348950564        0.48055731076133
H            4.32363364721981       -1.25391721586803        0.65888411281677
H            5.20646357120779       -2.74770912788984        2.19440132522604
H            7.02754367861554       -4.39592795122522        2.43749929396064
H            7.95524572842279       -9.30113010934918        0.45852796005330
H            6.72552768077982      -10.81797021423502       -1.07050418985139
H            4.57373380544644      -10.15871875663804       -2.03385816601538
H            3.56849846426764       -7.96150124404935       -1.50628551494730
H            3.09107372345839       -5.35556042911690       -0.46927378738578
H            1.38956230431756       -4.37442430641197        0.79309839049833
H           -0.43192065106430       -2.74161149935785        0.57032489568619
H           -1.56498606916908        1.45688977469649        1.80901312797500
H           -4.02917014567339        1.42149149085570        1.66082420376491
H           -6.29361244500755       -2.63872714898228       -2.57969630455500
H           -7.43469070883172       -4.14737252805926       -4.17474318174343

          :  Hamiltonian                  GFN2-xTB          :
         :: gradient norm              0.000043136193 Eh/a0 ::
         :: HOMO-LUMO gap              0.168811584428 eV    ::
         :: SCC energy              -162.177256786716 Eh    ::
         :: -> dispersion             -0.131554770209 Eh    ::
         :: -> Gsolv                  -0.076339599569 Eh    ::
         :: repulsion energy           2.856098711091 Eh    ::

    * Orbital Energies and Occupations

         #    Occupation            Energy/Eh            Energy/eV
      -------------------------------------------------------------
         1        2.0000           -0.7415099             -20.1775
       ...           ...                  ...                  ...
       136        2.0000           -0.4084975             -11.1158
       137        2.0000           -0.4049809             -11.0201
       138        2.0000           -0.4025926             -10.9551
       139        2.0000           -0.4008728             -10.9083
       140        2.0000           -0.3967921             -10.7973
       141        2.0000           -0.3933409             -10.7034
       142        2.0000           -0.3932076             -10.6997
       143        2.0000           -0.3920835             -10.6691
       144        2.0000           -0.3847338             -10.4691
       145        1.8561           -0.3697873             -10.0624
       146        1.7597           -0.3691867             -10.0461
       147        1.3843           -0.3676455             -10.0041
       148        0.9632           -0.2838180              -7.7231 (HOMO)
       149        0.0368           -0.2776142              -7.5543 (LUMO)
       150                         -0.2586737              -7.0389
       151                         -0.2585472              -7.0354
       152                         -0.2579137              -7.0182
       153                         -0.2561828              -6.9711
       154                         -0.2472351              -6.7276
       155                         -0.2400441              -6.5319
       156                         -0.2276268              -6.1940
       157                         -0.2254427              -6.1346
       158                         -0.2254285              -6.1342
       159                         -0.2233151              -6.0767
       ...                                ...                  ...
       286                          0.7425043              20.2046
      -------------------------------------------------------------
                  HL-Gap            0.0062038 Eh            0.1688 eV

     #   Z          covCN         q      C6AA      α(0)
     1   6 C        2.920    -0.030    28.743     8.792
     2   6 C        2.917    -0.030    28.753     8.793
     3   6 C        2.924    -0.030    28.754     8.794
     4   6 C        2.983    -0.010    28.256     8.719
     5   6 C        2.933     0.209    23.588     7.965
     6   7 N        1.843    -0.342    29.727     8.080
     7   6 C        2.932     0.209    23.587     7.965
     8   6 C        2.983    -0.010    28.256     8.720
     9   6 C        2.923    -0.031    28.770     8.796
    10   6 C        2.918    -0.030    28.756     8.794
    11   6 C        2.920    -0.030    28.743     8.792
    12   6 C        2.917    -0.030    28.753     8.793
    13   6 C        2.923    -0.030    28.753     8.794
    14   7 N        1.845    -0.299    28.587     7.924
    15   6 C        2.935     0.169    24.371     8.096
    16   6 C        2.976    -0.017    28.421     8.745
    17   6 C        2.920    -0.040    29.004     8.832
    18   6 C        2.915    -0.042    29.050     8.838
    19   6 C        2.913     0.038    27.158     8.545
    20   7 N        2.800     0.002    21.232     6.844
    21   6 C        3.078     0.045    26.913     8.505
    22   6 C        2.907    -0.040    28.990     8.829
    23   6 C        2.927    -0.036    28.887     8.814
    24   6 C        2.977     0.013    27.722     8.637
    25   6 C        2.977     0.007    27.856     8.657
    26   6 C        2.931    -0.036    28.893     8.815
    27   6 C        2.906    -0.052    29.298     8.875
    28   6 C        3.096     0.129    25.073     8.206
    29   8 O        1.714    -0.238    17.938     5.719
    30   6 C        3.097     0.127    25.107     8.212
    31   6 C        2.908    -0.052    29.298     8.875
    32   6 C        2.926    -0.031    28.782     8.798
    33   6 C        2.920    -0.037    28.932     8.821
    34   6 C        2.913    -0.033    28.823     8.804
    35   6 C        3.054    -0.019    28.434     8.745
    36   6 C        3.051    -0.018    28.420     8.743
    37   6 C        2.917    -0.038    28.934     8.821
    38   6 C        2.916    -0.032    28.807     8.801
    39   6 C        3.061    -0.010    28.205     8.709
    40   6 C        3.061    -0.010    28.206     8.709
    41   6 C        2.916    -0.032    28.806     8.801
    42   6 C        2.977     0.013    27.720     8.636
    43   6 C        2.977     0.007    27.853     8.657
    44   6 C        2.930    -0.036    28.892     8.815
    45   6 C        2.906    -0.052    29.297     8.875
    46   6 C        3.096     0.129    25.070     8.206
    47   8 O        1.714    -0.238    17.935     5.718
    48   6 C        3.097     0.127    25.107     8.212
    49   6 C        2.908    -0.052    29.296     8.875
    50   6 C        2.926    -0.031    28.781     8.798
    51   6 C        2.920    -0.037    28.931     8.820
    52   6 C        2.913    -0.033    28.822     8.803
    53   6 C        3.054    -0.019    28.433     8.745
    54   6 C        3.051    -0.018    28.418     8.743
    55   6 C        2.918    -0.038    28.934     8.821
    56   6 C        2.927    -0.036    28.888     8.814
    57   6 C        2.907    -0.040    28.991     8.829
    58   6 C        3.078     0.045    26.910     8.505
    59   6 C        2.915    -0.042    29.051     8.838
    60   6 C        2.921    -0.040    29.001     8.831
    61   7 N        1.845    -0.299    28.596     7.925
    62   6 C        2.923    -0.031    28.770     8.796
    63   6 C        2.918    -0.030    28.757     8.794
    64   1 H        0.926     0.041     2.432     2.439
    65   1 H        0.926     0.039     2.460     2.453
    66   1 H        0.926     0.041     2.430     2.438
    67   1 H        0.926     0.041     2.432     2.438
    68   1 H        0.926     0.040     2.448     2.447
    69   1 H        0.926     0.041     2.433     2.439
    70   1 H        0.926     0.039     2.460     2.452
    71   1 H        0.926     0.041     2.431     2.438
    72   1 H        0.926     0.038     2.471     2.458
    73   1 H        0.926     0.042     2.421     2.433
    74   1 H        0.926     0.045     2.378     2.412
    75   1 H        0.926     0.047     2.357     2.401
    76   1 H        0.926     0.052     2.290     2.367
    77   1 H        0.926     0.051     2.313     2.378
    78   1 H        0.926     0.047     2.356     2.400
    79   1 H        0.926     0.045     2.377     2.411
    80   1 H        0.926     0.043     2.407     2.426
    81   1 H        0.926     0.045     2.385     2.415
    82   1 H        0.926     0.049     2.331     2.388
    83   1 H        0.926     0.051     2.301     2.372
    84   1 H        0.926     0.052     2.297     2.370
    85   1 H        0.926     0.053     2.288     2.365
    86   1 H        0.926     0.051     2.313     2.378
    87   1 H        0.926     0.047     2.355     2.400
    88   1 H        0.926     0.046     2.376     2.410
    89   1 H        0.926     0.043     2.404     2.425
    90   1 H        0.926     0.045     2.381     2.413
    91   1 H        0.926     0.050     2.325     2.385
    92   1 H        0.926     0.047     2.356     2.400
    93   1 H        0.926     0.045     2.377     2.411
    94   1 H        0.926     0.042     2.425     2.435
    95   1 H        0.926     0.038     2.472     2.459
    96   1 H        0.926     0.041     2.432     2.438
    97   1 H        0.926     0.040     2.447     2.446

molecular dipole:
                 x           y           z       tot (Debye)
 q only:        3.818      -0.001      -0.302
   full:        3.799       0.007      -0.228       9.673

 projected vibrational frequencies (cm⁻¹)
eigval :       -0.00    -0.00    -0.00     0.00     0.00     0.00
eigval :        4.52     9.14    12.67    13.99    22.51    25.03
eigval :       28.92    31.14    35.35    39.61    42.20    53.83
eigval :       55.94    61.39    74.56    80.76    85.42    98.22
eigval :      102.74   110.93   112.51   118.88   129.15   137.24
eigval :      148.54   152.31   159.16   185.78   191.99   195.77
eigval :      215.29   217.25   222.86   234.27   242.62   252.02
eigval :      259.63   278.13   280.40   284.51   291.35   316.86
eigval :      342.66   358.95   368.38   369.76   370.81   372.30
eigval :      380.50   389.57   390.85   391.60   394.49   399.51
eigval :      407.79   408.85   417.38   423.45   428.54   431.62
eigval :      439.99   442.47   453.07   473.19   480.64   514.99
eigval :      520.35   531.06   537.02   537.65   550.20   553.13
eigval :      559.56   561.95   566.23   573.80   577.44   584.83
eigval :      585.56   589.95   596.08   600.01   601.00   605.89
eigval :      613.16   614.88   627.47   641.49   644.04   649.84
eigval :      660.03   663.95   665.13   667.21   683.57   688.93
eigval :      693.91   696.86   703.58   708.45   714.71   715.05
eigval :      720.14   760.80   762.61   766.98   776.26   779.77
eigval :      796.08   800.36   806.36   808.99   814.50   816.79
eigval :      832.77   834.10   837.53   842.21   843.43   843.69
eigval :      857.12   869.52   869.89   870.25   870.58   871.18
eigval :      873.39   873.71   876.84   898.64   899.57   901.00
eigval :      902.61   904.22   905.10   907.42   907.82   914.91
eigval :      916.57   919.14   921.96   922.59   925.26   926.18
eigval :      926.26   927.28   927.43   928.57   947.78   982.71
eigval :      987.74   992.71   996.28  1005.98  1026.95  1057.73
eigval :     1060.36  1060.45  1061.73  1062.20  1073.49  1075.24
eigval :     1107.53  1109.20  1114.88  1114.98  1121.24  1123.87
eigval :     1132.77  1136.24  1137.49  1143.07  1157.15  1162.71
eigval :     1169.73  1170.70  1176.00  1176.47  1178.00  1183.51
eigval :     1186.03  1189.99  1193.22  1206.16  1206.85  1216.19
eigval :     1218.19  1225.86  1235.15  1239.77  1241.81  1242.78
eigval :     1248.59  1249.61  1255.63  1265.22  1266.92  1269.21
eigval :     1270.00  1274.32  1293.62  1300.42  1322.58  1328.87
eigval :     1329.92  1334.35  1336.54  1339.37  1344.89  1345.61
eigval :     1348.48  1351.09  1360.62  1395.65  1397.55  1402.01
eigval :     1409.90  1411.94  1419.19  1421.39  1426.91  1428.66
eigval :     1434.17  1435.13  1436.91  1453.27  1462.02  1464.84
eigval :     1468.75  1472.25  1475.76  1480.39  1485.01  1488.43
eigval :     1544.20  1551.62  1552.37  1557.47  1561.82  1562.14
eigval :     1568.20  1569.11  1581.80  1582.09  1585.86  1589.45
eigval :     1591.87  1595.27  1597.88  1610.46  1611.27  3071.89
eigval :     3072.08  3074.88  3075.30  3077.08  3079.21  3081.12
eigval :     3082.34  3086.44  3087.08  3088.65  3089.46  3089.57
eigval :     3090.40  3091.97  3092.27  3094.87  3095.60  3095.81
eigval :     3096.26  3096.79  3097.01  3097.15  3097.91  3098.27
eigval :     3098.95  3099.52  3099.93  3100.80  3101.81  3103.97
eigval :     3104.07  3104.80  3105.17

   temp. (K)  partition function   enthalpy   heat capacity  entropy
                                   cal/mol     cal/K/mol   cal/K/mol   J/K/mol
 298.15  VIB  0.343E+24            28854.292    181.665    180.670
         ROT  0.410E+09              888.752      2.981     42.391
         INT  0.141E+33            29743.044    184.646    223.061
         TR   0.222E+29             1481.254      4.968     45.921
         TOT                       31224.2980   189.6144   268.9818  1125.4198

       T/K    H(0)-H(T)+PV         H(T)/Eh          T*S/Eh         G(T)/Eh
   ------------------------------------------------------------------------
    298.15    0.497591E-01    0.771153E+00    0.127802E+00    0.643351E+00
   ------------------------------------------------------------------------

         :::::::::::::::::::::::::::::::::::::::::::::::::::::
         ::                  THERMODYNAMIC                  ::
         :::::::::::::::::::::::::::::::::::::::::::::::::::::
         :: total free energy        -158.677806992936 Eh   ::
         ::.................................................::
         :: total energy             -159.321158084896 Eh   ::
         :: zero point energy           0.721393930691 Eh   ::
         :: G(RRHO) w/o ZPVE           -0.078042838731 Eh   ::
         :: G(RRHO) contrib.            0.643351091960 Eh   ::
         :::::::::::::::::::::::::::::::::::::::::::::::::::::

           -------------------------------------------------
          | TOTAL ENERGY             -159.321158084896 Eh   |
          | TOTAL ENTHALPY           -158.550005067975 Eh   |
          | TOTAL FREE ENERGY        -158.677806992936 Eh   |
          | GRADIENT NORM               0.000045172863 Eh/α |
          | HOMO-LUMO GAP               0.168812645975 eV   |
           -------------------------------------------------

 * finished run on 2025/09/03 at 17:52:44.650
