   * xtb version 6.7.1 (edcfbbe) compiled by 'albert@albert-system' on 2024-07-22

   ID    Z sym.   atoms
    1    6 C      1-5, 7-13, 15-19, 21-28, 30-46, 48-60, 62, 63
    2    7 N      6, 14, 20, 61
    3    8 O      29, 47
    4    1 H      64-97

          program call               : xtb data2507/toluene/BDBFCz-Trz/BDBFCz-Trz_toluene_T1_crest.xyz --gfn 2 --uhf 2 --gbsa toluene --ohess vtight --parallel 40 --molden --ceasefiles --namespace data2507/toluene/BDBFCz-Trz/BDBFCz-Trz_toluene_T1_finalOpt
      * Solvation model:               GBSA
        Solvent                        toluene
        Solvent mass                       9.2140E+01 g/mol
          :  Hamiltonian                  GFN2-xTB          :
 * total energy  :  -159.3209023 Eh     change       -0.2616616E-08 Eh
 * total energy  :  -159.3210566 Eh     change       -0.1543598E-03 Eh
 * total energy  :  -159.3211047 Eh     change       -0.4805304E-04 Eh
 * total energy  :  -159.3211082 Eh     change       -0.3523700E-05 Eh
 * total energy  :  -159.3211101 Eh     change       -0.1934630E-05 Eh
 * total energy  :  -159.3211124 Eh     change       -0.2248202E-05 Eh
 * total energy  :  -159.3211145 Eh     change       -0.2077463E-05 Eh
 * total energy  :  -159.3211164 Eh     change       -0.1950401E-05 Eh
 * total energy  :  -159.3211184 Eh     change       -0.1962307E-05 Eh
 * total energy  :  -159.3211206 Eh     change       -0.2216513E-05 Eh
 * total energy  :  -159.3211480 Eh     change       -0.1972498E-06 Eh
 * total energy  :  -159.3211482 Eh     change       -0.1605714E-06 Eh
 * total energy  :  -159.3211483 Eh     change       -0.1645242E-06 Eh
 * total energy  :  -159.3211485 Eh     change       -0.1782860E-06 Eh
 * total energy  :  -159.3211487 Eh     change       -0.2275392E-06 Eh
 * total energy  :  -159.3211489 Eh     change       -0.2012163E-06 Eh
 * total energy  :  -159.3211491 Eh     change       -0.1879247E-06 Eh
 * total energy  :  -159.3211493 Eh     change       -0.1915399E-06 Eh
 * total energy  :  -159.3211493 Eh     change       -0.1097379E-07 Eh
   *** GEOMETRY OPTIMIZATION CONVERGED AFTER 44 ITERATIONS ***

 final structure:
================
97
 xtb: 6.7.1 (edcfbbe)
C           -9.37984111016841       -3.57922914536146       -3.56440178525170
C          -10.12539618783994       -2.76027037616185       -2.72955345113131
C           -9.49228982613026       -1.89693926666821       -1.85738670694782
C           -8.09811725431681       -1.84176924532028       -1.80914075275090
C           -7.42952693768850       -0.93241569703533       -0.88438841966969
N           -8.20181377947456       -0.13937694730267       -0.11301269211106
C           -7.54811442387743        0.67944798717413        0.73668136137396
C           -8.34506515520106        1.56202446998358        1.58227789801488
C           -7.72558430340477        2.41520517333779        2.49790406650514
C           -8.48338099648877        3.25008822499209        3.29379425612429
C           -9.86722356948506        3.24837897779150        3.18877012975125
C          -10.49010655477392        2.40424499449095        2.28158829327776
C           -9.73755145342745        1.56623252876955        1.48256924854449
N           -6.24343628348891        0.71633966849494        0.84174355811837
C           -5.50877732019615       -0.09119315366660        0.03540005053480
C           -4.09223297924602       -0.06520836911220        0.11409785579029
C           -3.30078465015625       -0.89620940325211       -0.71150299771226
C           -1.93388981369432       -0.86760451445996       -0.63717077340570
C           -1.28987162400626       -0.00903218275597        0.26644632282432
N            0.10672119462007        0.02178839147009        0.34206532840619
C            0.88776697088119        1.15464733349219        0.31665469499477
C            0.51828226539561        2.48667211426879        0.16273360725273
C            1.51607824051195        3.43877801272055        0.15189200883018
C            2.87146244380949        3.10126873768647        0.28943415916356
C            3.89595461941695        4.15250123074732        0.28926625176865
C            4.98427074422213        4.06734514907459        1.17148674548199
C            5.96752921361669        5.03568666239304        1.22165777024937
C            5.85269066040485        6.10734686679180        0.35250371453413
O            6.71025736102931        7.15879321594027        0.23980965313068
C            6.20080355924000        7.96298703347474       -0.73936610625419
C            6.74531929718290        9.15161736627078       -1.19066333650661
C            6.06750537110315        9.81533176008057       -2.19906162161902
C            4.88726456999037        9.30890822399438       -2.73742928381596
C            4.34409571879903        8.12181706822619       -2.28413600009021
C            5.00671304715932        7.43865163736410       -1.27278685527155
C            4.77419233309476        6.21428799591273       -0.54981870226387
C            3.79219698645405        5.23744596184299       -0.57720669022329
C            3.23768513616950        1.75981081391256        0.41696867504628
C            2.25397505980599        0.78998376161766        0.42006537884298
C            2.28132866162170       -0.64862187935725        0.50900777907520
C            3.30056091435672       -1.57237934047531        0.63640767154362
C            2.98400877893960       -2.93021215409096        0.71407106925482
C            4.04723347406379       -3.93487002785867        0.83273737775598
C            5.16956586970757       -3.68035336876102        1.63643578499029
C            6.19335510506611       -4.59564443621564        1.78119487136523
C            6.08349635397862       -5.79114988208837        1.09127589603868
O            6.97914251437876       -6.81644354411287        1.09141180726564
C            6.45844837872318       -7.77788621030605        0.27288622503075
C            7.03189644181617       -9.00064060972616       -0.02562516512409
C            6.33435764538486       -9.83402691371123       -0.88349104593330
C            5.10706422841218       -9.45876736088834       -1.42401217251593
C            4.53576276096901       -8.23660913059816       -1.12453934947037
C            5.21774731050474       -7.38398302679079       -0.26638247480888
C            4.96872327610576       -6.07208231325479        0.27447317360025
C            3.94768804599428       -5.14444754094432        0.14967853109228
C            1.63837232664144       -3.32963850036182        0.68556975620630
C            0.60610593262225       -2.42273644769389        0.56882809619548
C            0.92998193306922       -1.07443964870763        0.45809391716024
C           -2.06201501546232        0.81924544034078        1.09496786947496
C           -3.42878001772473        0.79336095386916        1.02044179599601
N           -6.12064551185741       -0.92219738044806       -0.84621209159587
C           -7.35466148824427       -2.66974876022797       -2.65277553280361
C           -7.99349721855527       -3.53027505742393       -3.52244213234899
H           -9.87709825509980       -4.25377236565150       -4.24569370090567
H          -11.20478891000400       -2.79662048942371       -2.76002129751402
H          -10.05826828994095       -1.25444581472043       -1.20024290954162
H           -6.64853272418000        2.40523463132344        2.56819232166347
H           -7.99658760525279        3.90698570477460        4.00009416476947
H          -10.45784947988982        3.90293051106834        3.81256618644394
H          -11.56730638894449        2.40150607643833        2.19802350436219
H          -10.20744498748456        0.90463605403128        0.77084024864955
H           -3.80421344276873       -1.54437768529359       -1.41202787455372
H           -1.33881558101862       -1.48129039775395       -1.29762606866764
H           -0.51699258573488        2.76813918675878        0.04850692056703
H            1.24534241973298        4.47918479386483        0.05656442698423
H            5.03877787833232        3.23200648167279        1.85263558424600
H            6.79377224729228        4.96873299235277        1.91150797454456
H            7.65986821127234        9.53775274919784       -0.76918519244529
H            6.46428391754228       10.74609640363238       -2.57558614237430
H            4.38980024848158        9.85695497540958       -3.52368236671134
H            3.42935850975212        7.73120752907702       -2.70266976812623
H            2.97558076829062        5.30654431565768       -1.27870540222072
H            4.27830449550542        1.48268892833339        0.48109344780862
H            4.32991430912895       -1.25015458973597        0.65082954504202
H            5.22146944295259       -2.75001035099091        2.18075627856396
H            7.04735985040219       -4.39538839538384        2.40864760475619
H            7.98268242350019       -9.28504115937583        0.39649909348186
H            6.75272913735398      -10.79610858069894       -1.13815672906562
H            4.59544056726741      -10.13772263012708       -2.08975231511311
H            3.58497603626831       -7.94726671582806       -1.54485542247358
H            3.10336377985830       -5.34821116913365       -0.49006433905685
H            1.40403153557653       -4.37799157727219        0.78947773872343
H           -0.42229524195994       -2.74904072578762        0.58021607926665
H           -1.56677756992089        1.45361499077109        1.81559346225332
H           -4.03032406956906        1.41851837415713        1.66200567840126
H           -6.27725637413630       -2.62052723627222       -2.60926456742085
H           -7.41139353815916       -4.16765751327484       -4.17222061691814

          :  Hamiltonian                  GFN2-xTB          :
         :: gradient norm              0.000053249195 Eh/a0 ::
         :: HOMO-LUMO gap              0.169053210369 eV    ::
         :: SCC energy              -162.177078801210 Eh    ::
         :: -> dispersion             -0.131557770601 Eh    ::
         :: -> Gsolv                  -0.076324795022 Eh    ::
         :: repulsion energy           2.855929472335 Eh    ::

    * Orbital Energies and Occupations

         #    Occupation            Energy/Eh            Energy/eV
      -------------------------------------------------------------
         1        2.0000           -0.7414899             -20.1770
       ...           ...                  ...                  ...
       136        2.0000           -0.4084949             -11.1157
       137        2.0000           -0.4050124             -11.0209
       138        2.0000           -0.4025855             -10.9549
       139        2.0000           -0.4008806             -10.9085
       140        2.0000           -0.3967870             -10.7971
       141        2.0000           -0.3933257             -10.7029
       142        2.0000           -0.3932102             -10.6998
       143        2.0000           -0.3920643             -10.6686
       144        2.0000           -0.3847239             -10.4689
       145        1.8599           -0.3697974             -10.0627
       146        1.7601           -0.3691694             -10.0456
       147        1.3800           -0.3676088             -10.0031
       148        0.9634           -0.2838226              -7.7232 (HOMO)
       149        0.0366           -0.2776098              -7.5541 (LUMO)
       150                         -0.2586599              -7.0385
       151                         -0.2585473              -7.0354
       152                         -0.2579127              -7.0182
       153                         -0.2561903              -6.9713
       154                         -0.2472741              -6.7287
       155                         -0.2400178              -6.5312
       156                         -0.2276196              -6.1938
       157                         -0.2254431              -6.1346
       158                         -0.2254278              -6.1342
       159                         -0.2233261              -6.0770
       ...                                ...                  ...
       286                          0.7424067              20.2019
      -------------------------------------------------------------
                  HL-Gap            0.0062128 Eh            0.1691 eV

     #   Z          covCN         q      C6AA      α(0)
     1   6 C        2.920    -0.030    28.743     8.792
     2   6 C        2.917    -0.030    28.753     8.793
     3   6 C        2.924    -0.030    28.754     8.794
     4   6 C        2.983    -0.010    28.256     8.720
     5   6 C        2.933     0.209    23.588     7.965
     6   7 N        1.843    -0.342    29.729     8.081
     7   6 C        2.932     0.209    23.587     7.965
     8   6 C        2.983    -0.010    28.256     8.720
     9   6 C        2.923    -0.031    28.770     8.796
    10   6 C        2.918    -0.030    28.756     8.794
    11   6 C        2.920    -0.030    28.742     8.792
    12   6 C        2.917    -0.030    28.753     8.793
    13   6 C        2.923    -0.030    28.754     8.794
    14   7 N        1.845    -0.299    28.592     7.925
    15   6 C        2.935     0.169    24.370     8.096
    16   6 C        2.976    -0.017    28.420     8.745
    17   6 C        2.920    -0.040    29.004     8.832
    18   6 C        2.915    -0.042    29.051     8.838
    19   6 C        2.913     0.038    27.157     8.545
    20   7 N        2.800     0.002    21.229     6.843
    21   6 C        3.078     0.045    26.914     8.505
    22   6 C        2.907    -0.040    28.991     8.829
    23   6 C        2.927    -0.036    28.888     8.814
    24   6 C        2.977     0.013    27.722     8.637
    25   6 C        2.977     0.007    27.856     8.657
    26   6 C        2.931    -0.036    28.893     8.815
    27   6 C        2.906    -0.052    29.298     8.875
    28   6 C        3.096     0.129    25.073     8.206
    29   8 O        1.714    -0.238    17.939     5.719
    30   6 C        3.097     0.127    25.107     8.212
    31   6 C        2.908    -0.052    29.298     8.875
    32   6 C        2.926    -0.031    28.782     8.798
    33   6 C        2.920    -0.037    28.932     8.821
    34   6 C        2.913    -0.033    28.823     8.804
    35   6 C        3.054    -0.019    28.434     8.745
    36   6 C        3.051    -0.018    28.420     8.743
    37   6 C        2.917    -0.038    28.935     8.821
    38   6 C        2.916    -0.032    28.807     8.801
    39   6 C        3.061    -0.010    28.205     8.709
    40   6 C        3.061    -0.010    28.205     8.709
    41   6 C        2.916    -0.032    28.806     8.801
    42   6 C        2.977     0.013    27.720     8.636
    43   6 C        2.977     0.007    27.853     8.657
    44   6 C        2.930    -0.036    28.892     8.815
    45   6 C        2.906    -0.052    29.297     8.875
    46   6 C        3.096     0.129    25.070     8.206
    47   8 O        1.714    -0.238    17.936     5.718
    48   6 C        3.096     0.127    25.107     8.212
    49   6 C        2.908    -0.052    29.296     8.875
    50   6 C        2.926    -0.031    28.781     8.798
    51   6 C        2.920    -0.037    28.931     8.820
    52   6 C        2.913    -0.033    28.822     8.803
    53   6 C        3.054    -0.019    28.433     8.745
    54   6 C        3.051    -0.018    28.418     8.743
    55   6 C        2.918    -0.038    28.934     8.821
    56   6 C        2.927    -0.036    28.888     8.814
    57   6 C        2.907    -0.040    28.991     8.829
    58   6 C        3.078     0.045    26.912     8.505
    59   6 C        2.915    -0.042    29.052     8.839
    60   6 C        2.920    -0.040    29.001     8.831
    61   7 N        1.845    -0.299    28.596     7.925
    62   6 C        2.923    -0.031    28.771     8.796
    63   6 C        2.918    -0.030    28.757     8.794
    64   1 H        0.926     0.041     2.432     2.439
    65   1 H        0.926     0.039     2.460     2.453
    66   1 H        0.926     0.041     2.430     2.438
    67   1 H        0.926     0.041     2.431     2.438
    68   1 H        0.926     0.040     2.448     2.447
    69   1 H        0.926     0.041     2.432     2.439
    70   1 H        0.926     0.039     2.460     2.452
    71   1 H        0.926     0.041     2.430     2.438
    72   1 H        0.926     0.038     2.470     2.458
    73   1 H        0.926     0.042     2.419     2.432
    74   1 H        0.926     0.045     2.377     2.411
    75   1 H        0.926     0.047     2.357     2.401
    76   1 H        0.926     0.052     2.290     2.367
    77   1 H        0.926     0.051     2.313     2.378
    78   1 H        0.926     0.047     2.356     2.400
    79   1 H        0.926     0.045     2.377     2.411
    80   1 H        0.926     0.043     2.407     2.426
    81   1 H        0.926     0.045     2.385     2.415
    82   1 H        0.926     0.049     2.331     2.387
    83   1 H        0.926     0.051     2.301     2.372
    84   1 H        0.926     0.052     2.298     2.370
    85   1 H        0.926     0.053     2.288     2.366
    86   1 H        0.926     0.051     2.313     2.378
    87   1 H        0.926     0.047     2.355     2.400
    88   1 H        0.926     0.046     2.376     2.411
    89   1 H        0.926     0.043     2.405     2.425
    90   1 H        0.926     0.045     2.381     2.413
    91   1 H        0.926     0.050     2.326     2.385
    92   1 H        0.926     0.047     2.356     2.400
    93   1 H        0.926     0.046     2.376     2.411
    94   1 H        0.926     0.042     2.423     2.434
    95   1 H        0.926     0.038     2.472     2.459
    96   1 H        0.926     0.041     2.431     2.438
    97   1 H        0.926     0.040     2.447     2.446

molecular dipole:
                 x           y           z       tot (Debye)
 q only:        3.813       0.011      -0.299
   full:        3.794       0.019      -0.225       9.660

 projected vibrational frequencies (cm⁻¹)
eigval :       -0.00    -0.00     0.00     0.00     0.00     0.00
eigval :        8.18     8.64    12.06    13.74    21.80    23.63
eigval :       26.89    28.41    34.33    36.20    41.93    53.36
eigval :       56.03    62.36    74.90    80.67    85.06    97.86
eigval :      102.84   109.82   112.59   119.48   128.57   137.12
eigval :      147.39   152.28   159.33   184.89   192.25   194.83
eigval :      215.29   217.47   223.29   234.28   242.40   252.45
eigval :      259.42   277.81   280.34   283.99   291.41   316.18
eigval :      342.85   357.80   365.97   368.01   368.87   371.96
eigval :      380.40   389.03   390.80   391.19   394.47   400.08
eigval :      407.57   409.07   417.56   423.49   428.49   431.26
eigval :      439.81   441.92   452.81   473.44   480.64   514.88
eigval :      520.23   531.32   536.53   537.92   550.22   555.96
eigval :      559.54   561.81   566.20   573.94   577.51   584.78
eigval :      586.20   590.17   596.13   599.72   600.98   605.68
eigval :      613.19   615.07   626.46   641.53   643.82   651.64
eigval :      660.33   662.37   664.95   666.88   683.29   688.98
eigval :      693.75   696.58   703.65   707.63   714.78   715.22
eigval :      720.01   761.17   763.20   766.89   776.29   777.77
eigval :      796.06   800.31   805.38   807.32   814.75   816.85
eigval :      832.74   834.00   837.65   842.19   843.40   843.57
eigval :      857.07   869.60   869.94   870.15   870.73   870.95
eigval :      872.80   874.66   877.83   898.54   899.45   900.98
eigval :      902.65   903.66   903.85   907.51   907.79   914.83
eigval :      916.68   919.39   921.97   922.39   922.90   925.17
eigval :      926.27   926.69   928.21   928.48   947.73   983.69
eigval :      987.89   992.57   996.24  1005.99  1026.94  1057.65
eigval :     1060.30  1060.46  1061.76  1062.25  1072.57  1074.75
eigval :     1106.83  1108.66  1114.81  1114.87  1121.31  1123.96
eigval :     1132.79  1135.68  1137.44  1143.21  1156.16  1162.95
eigval :     1169.66  1170.65  1175.99  1177.03  1177.90  1183.44
eigval :     1187.61  1189.97  1193.41  1206.48  1207.00  1216.16
eigval :     1218.12  1227.06  1235.04  1239.68  1241.71  1242.84
eigval :     1248.75  1249.70  1255.60  1265.21  1266.30  1268.72
eigval :     1270.06  1274.34  1293.57  1300.22  1322.45  1328.81
eigval :     1329.84  1334.27  1336.35  1339.28  1344.38  1345.30
eigval :     1348.09  1351.07  1360.48  1395.83  1396.95  1401.90
eigval :     1409.85  1411.85  1419.10  1421.28  1427.29  1428.55
eigval :     1434.13  1434.82  1436.20  1453.19  1462.17  1465.17
eigval :     1468.69  1472.22  1475.43  1480.38  1484.92  1488.33
eigval :     1544.05  1551.33  1552.13  1557.40  1561.69  1562.00
eigval :     1568.11  1569.21  1581.72  1582.00  1585.80  1589.40
eigval :     1591.77  1595.23  1597.81  1610.38  1611.19  3071.55
eigval :     3072.23  3074.65  3075.05  3077.30  3079.47  3081.10
eigval :     3082.38  3086.53  3087.39  3088.79  3089.47  3089.77
eigval :     3090.44  3092.12  3092.32  3094.66  3095.41  3095.89
eigval :     3096.40  3096.96  3097.01  3097.25  3098.02  3098.58
eigval :     3099.22  3099.72  3099.91  3101.01  3101.91  3104.15
eigval :     3104.18  3104.96  3105.34

   temp. (K)  partition function   enthalpy   heat capacity  entropy
                                   cal/mol     cal/K/mol   cal/K/mol   J/K/mol
 298.15  VIB  0.314E+24            28877.452    181.540    180.434
         ROT  0.410E+09              888.752      2.981     42.390
         INT  0.129E+33            29766.205    184.521    222.824
         TR   0.222E+29             1481.254      4.968     45.921
         TOT                       31247.4586   189.4887   268.7452  1124.4299

       T/K    H(0)-H(T)+PV         H(T)/Eh          T*S/Eh         G(T)/Eh
   ------------------------------------------------------------------------
    298.15    0.497960E-01    0.771115E+00    0.127690E+00    0.643426E+00
   ------------------------------------------------------------------------

         :::::::::::::::::::::::::::::::::::::::::::::::::::::
         ::                  THERMODYNAMIC                  ::
         :::::::::::::::::::::::::::::::::::::::::::::::::::::
         :: total free energy        -158.677723791337 Eh   ::
         ::.................................................::
         :: total energy             -159.321149336939 Eh   ::
         :: zero point energy           0.721319061889 Eh   ::
         :: G(RRHO) w/o ZPVE           -0.077893516287 Eh   ::
         :: G(RRHO) contrib.            0.643425545602 Eh   ::
         :::::::::::::::::::::::::::::::::::::::::::::::::::::

           -------------------------------------------------
          | TOTAL ENERGY             -159.321149336939 Eh   |
          | TOTAL ENTHALPY           -158.550034280043 Eh   |
          | TOTAL FREE ENERGY        -158.677723791337 Eh   |
          | GRADIENT NORM               0.000055240851 Eh/α |
          | HOMO-LUMO GAP               0.169058735367 eV   |
           -------------------------------------------------

 * finished run on 2025/09/03 at 18:03:40.080
