   * xtb version 6.7.1 (edcfbbe) compiled by 'albert@albert-system' on 2024-07-22

   ID    Z sym.   atoms
    1    6 C      1-5, 7-13, 15-19, 21-28, 30-46, 48-60, 62, 63
    2    7 N      6, 14, 20, 61
    3    8 O      29, 47
    4    1 H      64-97

          program call               : xtb data2507/toluene/BDBFCz-Trz/BDBFCz-Trz.xyz --gfn 2 --gbsa toluene --ohess vtight --parallel 40 --molden --ceasefiles --namespace data2507/toluene/BDBFCz-Trz/BDBFCz-Trz_toluene_S0_preOpt
      * Solvation model:               GBSA
        Solvent                        toluene
        Solvent mass                       9.2140E+01 g/mol
          :  Hamiltonian                  GFN2-xTB          :
 * total energy  :  -159.3764684 Eh     change       -0.3911566E-08 Eh
 * total energy  :  -159.3919148 Eh     change       -0.1544643E-01 Eh
 * total energy  :  -159.3958985 Eh     change       -0.3983641E-02 Eh
 * total energy  :  -159.3973018 Eh     change       -0.1403328E-02 Eh
 * total energy  :  -159.3983243 Eh     change       -0.1022474E-02 Eh
 * total energy  :  -159.3986641 Eh     change       -0.3397863E-03 Eh
 * total energy  :  -159.3988012 Eh     change       -0.1371370E-03 Eh
 * total energy  :  -159.3989112 Eh     change       -0.1100301E-03 Eh
 * total energy  :  -159.3990136 Eh     change       -0.1023968E-03 Eh
 * total energy  :  -159.3991210 Eh     change       -0.1073532E-03 Eh
 * total energy  :  -159.4002701 Eh     change       -0.1324656E-06 Eh
 * total energy  :  -159.4002702 Eh     change       -0.1106297E-06 Eh
 * total energy  :  -159.4002703 Eh     change       -0.1073911E-06 Eh
 * total energy  :  -159.4002704 Eh     change       -0.1394223E-06 Eh
 * total energy  :  -159.4002707 Eh     change       -0.2123001E-06 Eh
 * total energy  :  -159.4002709 Eh     change       -0.2841710E-06 Eh
 * total energy  :  -159.4002713 Eh     change       -0.3159886E-06 Eh
 * total energy  :  -159.4002716 Eh     change       -0.3491081E-06 Eh
 * total energy  :  -159.4002716 Eh     change       -0.3337703E-08 Eh
   *** GEOMETRY OPTIMIZATION CONVERGED AFTER 94 ITERATIONS ***

 final structure:
================
97
 xtb: 6.7.1 (edcfbbe)
C           -9.18416981893716       -3.57024014183420       -3.54738199592848
C           -9.94446645535979       -2.74645620690622       -2.73109519595595
C           -9.32473093474887       -1.86909502025135       -1.86208880924246
C           -7.93294989006863       -1.80945459337413       -1.80216559071207
C           -7.27438100351008       -0.88037214332696       -0.88304038615613
N           -8.04199465247428       -0.06975551863626       -0.15821679564481
C           -7.40272590687412        0.76086518893131        0.66201654196603
C           -8.20431592536639        1.67165680207866        1.48019612088831
C           -7.58455511555701        2.52767573842653        2.38985316704801
C           -8.34347579588218        3.38585429530353        3.16212845190982
C           -9.72416913407749        3.39974431059897        3.03386111437576
C          -10.34651193494713        2.55124674485119        2.13065121146297
C           -9.59293567775000        1.69023629604419        1.35609423547343
N           -6.07886964319826        0.81381911523318        0.78389258000280
C           -5.38881808711396       -0.03416416827302        0.02419932299351
C           -3.93207631686754       -0.01532303627191        0.12580441051888
C           -3.15891722277157       -0.87944199119766       -0.65032414024351
C           -1.78407551271967       -0.86071141176893       -0.55901269323075
C           -1.15097971241200        0.02313826420153        0.31655884652305
N            0.24165744747962        0.04476580942963        0.41107037256187
C            1.03915635723459        1.17493333154472        0.37628865362719
C            0.69165707116892        2.50402844022638        0.18075415242374
C            1.70413078735110        3.44185496623926        0.14969013506967
C            3.05199131432252        3.08987521371093        0.30330468487574
C            4.09402759464939        4.13000941692015        0.27401967441270
C            5.15660284644495        4.07820040235150        1.18629427916424
C            6.15890382773249        5.02965084664963        1.20433162057113
C            6.08307578501411        6.05168256183737        0.27524971801476
O            6.96463913186618        7.08289667397486        0.12334841729193
C            6.49043969877628        7.83760693798619       -0.91029907652864
C            7.06591396269674        8.98902620369599       -1.41687228408830
C            6.42240296342706        9.60560260069098       -2.47610076351611
C            5.24478867314334        9.08943786542536       -3.01118750419706
C            4.67064839875799        7.94001885437310       -2.50304188982281
C            5.29850776799710        7.30412628881879       -1.43987327208760
C            5.02830991043283        6.12663892427056       -0.65531055860281
C            4.03042699032147        5.16381662618947       -0.65296785205309
C            3.39577153597935        1.75432004433853        0.47270402907877
C            2.39489160396922        0.79587267025902        0.50130073204434
C            2.40883873598766       -0.63672171043135        0.62810735787233
C            3.42550855838181       -1.56185546539732        0.80703836669250
C            3.10483619832043       -2.90884817050198        0.92220527788484
C            4.16218278180333       -3.91698226641734        1.10691394827837
C            5.23401536605874       -3.65765239606839        1.97170894400240
C            6.24738124594586       -4.57319306306720        2.18380015139821
C            6.17274160717279       -5.77484415705690        1.50259624586717
O            7.06346071542966       -6.80734862170963        1.56930488581447
C            6.58415998136973       -7.77563624172149        0.73519121808995
C            7.16459429714096       -9.00666023758209        0.48773804157305
C            6.51221487555476       -9.84843721570074       -0.39664260495167
C            5.32139612585626       -9.47305993268630       -1.01349824496055
C            4.74320657306471       -8.24297580453358       -0.76546599056920
C            5.37986967013352       -7.38164393727891        0.11862482628227
C            5.10794182509327       -6.06133255701345        0.62614162783961
C            4.10004452306548       -5.12957540030051        0.43012839935280
C            1.76115012951263       -3.30511222095855        0.87637019374487
C            0.73339107541111       -2.39970112919577        0.70579993340070
C            1.06195260148471       -1.05920647530398        0.56115622838356
C           -1.92191717608667        0.88615811795055        1.09734238140421
C           -3.29628261360671        0.86737069669878        0.99970170701559
N           -5.94531492488574       -0.89748002188946       -0.82299499521762
C           -7.17412810722278       -2.64113063295513       -2.62486069805573
C           -7.79959626427270       -3.51579006650872       -3.49249846507918
H           -9.67087536321544       -4.25479815061674       -4.22625172852683
H          -11.02274091009997       -2.78941901180816       -2.77334495278403
H           -9.90032288462008       -1.22176010547362       -1.21899766753098
H           -6.50955308059984        2.50285900678622        2.47664408095061
H           -7.85907330033398        4.04648195749910        3.86593596104879
H          -10.31539929396184        4.07155909887442        3.63837960050339
H          -11.42179918889466        2.56282842982032        2.03078232067297
H          -10.05999529339854        1.02404386071369        0.64754239550225
H           -3.65737209256344       -1.55387501197267       -1.32853685171235
H           -1.18910337035756       -1.51365177068144       -1.17912347443737
H           -0.33690155273666        2.80230956402054        0.04665556753343
H            1.44909048011508        4.48317727508449        0.02054983912270
H            5.18113087394797        3.27868783331077        1.91136314003985
H            6.96960394425036        4.98497161781409        1.91446342850785
H            7.97850541121169        9.38265134917716       -0.99777683081962
H            6.84424068732029       10.50648262931090       -2.89587541003575
H            4.77397429707628        9.60038433271489       -3.83792441283977
H            3.75788736837850        7.54127651344077       -2.91855234716316
H            3.22968805177319        5.20798811798983       -1.37499906634299
H            4.43153087524639        1.46153846450051        0.55243761126148
H            4.45473864431350       -1.23873365923732        0.83857573638582
H            5.25708134918774       -2.71957283844563        2.50549761526903
H            7.06479774531508       -4.36690870976763        2.85671286914600
H            8.08708981135919       -9.29076222219361        0.96905637519409
H            6.93732559855940      -10.81724483279669       -0.61200331867041
H            4.84382556358437      -10.15880835656372       -1.69748528819133
H            3.82060005771454       -7.95309003651326       -1.24450521991979
H            3.29124714938923       -5.33784934959887       -0.25319137103953
H            1.52206882646518       -4.35024803710532        1.00535224988592
H           -0.29419226915272       -2.72989066019272        0.70354051196300
H           -1.43488126340208        1.55358098048511        1.79191981645700
H           -3.90068296924212        1.52632982559685        1.60279787929930
H           -6.09819674539320       -2.58505733382026       -2.56969399191739
H           -7.20780888617059       -4.15740906342688       -4.12848846717531

          :  Hamiltonian                  GFN2-xTB          :
         :: gradient norm              0.000043204782 Eh/a0 ::
         :: HOMO-LUMO gap              1.839052242708 eV    ::
         :: SCC energy              -162.266152012204 Eh    ::
         :: -> dispersion             -0.131695666575 Eh    ::
         :: -> Gsolv                  -0.072250511214 Eh    ::
         :: repulsion energy           2.865880403513 Eh    ::

    * Orbital Energies and Occupations

         #    Occupation            Energy/Eh            Energy/eV
      -------------------------------------------------------------
         1        2.0000           -0.7366827             -20.0462
       ...           ...                  ...                  ...
       135        2.0000           -0.4156011             -11.3091
       136        2.0000           -0.4135152             -11.2523
       137        2.0000           -0.4126607             -11.2291
       138        2.0000           -0.4108152             -11.1789
       139        2.0000           -0.4049711             -11.0198
       140        2.0000           -0.3896887             -10.6040
       141        2.0000           -0.3887103             -10.5773
       142        2.0000           -0.3886757             -10.5764
       143        2.0000           -0.3879587             -10.5569
       144        2.0000           -0.3807378             -10.3604
       145        2.0000           -0.3804971             -10.3539
       146        2.0000           -0.3777637             -10.2795
       147        2.0000           -0.3622884              -9.8584 (HOMO)
       148                         -0.2947045              -8.0193 (LUMO)
       149                         -0.2931359              -7.9766
       150                         -0.2543642              -6.9216
       151                         -0.2542989              -6.9198
       152                         -0.2538674              -6.9081
       153                         -0.2474640              -6.7338
       154                         -0.2460298              -6.6948
       155                         -0.2403267              -6.5396
       156                         -0.2365338              -6.4364
       157                         -0.2337939              -6.3619
       158                         -0.2337633              -6.3610
       ...                                ...                  ...
       286                          0.7488939              20.3784
      -------------------------------------------------------------
                  HL-Gap            0.0675839 Eh            1.8391 eV

     #   Z          covCN         q      C6AA      α(0)
     1   6 C        2.920    -0.022    28.561     8.764
     2   6 C        2.918    -0.027    28.682     8.782
     3   6 C        2.924    -0.026    28.650     8.778
     4   6 C        2.983    -0.010    28.255     8.719
     5   6 C        2.979     0.217    23.427     7.939
     6   7 N        1.844    -0.324    29.252     8.016
     7   6 C        2.979     0.217    23.426     7.939
     8   6 C        2.983    -0.010    28.256     8.719
     9   6 C        2.924    -0.026    28.655     8.778
    10   6 C        2.918    -0.027    28.683     8.782
    11   6 C        2.920    -0.022    28.561     8.764
    12   6 C        2.918    -0.027    28.682     8.782
    13   6 C        2.923    -0.026    28.650     8.778
    14   7 N        1.844    -0.324    29.244     8.014
    15   6 C        2.979     0.216    23.443     7.942
    16   6 C        2.983    -0.013    28.342     8.733
    17   6 C        2.923    -0.025    28.628     8.774
    18   6 C        2.920    -0.042    29.043     8.838
    19   6 C        2.912     0.071    26.409     8.427
    20   7 N        2.801    -0.034    21.903     6.951
    21   6 C        3.072     0.044    26.941     8.511
    22   6 C        2.908    -0.051    29.263     8.870
    23   6 C        2.928    -0.038    28.943     8.823
    24   6 C        2.977     0.001    27.990     8.678
    25   6 C        2.977     0.004    27.927     8.668
    26   6 C        2.931    -0.038    28.944     8.823
    27   6 C        2.907    -0.054    29.353     8.884
    28   6 C        3.096     0.125    25.159     8.221
    29   8 O        1.714    -0.245    18.054     5.737
    30   6 C        3.095     0.127    25.113     8.213
    31   6 C        2.908    -0.054    29.335     8.881
    32   6 C        2.926    -0.033    28.814     8.803
    33   6 C        2.920    -0.039    28.966     8.826
    34   6 C        2.913    -0.034    28.853     8.808
    35   6 C        3.054    -0.020    28.458     8.749
    36   6 C        3.051    -0.021    28.483     8.753
    37   6 C        2.918    -0.040    29.003     8.831
    38   6 C        2.918    -0.038    28.950     8.823
    39   6 C        3.064    -0.015    28.331     8.728
    40   6 C        3.064    -0.015    28.332     8.728
    41   6 C        2.918    -0.038    28.950     8.823
    42   6 C        2.977     0.001    27.990     8.678
    43   6 C        2.977     0.004    27.928     8.669
    44   6 C        2.931    -0.038    28.946     8.823
    45   6 C        2.907    -0.055    29.353     8.884
    46   6 C        3.096     0.125    25.160     8.221
    47   8 O        1.714    -0.245    18.057     5.737
    48   6 C        3.095     0.127    25.113     8.213
    49   6 C        2.908    -0.054    29.335     8.881
    50   6 C        2.926    -0.033    28.815     8.803
    51   6 C        2.920    -0.039    28.966     8.826
    52   6 C        2.913    -0.034    28.853     8.808
    53   6 C        3.054    -0.020    28.458     8.749
    54   6 C        3.051    -0.021    28.483     8.753
    55   6 C        2.918    -0.040    29.005     8.832
    56   6 C        2.929    -0.038    28.943     8.823
    57   6 C        2.908    -0.051    29.263     8.870
    58   6 C        3.072     0.044    26.940     8.510
    59   6 C        2.920    -0.042    29.043     8.838
    60   6 C        2.923    -0.025    28.626     8.774
    61   7 N        1.844    -0.324    29.243     8.014
    62   6 C        2.923    -0.026    28.655     8.778
    63   6 C        2.918    -0.027    28.684     8.783
    64   1 H        0.926     0.049     2.327     2.386
    65   1 H        0.926     0.047     2.358     2.401
    66   1 H        0.926     0.050     2.319     2.381
    67   1 H        0.926     0.050     2.315     2.379
    68   1 H        0.926     0.047     2.355     2.400
    69   1 H        0.926     0.049     2.328     2.386
    70   1 H        0.926     0.047     2.357     2.401
    71   1 H        0.926     0.050     2.318     2.381
    72   1 H        0.926     0.057     2.233     2.337
    73   1 H        0.926     0.056     2.249     2.345
    74   1 H        0.926     0.034     2.524     2.484
    75   1 H        0.926     0.037     2.483     2.464
    76   1 H        0.926     0.046     2.369     2.407
    77   1 H        0.926     0.045     2.380     2.412
    78   1 H        0.926     0.045     2.385     2.415
    79   1 H        0.926     0.044     2.400     2.423
    80   1 H        0.926     0.041     2.430     2.438
    81   1 H        0.926     0.042     2.417     2.431
    82   1 H        0.926     0.043     2.404     2.425
    83   1 H        0.926     0.039     2.468     2.457
    84   1 H        0.926     0.039     2.466     2.456
    85   1 H        0.926     0.046     2.371     2.408
    86   1 H        0.926     0.045     2.382     2.413
    87   1 H        0.926     0.045     2.387     2.416
    88   1 H        0.926     0.044     2.400     2.423
    89   1 H        0.926     0.042     2.429     2.437
    90   1 H        0.926     0.043     2.414     2.430
    91   1 H        0.926     0.044     2.399     2.422
    92   1 H        0.926     0.037     2.484     2.465
    93   1 H        0.926     0.034     2.524     2.484
    94   1 H        0.926     0.056     2.251     2.346
    95   1 H        0.926     0.057     2.235     2.338
    96   1 H        0.926     0.050     2.315     2.379
    97   1 H        0.926     0.047     2.354     2.399

molecular dipole:
                 x           y           z       tot (Debye)
 q only:       -1.169      -0.064      -0.516
   full:       -1.091      -0.052      -0.425       2.979

 projected vibrational frequencies (cm⁻¹)
eigval :       -0.00    -0.00    -0.00    -0.00     0.00     0.00
eigval :        5.90     8.82    10.44    13.66    19.36    23.98
eigval :       24.15    29.30    29.74    36.03    41.25    53.52
eigval :       55.54    63.74    72.46    80.86    85.86    91.88
eigval :      100.26   104.10   113.75   120.21   128.76   139.78
eigval :      150.75   152.09   161.79   182.08   189.58   196.28
eigval :      205.44   220.00   226.21   237.91   246.47   262.05
eigval :      269.37   280.20   281.70   287.35   296.18   319.13
eigval :      354.21   363.16   363.72   365.02   377.23   380.80
eigval :      391.41   392.61   396.07   397.69   402.39   412.40
eigval :      413.54   424.75   428.36   429.06   432.27   435.52
eigval :      445.44   455.33   460.13   480.36   490.37   515.07
eigval :      518.37   532.89   538.29   538.45   554.35   560.02
eigval :      566.72   572.13   578.10   586.92   587.55   598.74
eigval :      601.12   602.98   613.33   614.48   616.17   624.26
eigval :      625.20   628.16   640.12   644.33   645.93   663.29
eigval :      673.99   675.51   681.69   691.89   694.05   697.62
eigval :      710.37   710.96   714.43   714.60   728.94   750.53
eigval :      767.98   775.03   778.89   781.67   794.78   797.55
eigval :      812.96   816.46   829.35   832.61   836.08   839.09
eigval :      843.30   843.72   846.55   847.26   858.41   871.45
eigval :      872.89   873.84   874.94   874.96   875.52   876.93
eigval :      881.03   881.75   904.15   906.05   908.74   909.25
eigval :      911.12   912.10   912.32   913.81   914.92   919.23
eigval :      923.92   926.70   928.00   929.48   930.86   931.92
eigval :      934.03   936.38   940.32   974.68   989.15   997.65
eigval :     1007.26  1013.40  1030.96  1047.52  1060.23  1061.62
eigval :     1068.01  1068.24  1073.34  1073.95  1087.02  1106.06
eigval :     1110.26  1115.65  1115.73  1124.17  1128.60  1139.44
eigval :     1140.29  1156.63  1162.04  1165.41  1170.27  1170.98
eigval :     1175.92  1176.73  1179.69  1185.80  1191.01  1191.38
eigval :     1201.17  1201.77  1205.82  1205.97  1209.84  1219.40
eigval :     1223.78  1239.86  1240.99  1244.68  1248.20  1250.64
eigval :     1253.60  1258.82  1266.75  1268.06  1269.34  1288.14
eigval :     1307.22  1307.46  1324.93  1325.97  1327.91  1337.07
eigval :     1337.31  1344.78  1349.75  1351.72  1359.33  1361.21
eigval :     1365.55  1368.08  1382.05  1405.43  1409.97  1410.43
eigval :     1413.02  1417.31  1422.39  1427.22  1430.16  1431.80
eigval :     1448.56  1455.29  1462.95  1472.13  1473.76  1474.46
eigval :     1492.20  1494.14  1497.74  1506.32  1506.47  1557.04
eigval :     1564.95  1565.95  1568.68  1575.39  1581.26  1582.57
eigval :     1588.41  1589.20  1589.44  1592.48  1592.87  1593.06
eigval :     1597.07  1598.89  1608.64  1614.88  1616.54  3077.03
eigval :     3077.38  3079.80  3080.40  3081.49  3081.56  3081.99
eigval :     3082.27  3086.70  3087.28  3087.59  3087.74  3090.07
eigval :     3091.43  3091.79  3091.95  3092.72  3093.10  3093.73
eigval :     3094.29  3095.11  3095.65  3096.11  3096.68  3101.03
eigval :     3101.39  3102.75  3103.19  3103.39  3104.36  3105.14
eigval :     3105.92  3108.85  3110.15

   temp. (K)  partition function   enthalpy   heat capacity  entropy
                                   cal/mol     cal/K/mol   cal/K/mol   J/K/mol
 298.15  VIB  0.513E+24            28507.474    178.457    179.174
         ROT  0.409E+09              888.752      2.981     42.388
         INT  0.210E+33            29396.226    181.438    221.562
         TR   0.222E+29             1481.254      4.968     45.921
         TOT                       30877.4802   186.4065   267.4829  1119.1484

       T/K    H(0)-H(T)+PV         H(T)/Eh          T*S/Eh         G(T)/Eh
   ------------------------------------------------------------------------
    298.15    0.492064E-01    0.776614E+00    0.127090E+00    0.649524E+00
   ------------------------------------------------------------------------

         :::::::::::::::::::::::::::::::::::::::::::::::::::::
         ::                  THERMODYNAMIC                  ::
         :::::::::::::::::::::::::::::::::::::::::::::::::::::
         :: total free energy        -158.750747300506 Eh   ::
         ::.................................................::
         :: total energy             -159.400271618025 Eh   ::
         :: zero point energy           0.727407673895 Eh   ::
         :: G(RRHO) w/o ZPVE           -0.077883356376 Eh   ::
         :: G(RRHO) contrib.            0.649524317519 Eh   ::
         :::::::::::::::::::::::::::::::::::::::::::::::::::::

           -------------------------------------------------
          | TOTAL ENERGY             -159.400271618025 Eh   |
          | TOTAL ENTHALPY           -158.623657547330 Eh   |
          | TOTAL FREE ENERGY        -158.750747300506 Eh   |
          | GRADIENT NORM               0.000043198960 Eh/α |
          | HOMO-LUMO GAP               1.839052056532 eV   |
           -------------------------------------------------

 * finished run on 2025/09/03 at 17:46:47.494
