   * xtb version 6.7.1 (edcfbbe) compiled by 'albert@albert-system' on 2024-07-22

   ID    Z sym.   atoms
    1    6 C      1-5, 7-13, 15-19, 21-28, 30-46, 48-60, 62, 63
    2    7 N      6, 14, 20, 61
    3    8 O      29, 47
    4    1 H      64-97

          program call               : xtb data2507/toluene/BDBFCz-Trz/BDBFCz-Trz_toluene_S0_crest.xyz --gfn 2 --gbsa toluene --ohess vtight --parallel 40 --molden --ceasefiles --namespace data2507/toluene/BDBFCz-Trz/BDBFCz-Trz_toluene_S0_finalOpt
      * Solvation model:               GBSA
        Solvent                        toluene
        Solvent mass                       9.2140E+01 g/mol
          :  Hamiltonian                  GFN2-xTB          :
 * total energy  :  -159.4001341 Eh     change       -0.3666798E-08 Eh
 * total energy  :  -159.4001946 Eh     change       -0.6056847E-04 Eh
 * total energy  :  -159.4002156 Eh     change       -0.2098226E-04 Eh
 * total energy  :  -159.4002201 Eh     change       -0.4490062E-05 Eh
 * total energy  :  -159.4002231 Eh     change       -0.2937303E-05 Eh
 * total energy  :  -159.4002252 Eh     change       -0.2103790E-05 Eh
 * total energy  :  -159.4002272 Eh     change       -0.2051884E-05 Eh
 * total energy  :  -159.4002296 Eh     change       -0.2409383E-05 Eh
 * total energy  :  -159.4002322 Eh     change       -0.2631317E-05 Eh
 * total energy  :  -159.4002347 Eh     change       -0.2454940E-05 Eh
 * total energy  :  -159.4002735 Eh     change       -0.5847896E-06 Eh
 * total energy  :  -159.4002738 Eh     change       -0.3041282E-06 Eh
 * total energy  :  -159.4002741 Eh     change       -0.2922011E-06 Eh
 * total energy  :  -159.4002745 Eh     change       -0.4302071E-06 Eh
 * total energy  :  -159.4002751 Eh     change       -0.5575661E-06 Eh
 * total energy  :  -159.4002757 Eh     change       -0.6274009E-06 Eh
 * total energy  :  -159.4002762 Eh     change       -0.4770652E-06 Eh
 * total energy  :  -159.4002765 Eh     change       -0.2717767E-06 Eh
 * total energy  :  -159.4002765 Eh     change       -0.3693683E-07 Eh
   *** GEOMETRY OPTIMIZATION CONVERGED AFTER 42 ITERATIONS ***

 final structure:
================
97
 xtb: 6.7.1 (edcfbbe)
C           -9.40024619717336       -3.52729660180199       -3.57467504491913
C          -10.14785528115718       -2.65279743262832       -2.80050785757439
C           -9.51796198182478       -1.79859385310871       -1.91589999459016
C           -8.12862534437642       -1.81256372059088       -1.79862740176650
C           -7.45937384128599       -0.90645293158523       -0.86437351642647
N           -8.21896282399609       -0.11764925850965       -0.10767850360637
C           -7.57059541345967        0.69450016200215        0.72379990819300
C           -8.36303284206498        1.57699354372996        1.58110010628994
C           -7.72997985141863        2.47034766465493        2.44458918974168
C           -8.47980787941775        3.30127618181883        3.25463062168785
C           -9.86489421663924        3.24901600728745        3.21199891382262
C          -10.50056679275451        2.36264222496599        2.35568816579881
C           -9.75605130936280        1.52957684283143        1.54274383019904
N           -6.24509752497142        0.75343789609965        0.82315434669725
C           -5.56340636713396       -0.07406372162138        0.03385753415393
C           -4.10531548046057       -0.04932444481623        0.11238470824265
C           -3.33903112438946       -0.87991434042064       -0.70608260885689
C           -1.96301103886384       -0.85556336359054       -0.63493446880634
C           -1.32178379621667        0.00067349659947        0.26197333407253
N            0.07190489154409        0.02704394492639        0.33732567036896
C            0.86344997231904        1.16201927971982        0.33372594718712
C            0.50679334013215        2.49604612958531        0.19648090713886
C            1.51428088948584        3.43971511938004        0.18807289831943
C            2.86576865448271        3.08893205938571        0.30831498457608
C            3.90189262417765        4.13544034722555        0.30452977848290
C            4.97023144251429        4.06219672274960        1.20833632774791
C            5.96569713595782        5.02009965547754        1.25052295021481
C            5.87725919717519        6.06983929781336        0.35397831097274
O            6.75053671225858        7.11181461602820        0.22969799712184
C            6.26658601844754        7.89345984857184       -0.77910192684430
C            6.83225133934095        9.06309163844814       -1.25397485207627
C            6.18074301313111        9.70550204868374       -2.29275871396341
C            5.00468587490263        9.19693229190567       -2.83842664054580
C            4.43996769319538        8.02964865394320       -2.36145633941928
C            5.07604147081589        7.36761318650842       -1.31930965755685
C            4.81738771266778        6.16552874233544       -0.56890713623891
C            3.82596908784569        5.19621448298152       -0.59035396936398
C            3.21849228521774        1.74976469653647        0.42067077498041
C            2.22254462724528        0.78568573516404        0.42593890228957
C            2.24504979860191       -0.65036086570388        0.50113164376798
C            3.26832505956451       -1.57583462592261        0.63534838577673
C            2.95533795549415       -2.92738451825973        0.71041533608417
C            4.02015396216362       -3.93478237346140        0.85131912454248
C            5.09605742879745       -3.69832382428262        1.71756022364372
C            6.11743515236701       -4.61327494991811        1.88998213373872
C            6.04646448290690       -5.79045175662934        1.16694953060078
O            6.94537773848168       -6.81769341434760        1.19074189101745
C            6.46673704138882       -7.75995282086781        0.32695520887612
C            7.05436761465816       -8.97711561913165        0.03244763426302
C            6.40149140951374       -9.79256793404729       -0.87588266733671
C            5.20316802162819       -9.40513321904141       -1.47031267971241
C            4.61785611987789       -8.18885366740593       -1.17532644101203
C            5.25485504055013       -7.35388468750969       -0.26649345466632
C            4.97721157260374       -6.05400616243969        0.28870143619771
C            3.96131475131289       -5.12321345929569        0.13275432348754
C            1.61320660194851       -3.32901482191941        0.66687694932848
C            0.57905358031700       -2.42363623734646        0.53939309176680
C            0.89946265490506       -1.07727087200575        0.43695059555740
C           -2.08579825281906        0.83053023503644        1.08439246590424
C           -3.46131180681908        0.80606098305887        1.00718437367011
N           -6.12956984806809       -0.92179667955018       -0.82266108373729
C           -7.38258030160761       -2.69407350314557       -2.58008658599433
C           -8.01822901681320       -3.54662444360371       -3.46223351051414
H           -9.89486763979089       -4.19442781329848       -4.26510686927197
H          -11.22414994245399       -2.63749188673467       -2.88819968197173
H          -10.08354332931528       -1.11031686215256       -1.30739267852477
H           -6.65175295597589        2.49747273800621        2.46449911132064
H           -7.98485334186499        3.99185698195428        3.92134437495924
H          -10.44908053562608        3.89941034948806        3.84607899345511
H          -11.57927203193567        2.32209811270084        2.32310412333278
H          -10.23401899449780        0.83287429671455        0.87180298336691
H           -3.84381011158379       -1.53189340951469       -1.40139771371542
H           -1.37354289491386       -1.48232405351800       -1.28667185282400
H           -0.52496539891051        2.79422764503942        0.08957728120441
H            1.25295988597381        4.48411717876544        0.10369509458315
H            5.00444366996395        3.24016758639820        1.90740480458092
H            6.78066268559433        4.95937324563560        1.95453796356256
H            7.74373944722564        9.45068509167891       -0.82694362997129
H            6.59508393311180       10.62082071769473       -2.68801647593662
H            4.52779666963228        9.72793105148800       -3.64888064590491
H            3.52847380922802        7.63676833676857       -2.78525362861036
H            3.02046145486820        5.25603371186098       -1.30596689042738
H            4.25672026949659        1.45999864589044        0.47586838995699
H            4.29639223013341       -1.24881765341859        0.66520092396987
H            5.11590321154324       -2.77957409662771        2.28412935460861
H            6.93823266196863       -4.42502665294870        2.56405858266358
H            7.98266521112316       -9.27070358019189        0.49661030943985
H            6.83218687763901      -10.74994788884484       -1.12808146562767
H            4.72550621324065      -10.07024766913982       -2.17432332999288
H            3.68952339619179       -7.88951261898864       -1.63717722575743
H            3.14864035627251       -5.31311968949560       -0.55135112110712
H            1.38079534912554       -4.37917997360796        0.76329054919677
H           -0.44688350148814       -2.75885057194856        0.53852833849758
H           -1.59210026566470        1.47563254739166        1.79512093811418
H           -4.06032424904196        1.43825531994907        1.64337515233086
H           -6.30844954155176       -2.69583438480429       -2.47968431835210
H           -7.43632854795455       -4.22811104534611       -4.06498771664830

          :  Hamiltonian                  GFN2-xTB          :
         :: gradient norm              0.000131082632 Eh/a0 ::
         :: HOMO-LUMO gap              1.841249138523 eV    ::
         :: SCC energy              -162.266032071288 Eh    ::
         :: -> dispersion             -0.131694171082 Eh    ::
         :: -> Gsolv                  -0.072257592525 Eh    ::
         :: repulsion energy           2.865755563263 Eh    ::

    * Orbital Energies and Occupations

         #    Occupation            Energy/Eh            Energy/eV
      -------------------------------------------------------------
         1        2.0000           -0.7366831             -20.0462
       ...           ...                  ...                  ...
       135        2.0000           -0.4156098             -11.3093
       136        2.0000           -0.4135117             -11.2522
       137        2.0000           -0.4126466             -11.2287
       138        2.0000           -0.4108212             -11.1790
       139        2.0000           -0.4049761             -11.0200
       140        2.0000           -0.3896358             -10.6025
       141        2.0000           -0.3887217             -10.5777
       142        2.0000           -0.3886841             -10.5766
       143        2.0000           -0.3879510             -10.5567
       144        2.0000           -0.3807184             -10.3599
       145        2.0000           -0.3804678             -10.3531
       146        2.0000           -0.3778296             -10.2813
       147        2.0000           -0.3623496              -9.8600 (HOMO)
       148                         -0.2946851              -8.0188 (LUMO)
       149                         -0.2931346              -7.9766
       150                         -0.2543857              -6.9222
       151                         -0.2543094              -6.9201
       152                         -0.2538619              -6.9079
       153                         -0.2474790              -6.7342
       154                         -0.2458742              -6.6906
       155                         -0.2403104              -6.5392
       156                         -0.2364472              -6.4341
       157                         -0.2337861              -6.3616
       158                         -0.2337584              -6.3609
       ...                                ...                  ...
       286                          0.7488321              20.3768
      -------------------------------------------------------------
                  HL-Gap            0.0676646 Eh            1.8412 eV

     #   Z          covCN         q      C6AA      α(0)
     1   6 C        2.920    -0.022    28.561     8.764
     2   6 C        2.918    -0.027    28.683     8.782
     3   6 C        2.924    -0.026    28.651     8.778
     4   6 C        2.983    -0.010    28.255     8.719
     5   6 C        2.979     0.217    23.427     7.939
     6   7 N        1.844    -0.324    29.252     8.016
     7   6 C        2.979     0.217    23.427     7.939
     8   6 C        2.983    -0.010    28.256     8.719
     9   6 C        2.924    -0.026    28.655     8.779
    10   6 C        2.918    -0.027    28.684     8.783
    11   6 C        2.920    -0.022    28.561     8.764
    12   6 C        2.918    -0.027    28.683     8.782
    13   6 C        2.923    -0.026    28.650     8.778
    14   7 N        1.844    -0.324    29.244     8.014
    15   6 C        2.979     0.216    23.443     7.942
    16   6 C        2.983    -0.013    28.342     8.733
    17   6 C        2.923    -0.025    28.627     8.774
    18   6 C        2.920    -0.042    29.043     8.838
    19   6 C        2.912     0.071    26.409     8.427
    20   7 N        2.801    -0.034    21.903     6.951
    21   6 C        3.072     0.044    26.941     8.511
    22   6 C        2.908    -0.051    29.263     8.870
    23   6 C        2.928    -0.038    28.942     8.823
    24   6 C        2.977     0.001    27.990     8.678
    25   6 C        2.977     0.004    27.926     8.668
    26   6 C        2.931    -0.038    28.943     8.823
    27   6 C        2.907    -0.054    29.352     8.884
    28   6 C        3.096     0.125    25.159     8.221
    29   8 O        1.714    -0.245    18.054     5.737
    30   6 C        3.095     0.127    25.113     8.213
    31   6 C        2.908    -0.054    29.335     8.881
    32   6 C        2.926    -0.033    28.814     8.803
    33   6 C        2.920    -0.039    28.966     8.826
    34   6 C        2.913    -0.034    28.852     8.808
    35   6 C        3.054    -0.020    28.458     8.749
    36   6 C        3.051    -0.021    28.482     8.753
    37   6 C        2.918    -0.040    29.002     8.831
    38   6 C        2.918    -0.038    28.949     8.823
    39   6 C        3.064    -0.015    28.330     8.728
    40   6 C        3.064    -0.015    28.331     8.728
    41   6 C        2.918    -0.038    28.950     8.823
    42   6 C        2.977     0.001    27.990     8.678
    43   6 C        2.977     0.004    27.928     8.669
    44   6 C        2.931    -0.038    28.945     8.823
    45   6 C        2.907    -0.055    29.353     8.884
    46   6 C        3.096     0.125    25.160     8.221
    47   8 O        1.714    -0.245    18.057     5.737
    48   6 C        3.095     0.127    25.113     8.213
    49   6 C        2.908    -0.054    29.335     8.881
    50   6 C        2.926    -0.033    28.815     8.803
    51   6 C        2.920    -0.039    28.966     8.826
    52   6 C        2.913    -0.034    28.853     8.808
    53   6 C        3.054    -0.020    28.458     8.749
    54   6 C        3.051    -0.021    28.483     8.753
    55   6 C        2.918    -0.040    29.004     8.832
    56   6 C        2.929    -0.038    28.942     8.823
    57   6 C        2.908    -0.051    29.263     8.870
    58   6 C        3.072     0.044    26.940     8.510
    59   6 C        2.920    -0.042    29.044     8.838
    60   6 C        2.923    -0.025    28.627     8.774
    61   7 N        1.844    -0.324    29.243     8.014
    62   6 C        2.923    -0.026    28.655     8.778
    63   6 C        2.918    -0.027    28.684     8.783
    64   1 H        0.926     0.049     2.328     2.386
    65   1 H        0.926     0.047     2.358     2.401
    66   1 H        0.926     0.050     2.318     2.381
    67   1 H        0.926     0.050     2.315     2.379
    68   1 H        0.926     0.047     2.355     2.400
    69   1 H        0.926     0.049     2.328     2.386
    70   1 H        0.926     0.047     2.357     2.401
    71   1 H        0.926     0.050     2.319     2.381
    72   1 H        0.926     0.057     2.234     2.337
    73   1 H        0.926     0.056     2.249     2.345
    74   1 H        0.926     0.035     2.523     2.484
    75   1 H        0.926     0.037     2.484     2.465
    76   1 H        0.926     0.046     2.370     2.407
    77   1 H        0.926     0.045     2.379     2.412
    78   1 H        0.926     0.045     2.385     2.415
    79   1 H        0.926     0.044     2.400     2.422
    80   1 H        0.926     0.041     2.430     2.438
    81   1 H        0.926     0.042     2.417     2.431
    82   1 H        0.926     0.043     2.405     2.425
    83   1 H        0.926     0.038     2.469     2.457
    84   1 H        0.926     0.039     2.466     2.456
    85   1 H        0.926     0.046     2.372     2.408
    86   1 H        0.926     0.045     2.381     2.413
    87   1 H        0.926     0.045     2.387     2.416
    88   1 H        0.926     0.044     2.400     2.423
    89   1 H        0.926     0.042     2.429     2.437
    90   1 H        0.926     0.043     2.414     2.430
    91   1 H        0.926     0.044     2.400     2.422
    92   1 H        0.926     0.037     2.485     2.465
    93   1 H        0.926     0.034     2.524     2.484
    94   1 H        0.926     0.056     2.251     2.346
    95   1 H        0.926     0.057     2.235     2.338
    96   1 H        0.926     0.050     2.315     2.379
    97   1 H        0.926     0.047     2.354     2.399

molecular dipole:
                 x           y           z       tot (Debye)
 q only:       -1.169      -0.054      -0.507
   full:       -1.090      -0.045      -0.415       2.967

 projected vibrational frequencies (cm⁻¹)
eigval :       -0.00    -0.00    -0.00     0.00     0.00     0.00
eigval :        9.07    10.28    10.74    13.31    21.08    26.22
eigval :       27.14    29.95    35.06    36.25    40.91    53.79
eigval :       57.35    63.93    72.51    80.94    85.60    93.19
eigval :      101.55   103.89   114.78   118.75   129.64   139.77
eigval :      151.48   152.01   161.90   183.33   189.68   195.69
eigval :      206.79   219.34   225.63   237.43   246.36   262.30
eigval :      269.41   279.86   281.54   286.57   295.50   318.68
eigval :      353.85   364.10   365.98   367.29   376.20   380.27
eigval :      391.15   392.93   396.05   396.66   402.57   412.34
eigval :      413.26   424.14   427.49   429.17   432.04   434.53
eigval :      445.28   455.74   460.02   480.10   490.50   515.17
eigval :      518.59   532.68   538.48   538.62   554.44   561.86
eigval :      566.53   572.19   578.72   587.16   587.80   598.75
eigval :      601.16   602.95   613.64   614.86   616.49   624.32
eigval :      624.93   628.67   640.18   645.85   646.07   663.48
eigval :      675.42   675.53   682.70   692.49   695.72   698.00
eigval :      708.60   711.10   713.73   715.28   728.82   750.28
eigval :      767.87   775.37   775.71   781.24   794.72   797.40
eigval :      812.85   816.79   828.25   832.27   836.11   839.01
eigval :      843.47   843.95   846.75   847.07   858.21   869.58
eigval :      870.09   873.91   874.29   874.58   875.19   876.19
eigval :      879.92   880.67   901.07   905.61   908.82   910.73
eigval :      911.49   911.89   912.35   913.57   916.29   919.13
eigval :      920.99   926.12   926.64   929.41   930.13   932.06
eigval :      933.45   933.94   940.24   974.85   989.29   997.65
eigval :     1007.20  1012.22  1030.55  1047.56  1060.47  1061.38
eigval :     1067.39  1068.15  1074.10  1074.87  1087.41  1107.30
eigval :     1111.95  1115.43  1115.70  1121.39  1127.93  1139.25
eigval :     1140.10  1156.09  1161.11  1166.48  1170.16  1170.93
eigval :     1176.38  1177.26  1179.15  1185.62  1191.13  1191.50
eigval :     1200.97  1201.66  1205.18  1205.90  1209.01  1218.84
eigval :     1223.70  1239.34  1240.72  1244.52  1247.16  1249.47
eigval :     1251.23  1258.28  1267.33  1268.64  1269.81  1287.94
eigval :     1307.14  1307.33  1324.81  1325.94  1327.88  1337.14
eigval :     1337.50  1344.84  1349.80  1351.65  1359.33  1360.92
eigval :     1365.44  1368.01  1381.96  1405.01  1409.83  1410.31
eigval :     1412.85  1417.21  1422.20  1427.25  1430.27  1431.70
eigval :     1448.57  1455.20  1463.00  1472.22  1473.65  1474.39
eigval :     1491.75  1494.08  1497.69  1506.28  1506.48  1557.03
eigval :     1564.97  1566.06  1568.79  1575.48  1581.29  1582.59
eigval :     1588.25  1589.22  1589.52  1592.49  1592.89  1593.06
eigval :     1597.06  1598.83  1608.52  1614.78  1616.37  3077.63
eigval :     3078.06  3079.62  3080.39  3081.05  3081.60  3082.41
eigval :     3082.82  3086.67  3086.85  3086.98  3087.11  3089.73
eigval :     3091.44  3091.79  3092.18  3092.37  3093.03  3093.44
eigval :     3094.17  3094.38  3095.23  3095.38  3095.72  3101.22
eigval :     3101.34  3102.49  3102.84  3103.16  3104.52  3105.26
eigval :     3107.17  3108.04  3109.32

   temp. (K)  partition function   enthalpy   heat capacity  entropy
                                   cal/mol     cal/K/mol   cal/K/mol   J/K/mol
 298.15  VIB  0.174E+24            28477.988    178.667    178.276
         ROT  0.409E+09              888.752      2.981     42.388
         INT  0.713E+32            29366.741    181.648    220.664
         TR   0.222E+29             1481.254      4.968     45.921
         TOT                       30847.9947   186.6160   266.5851  1115.3922

       T/K    H(0)-H(T)+PV         H(T)/Eh          T*S/Eh         G(T)/Eh
   ------------------------------------------------------------------------
    298.15    0.491594E-01    0.776550E+00    0.126663E+00    0.649886E+00
   ------------------------------------------------------------------------

         :::::::::::::::::::::::::::::::::::::::::::::::::::::
         ::                  THERMODYNAMIC                  ::
         :::::::::::::::::::::::::::::::::::::::::::::::::::::
         :: total free energy        -158.750390025664 Eh   ::
         ::.................................................::
         :: total energy             -159.400276515297 Eh   ::
         :: zero point energy           0.727390277328 Eh   ::
         :: G(RRHO) w/o ZPVE           -0.077503787695 Eh   ::
         :: G(RRHO) contrib.            0.649886489633 Eh   ::
         :::::::::::::::::::::::::::::::::::::::::::::::::::::

           -------------------------------------------------
          | TOTAL ENERGY             -159.400276515297 Eh   |
          | TOTAL ENTHALPY           -158.623726829285 Eh   |
          | TOTAL FREE ENERGY        -158.750390025664 Eh   |
          | GRADIENT NORM               0.000131100957 Eh/α |
          | HOMO-LUMO GAP               1.841246407683 eV   |
           -------------------------------------------------

 * finished run on 2025/09/03 at 17:52:30.533
