   * xtb version 6.7.1 (edcfbbe) compiled by 'albert@albert-system' on 2024-07-22

   ID    Z sym.   atoms
    1    6 C      1-6, 8, 10-16, 18-27, 29-34
    2    7 N      7, 9, 28, 35
    3    8 O      17
    4    1 H      36-53

          program call               : xtb data2507/gas/4-DBFBI/4-DBFBI.xyz --gfn 2 --ohess vtight --parallel 40 --molden --ceasefiles --namespace data2507/gas/4-DBFBI/4-DBFBI_gas_S0_preOpt
          :  Hamiltonian                  GFN2-xTB          :
 * total energy  :   -89.2462642 Eh     change       -0.3733817E-08 Eh
 * total energy  :   -89.2573455 Eh     change       -0.1108123E-01 Eh
 * total energy  :   -89.2604411 Eh     change       -0.3095622E-02 Eh
 * total energy  :   -89.2612750 Eh     change       -0.8338761E-03 Eh
 * total energy  :   -89.2618308 Eh     change       -0.5557912E-03 Eh
 * total energy  :   -89.2620217 Eh     change       -0.1909354E-03 Eh
 * total energy  :   -89.2621121 Eh     change       -0.9044276E-04 Eh
 * total energy  :   -89.2621593 Eh     change       -0.4717482E-04 Eh
 * total energy  :   -89.2622126 Eh     change       -0.5327411E-04 Eh
 * total energy  :   -89.2622525 Eh     change       -0.3987907E-04 Eh
 * total energy  :   -89.2631284 Eh     change       -0.5311909E-06 Eh
 * total energy  :   -89.2631289 Eh     change       -0.4981430E-06 Eh
 * total energy  :   -89.2631294 Eh     change       -0.4823130E-06 Eh
 * total energy  :   -89.2631298 Eh     change       -0.4920829E-06 Eh
 * total energy  :   -89.2631304 Eh     change       -0.5280368E-06 Eh
 * total energy  :   -89.2631310 Eh     change       -0.5811049E-06 Eh
 * total energy  :   -89.2631316 Eh     change       -0.6326790E-06 Eh
 * total energy  :   -89.2631323 Eh     change       -0.6654066E-06 Eh
 * total energy  :   -89.2631323 Eh     change       -0.3098947E-08 Eh
   *** GEOMETRY OPTIMIZATION CONVERGED AFTER 68 ITERATIONS ***

 final structure:
================
53
 xtb: 6.7.1 (edcfbbe)
C           -7.17015484772341       -2.84511334886744        0.95371972933651
C           -7.64538564500216       -1.55974784593497        1.20673139624985
C           -6.85981318232778       -0.44348162663310        0.98439106107542
C           -5.58359708618814       -0.65820924828441        0.50079721008595
C           -5.08517257521974       -1.96596602502860        0.23976095864324
C           -5.89542428810985       -3.06847567447753        0.47121656105133
N           -3.78860541691611       -1.91804859313681       -0.23100513450413
C           -3.51466397292807       -0.65108125164544       -0.26672077044658
N           -2.42529241644021        0.12180988132972       -0.57172789862782
C           -1.20146920189539       -0.36870096606813       -1.03327024141390
C           -0.00321642135872        0.18092023311603       -0.58410572150258
C            1.19071477620678       -0.34151902514581       -1.07042277255499
C            2.48459518017496        0.20475623143698       -0.63675052816916
C            2.64489417199827        1.58971328348522       -0.49975463159151
C            3.84168072322573        2.15306220992924       -0.10244790391966
C            4.89063674147334        1.29338469712775        0.17161142338663
O            6.13851626975874        1.64100940597282        0.58079364182857
C            6.83004211235961        0.47620594185829        0.72921834616297
C            8.14648203564666        0.34767711767483        1.13334846517850
C            8.65910246257832       -0.93449973653163        1.22103004106971
C            7.88445573182762       -2.05071346863200        0.91560263866465
C            6.57014934579510       -1.92132583293475        0.51150474455724
C            6.03442737745112       -0.64391748610955        0.41653586121981
C            4.75263012585677       -0.10429635571289        0.04602312588958
C            3.54688482332448       -0.64908648512028       -0.36574054860360
C            1.11556851119347       -1.40507000377232       -1.97215631702492
C           -0.13112225974007       -1.88437696482152       -2.33285922543892
N           -1.26530361670603       -1.37828728806344       -1.88638301828797
C           -2.78577497744069        1.44878303239365       -0.35174034836476
C           -2.09607018800991        2.62729301920658       -0.57142930323965
C           -2.73613415325503        3.82010633153446       -0.27071566165775
C           -4.03235403593140        3.84532709240183        0.22513491962221
C           -4.74871272677752        2.67494332646254        0.41885250909512
C           -4.11869925503762        1.48220707512418        0.12079163301476
N           -4.54193618418080        0.17578162276669        0.16605602349912
H           -7.82013338727328       -3.68713809384476        1.14147412849340
H           -8.64907044822186       -1.43209425133496        1.58402952319985
H           -7.22981379240736        0.55146613126737        1.18028870041288
H           -5.52801705388634       -4.06246883660826        0.27499747419150
H           -0.00050120557020        0.96009682381746        0.16139726699560
H            1.81417902940436        2.23784203504621       -0.73502647961729
H            3.96069900421291        3.22035701759876       -0.00818696558089
H            8.74084221870755        1.21575167984796        1.36864039791210
H            9.68304278776709       -1.07216016138438        1.53384299720479
H            8.32285871779071       -3.03388016730834        0.99779334117059
H            5.97032526522787       -2.78690574859067        0.27580245219011
H            3.42921267309699       -1.71855634695278       -0.44893361580436
H            2.01222771969632       -1.83547730310247       -2.38907642759692
H           -0.23623614623836       -2.70995115730298       -3.02359879056100
H           -1.09943813962409        2.62699664699748       -0.98262133300695
H           -2.21284922794356        4.75029993554923       -0.43123982539426
H           -4.49586245116588        4.79297259027550        0.45189833916208
H           -5.76334450125363        2.69178393113403        0.78262655233764

          :  Hamiltonian                  GFN2-xTB          :
         :: gradient norm              0.000045053246 Eh/a0 ::
         :: HOMO-LUMO gap              2.561722540995 eV    ::
         :: SCC energy               -90.821152184042 Eh    ::
         :: -> dispersion             -0.069920391244 Eh    ::
         :: repulsion energy           1.558019930218 Eh    ::

    * Orbital Energies and Occupations

         #    Occupation            Energy/Eh            Energy/eV
      -------------------------------------------------------------
         1        2.0000           -0.7431789             -20.2229
       ...           ...                  ...                  ...
        70        2.0000           -0.4311742             -11.7328
        71        2.0000           -0.4301574             -11.7052
        72        2.0000           -0.4251270             -11.5683
        73        2.0000           -0.4215080             -11.4698
        74        2.0000           -0.4183597             -11.3841
        75        2.0000           -0.4140402             -11.2666
        76        2.0000           -0.4003220             -10.8933
        77        2.0000           -0.3974022             -10.8139
        78        2.0000           -0.3935107             -10.7080
        79        2.0000           -0.3775939             -10.2749
        80        2.0000           -0.3755889             -10.2203
        81        2.0000           -0.3734489             -10.1621
        82        2.0000           -0.3620620              -9.8522 (HOMO)
        83                         -0.2679204              -7.2905 (LUMO)
        84                         -0.2630080              -7.1568
        85                         -0.2479335              -6.7466
        86                         -0.2420976              -6.5878
        87                         -0.2326998              -6.3321
        88                         -0.2294134              -6.2427
        89                         -0.2153306              -5.8594
        90                         -0.2086574              -5.6779
        91                         -0.2000375              -5.4433
        92                         -0.1928471              -5.2476
        93                         -0.1521575              -4.1404
       ...                                ...                  ...
       158                          0.7437825              20.2394
      -------------------------------------------------------------
                  HL-Gap            0.0941416 Eh            2.5617 eV

     #   Z          covCN         q      C6AA      α(0)
     1   6 C        2.922    -0.038    28.957     8.825
     2   6 C        2.926    -0.040    28.991     8.830
     3   6 C        2.907    -0.048    29.184     8.858
     4   6 C        3.064     0.029    27.290     8.566
     5   6 C        3.244     0.068    25.550     8.191
     6   6 C        2.911    -0.042    29.049     8.838
     7   7 N        1.862    -0.308    28.826     7.958
     8   6 C        3.351     0.200    21.393     7.287
     9   7 N        2.800    -0.058    22.356     7.022
    10   6 C        2.908     0.153    24.676     8.145
    11   6 C        2.922    -0.063    29.558     8.916
    12   6 C        2.986     0.029    27.345     8.578
    13   6 C        2.977     0.001    28.007     8.681
    14   6 C        2.931    -0.035    28.879     8.813
    15   6 C        2.907    -0.052    29.288     8.874
    16   6 C        3.103     0.131    25.021     8.197
    17   8 O        1.715    -0.221    17.658     5.674
    18   6 C        3.104     0.130    25.040     8.200
    19   6 C        2.908    -0.051    29.264     8.870
    20   6 C        2.927    -0.031    28.770     8.796
    21   6 C        2.921    -0.037    28.925     8.820
    22   6 C        2.913    -0.032    28.807     8.801
    23   6 C        3.056    -0.019    28.417     8.742
    24   6 C        3.054    -0.018    28.410     8.741
    25   6 C        2.918    -0.036    28.899     8.816
    26   6 C        2.918    -0.051    29.268     8.872
    27   6 C        2.913     0.062    26.605     8.458
    28   7 N        1.845    -0.226    26.786     7.670
    29   6 C        3.077     0.042    26.982     8.516
    30   6 C        2.911    -0.048    29.183     8.858
    31   6 C        2.923    -0.037    28.915     8.818
    32   6 C        2.924    -0.037    28.923     8.819
    33   6 C        2.910    -0.045    29.105     8.846
    34   6 C        3.029     0.045    26.958     8.517
    35   7 N        2.899    -0.054    22.285     7.011
    36   1 H        0.926     0.032     2.552     2.498
    37   1 H        0.926     0.031     2.574     2.509
    38   1 H        0.926     0.027     2.632     2.537
    39   1 H        0.926     0.046     2.367     2.406
    40   1 H        0.926     0.044     2.391     2.418
    41   1 H        0.926     0.040     2.445     2.445
    42   1 H        0.926     0.050     2.317     2.380
    43   1 H        0.926     0.049     2.338     2.391
    44   1 H        0.926     0.042     2.424     2.435
    45   1 H        0.926     0.039     2.460     2.452
    46   1 H        0.926     0.040     2.452     2.449
    47   1 H        0.926     0.043     2.405     2.425
    48   1 H        0.926     0.042     2.425     2.435
    49   1 H        0.925     0.050     2.317     2.380
    50   1 H        0.926     0.037     2.488     2.466
    51   1 H        0.926     0.039     2.457     2.451
    52   1 H        0.926     0.040     2.445     2.445
    53   1 H        0.926     0.043     2.411     2.428

molecular dipole:
                 x           y           z       tot (Debye)
 q only:        1.043       0.635       0.069
   full:        1.223       1.156       0.254       4.327

 projected vibrational frequencies (cm⁻¹)
eigval :       -0.00     0.00     0.00     0.00     0.00     0.00
eigval :       13.53    17.82    25.20    46.37    61.66    69.98
eigval :       82.22    95.54   111.57   122.23   144.01   163.49
eigval :      190.70   206.11   217.59   240.38   247.79   279.80
eigval :      284.91   306.71   317.44   331.29   363.88   392.45
eigval :      400.11   410.03   415.25   420.67   426.69   435.40
eigval :      446.84   455.29   513.45   527.72   537.08   539.47
eigval :      545.68   549.26   569.25   593.77   599.29   601.19
eigval :      623.56   634.66   652.12   659.54   677.47   680.79
eigval :      694.73   700.06   706.93   716.55   724.00   730.64
eigval :      770.21   773.03   779.42   790.23   814.39   829.98
eigval :      836.66   846.74   861.08   865.05   869.25   873.15
eigval :      875.68   885.95   890.37   894.38   898.93   904.73
eigval :      909.53   915.50   919.50   919.93   924.70   925.62
eigval :      974.14  1011.92  1015.35  1057.42  1062.21  1069.20
eigval :     1077.58  1090.36  1110.19  1119.59  1135.12  1139.95
eigval :     1140.99  1165.49  1172.64  1178.20  1184.19  1190.94
eigval :     1203.51  1215.51  1231.86  1240.07  1247.92  1250.87
eigval :     1253.56  1262.58  1271.65  1281.26  1292.63  1304.56
eigval :     1334.53  1341.20  1350.05  1359.23  1361.10  1387.49
eigval :     1402.45  1413.08  1419.06  1429.13  1444.63  1463.33
eigval :     1472.98  1476.32  1489.66  1502.88  1544.03  1567.12
eigval :     1573.31  1580.00  1590.77  1591.93  1599.34  1604.46
eigval :     1610.04  1617.41  1661.08  3065.47  3076.98  3082.04
eigval :     3084.55  3088.87  3089.17  3091.58  3093.59  3095.10
eigval :     3097.45  3099.76  3100.31  3101.15  3106.82  3109.35
eigval :     3110.01  3111.26  3112.18

   temp. (K)  partition function   enthalpy   heat capacity  entropy
                                   cal/mol     cal/K/mol   cal/K/mol   J/K/mol
 298.15  VIB  0.136E+11            14170.774     95.097     85.791
         ROT  0.379E+08              888.752      2.981     37.661
         INT  0.516E+18            15059.526     98.078    123.452
         TR   0.925E+28             1481.254      4.968     44.185
         TOT                       16540.7801   103.0465   167.6368   701.3922

       T/K    H(0)-H(T)+PV         H(T)/Eh          T*S/Eh         G(T)/Eh
   ------------------------------------------------------------------------
    298.15    0.263594E-01    0.420819E+00    0.796496E-01    0.341170E+00
   ------------------------------------------------------------------------

         :::::::::::::::::::::::::::::::::::::::::::::::::::::
         ::                  THERMODYNAMIC                  ::
         :::::::::::::::::::::::::::::::::::::::::::::::::::::
         :: total free energy         -88.921962504988 Eh   ::
         ::.................................................::
         :: total energy              -89.263132253825 Eh   ::
         :: zero point energy           0.394459967228 Eh   ::
         :: G(RRHO) w/o ZPVE           -0.053290218392 Eh   ::
         :: G(RRHO) contrib.            0.341169748837 Eh   ::
         :::::::::::::::::::::::::::::::::::::::::::::::::::::

           -------------------------------------------------
          | TOTAL ENERGY              -89.263132253825 Eh   |
          | TOTAL ENTHALPY            -88.842312875653 Eh   |
          | TOTAL FREE ENERGY         -88.921962504988 Eh   |
          | GRADIENT NORM               0.000045053969 Eh/α |
          | HOMO-LUMO GAP               2.561722238046 eV   |
           -------------------------------------------------

 * finished run on 2025/09/04 at 14:59:32.807
