   * xtb version 6.7.1 (edcfbbe) compiled by 'albert@albert-system' on 2024-07-22

   ID    Z sym.   atoms
    1    6 C      1-6, 8, 10-16, 18-27, 29-34
    2    7 N      7, 9, 28, 35
    3    8 O      17
    4    1 H      36-53

          program call               : xtb data2507/gas/4-DBFBI/4-DBFBI_gas_S0_finalOpt.xtbopt.xyz --gfn 2 --spinpol --tblite --uhf 2 --ohess vtight --parallel 40 --molden --ceasefiles --namespace data2507/gas/4-DBFBI/4-DBFBI_gas_T1_preOpt
 * total energy  :   -89.1639543 Eh     change       -0.9673684E-08 Eh
 * total energy  :   -89.1676670 Eh     change       -0.3712742E-02 Eh
 * total energy  :   -89.1687950 Eh     change       -0.1127964E-02 Eh
 * total energy  :   -89.1690201 Eh     change       -0.2250843E-03 Eh
 * total energy  :   -89.1693294 Eh     change       -0.3093689E-03 Eh
 * total energy  :   -89.1695263 Eh     change       -0.1968400E-03 Eh
 * total energy  :   -89.1697226 Eh     change       -0.1963282E-03 Eh
 * total energy  :   -89.1698525 Eh     change       -0.1299268E-03 Eh
 * total energy  :   -89.1699272 Eh     change       -0.7466482E-04 Eh
 * total energy  :   -89.1699956 Eh     change       -0.6836811E-04 Eh
 * total energy  :   -89.1709662 Eh     change       -0.1463742E-05 Eh
 * total energy  :   -89.1709674 Eh     change       -0.1205434E-05 Eh
 * total energy  :   -89.1709684 Eh     change       -0.9786284E-06 Eh
 * total energy  :   -89.1709692 Eh     change       -0.8081171E-06 Eh
 * total energy  :   -89.1709699 Eh     change       -0.7622834E-06 Eh
 * total energy  :   -89.1709707 Eh     change       -0.7858123E-06 Eh
 * total energy  :   -89.1709718 Eh     change       -0.1036407E-05 Eh
 * total energy  :   -89.1709731 Eh     change       -0.1324967E-05 Eh
 * total energy  :   -89.1709731 Eh     change       -0.2236990E-07 Eh
   *** GEOMETRY OPTIMIZATION CONVERGED AFTER 68 ITERATIONS ***

 final structure:
================
53
 xtb: 6.7.1 (edcfbbe)
C           -2.14715991792555        4.86555745359432        0.21414778296006
C           -3.53649758723907        4.75794351426739        0.24065637294088
C           -4.16931050296814        3.52612477373617        0.18736066708840
C           -3.36452306231311        2.40890780753762        0.10859313788375
C           -1.94207318619066        2.50488106795094        0.07763034954989
C           -1.33307038582220        3.75367808530044        0.13305394156646
N           -1.36688739232620        1.26137345302934       -0.01048510598018
C           -2.38472763308584        0.43510216870828       -0.02255812785369
N           -2.55728969903369       -0.91602752510256       -0.08568678721694
C           -1.53561723821680       -1.85908926617939       -0.15382751074015
C           -0.22684509411268       -1.48045473967628        0.00089351544806
C            0.82064742543037       -2.44308084887010       -0.04266401121700
C            2.18797214200264       -2.07436775675297        0.02806635354399
C            3.21534307590539       -3.04457908032793        0.26478536903537
C            4.54313988166023       -2.72297119439678        0.34125751446411
C            4.90340487450188       -1.38548878730828        0.16925413025025
O            6.15772289509834       -0.86124474625452        0.19661640951148
C            6.01973598788005        0.47470256119492       -0.02455022648294
C            7.04015816744972        1.40642437252191       -0.08681646579939
C            6.68286780593436        2.72423029595092       -0.32535265782046
C            5.35446447932772        3.09671398083014       -0.49541752829797
C            4.33380919858391        2.16162596131390       -0.43308577432323
C            4.66783508597352        0.83855237764775       -0.19589479602938
C            3.92111986255132       -0.39040463702572       -0.06807895181949
C            2.59023126876019       -0.71511013029907       -0.13973085369456
C            0.38004514416110       -3.80491622889471       -0.21061422900995
C           -0.94570040368093       -4.07601154376755       -0.36659049383681
N           -1.90885261445746       -3.14760166915748       -0.33621252857899
C           -3.92945074038117       -1.14953597015176       -0.05682335562637
C           -4.64849056533021       -2.33214901356843       -0.09218107108539
C           -6.02974470458789       -2.24701153717768       -0.06901134085504
C           -6.68502947094944       -1.02058260829551       -0.00090341910695
C           -5.98035702841719        0.17068090152398        0.04374502239782
C           -4.60082847378591        0.09620338957530        0.01707892117572
N           -3.61738006487341        1.05668759329620        0.04132729605569
H           -1.69937914345153        5.84711132695585        0.25934202465412
H           -4.13441985733148        5.65442543534718        0.30449480902296
H           -5.24526673710479        3.44762452186246        0.20691706209092
H           -0.25862284402133        3.83613666096424        0.11527435588821
H           -0.03153055546340       -0.44585243124498        0.22891149179595
H            2.93115853820013       -4.07238908497788        0.42024872927541
H            5.29575617251813       -3.47174593135684        0.53193659742787
H            8.06894582073474        1.11171225714372        0.04462531108802
H            7.45520626613052        3.47661947908735       -0.38057433708261
H            5.11661314310794        4.13365726577859       -0.67978290153757
H            3.30274316469972        2.45081708200268       -0.56611360185583
H            1.86092313830782        0.05029238183393       -0.34489887920123
H            1.08890059018219       -4.61233565432789       -0.27838405652887
H           -1.29657399901432       -5.08457358115777       -0.53863010391465
H           -4.13271549254742       -3.27705852449270       -0.13934110028760
H           -6.61301775102473       -3.15427645208201       -0.09853771155073
H           -7.76365626334964       -0.99657429988382        0.02225066353541
H           -6.48618349254028        1.12131518567505        0.09782882697484

 projected vibrational frequencies (cm⁻¹)
eigval :       -0.00    -0.00    -0.00    -0.00     0.00     0.00
eigval :       10.94    18.94    27.45    49.93    52.72    76.33
eigval :       79.98   104.67   105.94   119.81   142.03   153.13
eigval :      165.58   183.47   197.72   237.58   248.26   269.51
eigval :      285.71   304.84   308.34   315.24   332.08   356.28
eigval :      374.99   384.00   402.64   408.45   414.65   417.38
eigval :      431.07   445.66   474.27   509.58   515.09   527.50
eigval :      533.07   539.21   539.60   545.59   585.08   591.96
eigval :      593.74   596.86   611.89   641.64   650.67   660.59
eigval :      664.98   676.37   698.71   705.52   713.91   721.83
eigval :      729.14   766.81   767.47   772.41   774.70   784.80
eigval :      792.16   805.09   816.53   829.62   844.23   857.97
eigval :      859.88   864.83   866.74   877.00   888.75   891.70
eigval :      897.90   900.81   904.18   916.40   917.57   919.14
eigval :      927.39   970.94   989.81  1014.12  1049.49  1054.75
eigval :     1059.62  1062.33  1082.03  1100.97  1112.05  1126.64
eigval :     1131.19  1154.93  1161.88  1170.57  1172.30  1181.99
eigval :     1188.39  1201.61  1208.45  1229.60  1236.69  1240.00
eigval :     1251.48  1258.82  1263.05  1270.78  1277.97  1284.75
eigval :     1320.78  1324.60  1334.47  1353.53  1358.15  1358.55
eigval :     1364.67  1378.93  1390.01  1404.93  1411.02  1419.45
eigval :     1431.64  1440.24  1458.97  1474.63  1481.87  1487.83
eigval :     1524.16  1535.11  1556.95  1575.48  1583.13  1589.37
eigval :     1591.09  1593.54  1628.27  3056.38  3082.66  3083.02
eigval :     3088.47  3090.86  3091.32  3095.54  3098.76  3099.30
eigval :     3100.12  3105.03  3107.43  3108.64  3108.89  3112.02
eigval :     3113.63  3117.26  3117.99

   temp. (K)  partition function   enthalpy   heat capacity  entropy
                                   cal/mol     cal/K/mol   cal/K/mol   J/K/mol
 298.15  VIB  0.294E+11            14699.383     98.177     89.036
         ROT  0.352E+08              888.752      2.981     37.515
         INT  0.104E+19            15588.135    101.158    126.551
         TR   0.925E+28             1481.254      4.968     44.185
         TOT                       17069.3891   106.1263   170.7353   714.3565

       T/K    H(0)-H(T)+PV         H(T)/Eh          T*S/Eh         G(T)/Eh
   ------------------------------------------------------------------------
    298.15    0.272018E-01    0.415748E+00    0.811219E-01    0.334626E+00
   ------------------------------------------------------------------------

         :::::::::::::::::::::::::::::::::::::::::::::::::::::
         ::                  THERMODYNAMIC                  ::
         :::::::::::::::::::::::::::::::::::::::::::::::::::::
         :: total free energy         -88.836346884132 Eh   ::
         ::.................................................::
         :: total energy              -89.170973077560 Eh   ::
         :: zero point energy           0.388546244018 Eh   ::
         :: G(RRHO) w/o ZPVE           -0.053920050589 Eh   ::
         :: G(RRHO) contrib.            0.334626193428 Eh   ::
         :::::::::::::::::::::::::::::::::::::::::::::::::::::

           -------------------------------------------------
          | TOTAL ENERGY              -89.170973077560 Eh   |
          | TOTAL ENTHALPY            -88.755225030484 Eh   |
          | TOTAL FREE ENERGY         -88.836346884132 Eh   |
          | GRADIENT NORM               0.000075798423 Eh/α |
           -------------------------------------------------

 * finished run on 2025/09/04 at 15:01:24.143
