   * xtb version 6.7.1 (edcfbbe) compiled by 'albert@albert-system' on 2024-07-22

   ID    Z sym.   atoms
    1    6 C      1-6, 8, 10-16, 18-27, 29-34
    2    7 N      7, 9, 28, 35
    3    8 O      17
    4    1 H      36-53

          program call               : xtb data2507/gas/4-DBFBI/4-DBFBI_gas_T1_crest.xyz --gfn 2 --spinpol --tblite --uhf 2 --ohess vtight --parallel 40 --molden --ceasefiles --namespace data2507/gas/4-DBFBI/4-DBFBI_gas_T1_finalOpt
 * total energy  :   -89.1709282 Eh     change       -0.2700219E-08 Eh
 * total energy  :   -89.1709873 Eh     change       -0.5911611E-04 Eh
 * total energy  :   -89.1710042 Eh     change       -0.1689915E-04 Eh
 * total energy  :   -89.1710061 Eh     change       -0.1811240E-05 Eh
 * total energy  :   -89.1710068 Eh     change       -0.7716260E-06 Eh
 * total energy  :   -89.1710074 Eh     change       -0.5728075E-06 Eh
 * total energy  :   -89.1710081 Eh     change       -0.7036674E-06 Eh
 * total energy  :   -89.1710087 Eh     change       -0.6377384E-06 Eh
 * total energy  :   -89.1710092 Eh     change       -0.4322631E-06 Eh
 * total energy  :   -89.1710096 Eh     change       -0.3961219E-06 Eh
 * total energy  :   -89.1710101 Eh     change       -0.5093464E-06 Eh
 * total energy  :   -89.1710107 Eh     change       -0.6471399E-06 Eh
 * total energy  :   -89.1710113 Eh     change       -0.6172493E-06 Eh
 * total energy  :   -89.1710118 Eh     change       -0.4196102E-06 Eh
 * total energy  :   -89.1710120 Eh     change       -0.2172359E-06 Eh
 * total energy  :   -89.1710121 Eh     change       -0.1300096E-06 Eh
 * total energy  :   -89.1710122 Eh     change       -0.6234670E-07 Eh
   *** GEOMETRY OPTIMIZATION CONVERGED AFTER 17 ITERATIONS ***

 final structure:
================
53
 xtb: 6.7.1 (edcfbbe)
C           -2.16077676431467        4.87588642578657       -0.04247282516304
C           -3.54813798544962        4.76558287715635       -0.11739537201718
C           -4.17787477945272        3.53101324525074       -0.12394295807921
C           -3.37201206697490        2.41398986029517       -0.05484070931413
C           -1.95153648042274        2.51248507120874        0.02488132781862
C           -1.34568194064655        3.76410038904984        0.02905988597698
N           -1.37497127962047        1.26846365910444        0.09311373507656
C           -2.38994797014436        0.43968776958619        0.04851483785521
N           -2.55998939332544       -0.91292509716554        0.06881109617552
C           -1.53861918459072       -1.85560422577024        0.14416491397044
C           -0.22889711801304       -1.47513586375952        0.00568155368547
C            0.81852059033019       -2.43703131521661        0.05216073224772
C            2.18529786180097       -2.06905370493514       -0.03593532720921
C            3.21154508544426       -3.04336687410413       -0.26038988724845
C            4.53821063894020       -2.72285901003175       -0.35857407992491
C            4.89894389789531       -1.38109722623498       -0.22544332761909
O            6.15177724124565       -0.85579856738549       -0.28429851214400
C            6.01417568443899        0.48536534745954       -0.09739108918108
C            7.03305494511186        1.42069923450274       -0.07823393049168
C            6.67620637181331        2.74402210788971        0.12809018168777
C            5.34972413215182        3.11841406204241        0.30877462435373
C            4.33065007289255        2.17974461871919        0.28971790356607
C            4.66424163077151        0.85115743249584        0.08511776175769
C            3.91834459455910       -0.38203800204954        0.00058547562910
C            2.58884066697560       -0.70623299338497        0.09709988583933
C            0.37659608381308       -3.79901778410175        0.21862859092481
C           -0.95077031153263       -4.07223918352441        0.35934039931643
N           -1.91360277750586       -3.14420245016057        0.32805929170060
C           -3.92929290612228       -1.14915061366999       -0.01238361764052
C           -4.64412490771128       -2.33458699485350       -0.03742481613106
C           -6.02406445218281       -2.25292177134967       -0.10600066603318
C           -6.68140266456284       -1.02687683696985       -0.16062119633953
C           -5.98050495574491        0.16741932703737       -0.14546200932202
C           -4.60246410066483        0.09639098012912       -0.07316766807501
N           -3.62217785727676        1.05971312379872       -0.03701937678765
H           -1.71539562965480        5.85956264079592       -0.04111658902938
H           -4.14696124251599        5.66209656489634       -0.17154144146283
H           -5.25237723691589        3.45037757828686       -0.18025045121778
H           -0.27275604801142        3.84887834977905        0.08516381757770
H           -0.03307709202687       -0.43811311210522       -0.20979227318156
H            2.92793651312884       -4.07531803634271       -0.38619139857950
H            5.28939976515072       -3.47586162640948       -0.53791790459972
H            8.06030234466812        1.12464902971462       -0.21842111951546
H            7.44729797254215        3.49942479620257        0.14871473237653
H            5.11215324991668        4.15977715409837        0.46670796513639
H            3.30104155724003        2.47042108273264        0.43051161337028
H            1.86253029559226        0.06394417721691        0.29450423497146
H            1.08500174636551       -4.60584371997592        0.29677390288741
H           -1.30188386217411       -5.08106218285263        0.52955159144108
H           -4.12646308496200       -3.27892942180094       -0.00004413006050
H           -6.60443515119613       -3.16233472151727       -0.12419116505026
H           -7.75862499679971       -1.00542732487997       -0.22128010649007
H           -6.48809912707205        1.11763028901582       -0.18948430893480

 projected vibrational frequencies (cm⁻¹)
eigval :       -0.00     0.00     0.00     0.00     0.00     0.00
eigval :       11.86    19.43    27.11    50.29    52.20    76.49
eigval :       80.35   103.81   105.15   117.28   141.35   154.75
eigval :      166.27   182.18   197.82   237.64   246.27   269.24
eigval :      285.64   303.77   306.86   315.30   330.71   356.33
eigval :      375.08   384.37   402.69   408.51   414.77   416.84
eigval :      431.47   445.95   471.41   509.88   514.36   527.46
eigval :      532.89   539.38   539.99   545.26   584.66   591.88
eigval :      593.45   596.63   612.45   642.05   650.59   661.26
eigval :      665.06   676.40   698.82   705.57   713.42   723.29
eigval :      729.23   766.95   770.82   774.45   774.81   784.62
eigval :      791.50   804.50   816.79   829.04   844.24   858.15
eigval :      859.95   864.94   866.89   877.03   888.70   891.85
eigval :      897.85   900.91   905.06   916.57   917.75   919.29
eigval :      927.56   970.38   990.27  1014.40  1049.30  1054.77
eigval :     1059.55  1061.86  1082.37  1101.16  1112.09  1126.82
eigval :     1130.97  1155.65  1162.38  1170.43  1172.43  1181.98
eigval :     1188.26  1201.58  1208.33  1229.54  1236.37  1239.58
eigval :     1251.66  1258.66  1262.65  1271.72  1278.36  1285.79
eigval :     1320.37  1324.88  1334.36  1353.83  1358.51  1358.69
eigval :     1365.05  1378.23  1389.42  1404.45  1410.82  1419.56
eigval :     1431.31  1441.38  1458.82  1474.18  1481.73  1487.48
eigval :     1523.68  1534.36  1556.78  1575.25  1583.07  1589.25
eigval :     1591.03  1593.40  1628.05  3056.03  3082.24  3083.08
eigval :     3088.52  3090.41  3091.25  3095.50  3098.55  3098.74
eigval :     3099.89  3107.01  3107.21  3108.21  3109.14  3112.21
eigval :     3113.20  3118.03  3118.69

   temp. (K)  partition function   enthalpy   heat capacity  entropy
                                   cal/mol     cal/K/mol   cal/K/mol   J/K/mol
 298.15  VIB  0.278E+11            14706.265     98.177     89.032
         ROT  0.353E+08              888.752      2.981     37.515
         INT  0.979E+18            15595.018    101.158    126.547
         TR   0.925E+28             1481.254      4.968     44.185
         TOT                       17076.2716   106.1265   170.7316   714.3409

       T/K    H(0)-H(T)+PV         H(T)/Eh          T*S/Eh         G(T)/Eh
   ------------------------------------------------------------------------
    298.15    0.272128E-01    0.415751E+00    0.811201E-01    0.334631E+00
   ------------------------------------------------------------------------

         :::::::::::::::::::::::::::::::::::::::::::::::::::::
         ::                  THERMODYNAMIC                  ::
         :::::::::::::::::::::::::::::::::::::::::::::::::::::
         :: total free energy         -88.836381389337 Eh   ::
         ::.................................................::
         :: total energy              -89.171012190131 Eh   ::
         :: zero point energy           0.388538104184 Eh   ::
         :: G(RRHO) w/o ZPVE           -0.053907303389 Eh   ::
         :: G(RRHO) contrib.            0.334630800794 Eh   ::
         :::::::::::::::::::::::::::::::::::::::::::::::::::::

           -------------------------------------------------
          | TOTAL ENERGY              -89.171012190131 Eh   |
          | TOTAL ENTHALPY            -88.755261315002 Eh   |
          | TOTAL FREE ENERGY         -88.836381389337 Eh   |
          | GRADIENT NORM               0.000056856470 Eh/α |
           -------------------------------------------------

 * finished run on 2025/09/04 at 15:04:22.308
