   * xtb version 6.7.1 (edcfbbe) compiled by 'albert@albert-system' on 2024-07-22

   ID    Z sym.   atoms
    1    6 C      1-6, 8, 10-16, 18-27, 29-34
    2    7 N      7, 9, 28, 35
    3    8 O      17
    4    1 H      36-53

          program call               : xtb data2507/gas/4-DBFBI/4-DBFBI_gas_S0_crest.xyz --gfn 2 --ohess vtight --parallel 40 --molden --ceasefiles --namespace data2507/gas/4-DBFBI/4-DBFBI_gas_S0_finalOpt
          :  Hamiltonian                  GFN2-xTB          :
 * total energy  :   -89.2747949 Eh     change       -0.2216112E-08 Eh
 * total energy  :   -89.2747961 Eh     change       -0.1224366E-05 Eh
 * total energy  :   -89.2747974 Eh     change       -0.1226727E-05 Eh
 * total energy  :   -89.2747983 Eh     change       -0.9877081E-06 Eh
 * total energy  :   -89.2747990 Eh     change       -0.6629999E-06 Eh
 * total energy  :   -89.2747996 Eh     change       -0.6265404E-06 Eh
 * total energy  :   -89.2748003 Eh     change       -0.6560347E-06 Eh
 * total energy  :   -89.2748008 Eh     change       -0.4831077E-06 Eh
 * total energy  :   -89.2748010 Eh     change       -0.2162115E-06 Eh
 * total energy  :   -89.2748011 Eh     change       -0.1109499E-06 Eh
 * total energy  :   -89.2748017 Eh     change       -0.1391715E-06 Eh
 * total energy  :   -89.2748018 Eh     change       -0.1232291E-06 Eh
 * total energy  :   -89.2748019 Eh     change       -0.1134628E-06 Eh
 * total energy  :   -89.2748021 Eh     change       -0.1132331E-06 Eh
 * total energy  :   -89.2748022 Eh     change       -0.1222829E-06 Eh
 * total energy  :   -89.2748023 Eh     change       -0.1333639E-06 Eh
 * total energy  :   -89.2748024 Eh     change       -0.1359236E-06 Eh
 * total energy  :   -89.2748026 Eh     change       -0.1181775E-06 Eh
 * total energy  :   -89.2748026 Eh     change       -0.6232170E-09 Eh
   *** GEOMETRY OPTIMIZATION CONVERGED AFTER 22 ITERATIONS ***

 final structure:
================
53
 xtb: 6.7.1 (edcfbbe)
C           -2.27709501836203        4.83696607322708        0.54499831725193
C           -3.66142420060757        4.71291686736358        0.44267374560447
C           -4.26593080257290        3.48017744839452        0.27873048506970
C           -3.43770192730887        2.37561756063635        0.22026396935660
C           -2.02390802196555        2.49002947059477        0.32318740829201
C           -1.44187367595349        3.73872931569698        0.48773849344727
N           -1.42252638441253        1.25008796301335        0.23603351579406
C           -2.41906429738167        0.42339377046351        0.08885090760887
N           -2.56974775197802       -0.92969790617777       -0.06399016526826
C           -1.53121104784001       -1.85255618302785       -0.10278925691657
C           -0.21936155981579       -1.42501502325556        0.09938174165288
C            0.80396077630056       -2.36229695383726        0.03978656024178
C            2.20243618824713       -1.95556399192238        0.23284772797785
C            3.09572784162860       -2.80210344848957        0.90264077995489
C            4.41890148834524       -2.46006619149623        1.10427149368820
C            4.84463782763854       -1.23980156673692        0.61023385728841
O            6.09827477478253       -0.72102814386419        0.69480501878902
C            6.05103896147601        0.49314503901650        0.07716219116468
C            7.10184423112436        1.37920571192838       -0.07619917884355
C            6.83790362220325        2.56513274903509       -0.73863957479661
C            5.56834073730896        2.85755553418495       -1.23036881115248
C            4.51944886285418        1.97207711418866       -1.07685302263248
C            4.76203995970390        0.77501927369381       -0.41695638827372
C            3.96421772126828       -0.37015849666224       -0.06524478548719
C            2.63887624134832       -0.72731743949066       -0.25119674707893
C            0.45529193125115       -3.69239053011153       -0.21754051790511
C           -0.87786527490053       -4.00523457018451       -0.39139277622242
N           -1.85736834388871       -3.11733371152523       -0.33779729841815
C           -3.94171090276283       -1.17333492267748       -0.18481857157426
C           -4.64287188358279       -2.35247754306014       -0.35667214192518
C           -6.02451454346183       -2.27315856506407       -0.44049029089865
C           -6.69420274621511       -1.05960880805056       -0.35646577703238
C           -6.00383796937847        0.12921646508705       -0.18350410267547
C           -4.62705334692541        0.05875850395628       -0.09885671316959
N           -3.66197628517567        1.02688664290614        0.06933056616156
H           -1.84955073704847        5.82049907535395        0.67285647696561
H           -4.27585111459520        5.59931924254837        0.49293361386081
H           -5.33807576204120        3.38611244017483        0.20014654329560
H           -0.37117779052282        3.83510551592230        0.56838317509355
H           -0.02785476515506       -0.38589402116766        0.31026499270819
H            2.73345600747811       -3.74030472341231        1.29498140464070
H            5.09807636724476       -3.11379474515345        1.62748415220893
H            8.08237270237870        1.14797888522308        0.30776626048711
H            7.63510123600968        3.27997632346348       -0.87645130311771
H            5.40489258723491        3.79505499216704       -1.74044095503661
H            3.53513214330082        2.19877278794702       -1.45643626007346
H            1.96477609537476       -0.07064354409030       -0.77837203230505
H            1.21052571971346       -4.45744464381081       -0.29977885839856
H           -1.19349888825016       -5.02115246301379       -0.59029185535920
H           -4.11978727144793       -3.29043096573258       -0.42341357925556
H           -6.59321152889656       -3.18049812021353       -0.57523684654979
H           -7.77098758642777       -1.03906625720158       -0.42683539200316
H           -6.51851438014148        1.07429643874335       -0.11717038813473

          :  Hamiltonian                  GFN2-xTB          :
         :: gradient norm              0.000019390914 Eh/a0 ::
         :: HOMO-LUMO gap              2.805722097890 eV    ::
         :: SCC energy               -90.831542571671 Eh    ::
         :: -> dispersion             -0.070324466084 Eh    ::
         :: repulsion energy           1.556740007742 Eh    ::

    * Orbital Energies and Occupations

         #    Occupation            Energy/Eh            Energy/eV
      -------------------------------------------------------------
         1        2.0000           -0.7367443             -20.0478
       ...           ...                  ...                  ...
        70        2.0000           -0.4293839             -11.6841
        71        2.0000           -0.4267993             -11.6138
        72        2.0000           -0.4234497             -11.5227
        73        2.0000           -0.4210976             -11.4587
        74        2.0000           -0.4141105             -11.2685
        75        2.0000           -0.4115755             -11.1995
        76        2.0000           -0.4004307             -10.8963
        77        2.0000           -0.3906704             -10.6307
        78        2.0000           -0.3875805             -10.5466
        79        2.0000           -0.3864978             -10.5171
        80        2.0000           -0.3802629             -10.3475
        81        2.0000           -0.3752505             -10.2111
        82        2.0000           -0.3669305              -9.9847 (HOMO)
        83                         -0.2638221              -7.1790 (LUMO)
        84                         -0.2560268              -6.9668
        85                         -0.2467578              -6.7146
        86                         -0.2379280              -6.4743
        87                         -0.2312428              -6.2924
        88                         -0.2263039              -6.1580
        89                         -0.2112417              -5.7482
        90                         -0.2029214              -5.5218
        91                         -0.1971600              -5.3650
        92                         -0.1926400              -5.2420
        93                         -0.1555772              -4.2335
       ...                                ...                  ...
       158                          0.7417734              20.1847
      -------------------------------------------------------------
                  HL-Gap            0.1031084 Eh            2.8057 eV

     #   Z          covCN         q      C6AA      α(0)
     1   6 C        2.923    -0.038    28.951     8.824
     2   6 C        2.926    -0.039    28.969     8.827
     3   6 C        2.908    -0.047    29.170     8.856
     4   6 C        3.066     0.030    27.268     8.563
     5   6 C        3.232     0.068    25.678     8.226
     6   6 C        2.910    -0.044    29.082     8.843
     7   7 N        1.864    -0.331    29.439     8.042
     8   6 C        3.345     0.195    21.584     7.334
     9   7 N        2.798    -0.053    22.266     7.008
    10   6 C        2.906     0.151    24.730     8.154
    11   6 C        2.923    -0.070    29.746     8.944
    12   6 C        2.986     0.031    27.302     8.571
    13   6 C        2.977     0.001    27.996     8.679
    14   6 C        2.931    -0.036    28.884     8.814
    15   6 C        2.907    -0.053    29.306     8.877
    16   6 C        3.102     0.130    25.032     8.199
    17   8 O        1.714    -0.222    17.684     5.678
    18   6 C        3.103     0.129    25.050     8.201
    19   6 C        2.908    -0.052    29.279     8.873
    20   6 C        2.927    -0.032    28.788     8.799
    21   6 C        2.921    -0.038    28.934     8.821
    22   6 C        2.913    -0.032    28.804     8.801
    23   6 C        3.056    -0.018    28.400     8.740
    24   6 C        3.054    -0.018    28.397     8.739
    25   6 C        2.918    -0.036    28.892     8.814
    26   6 C        2.917    -0.055    29.358     8.885
    27   6 C        2.911     0.059    26.688     8.471
    28   7 N        1.843    -0.254    27.461     7.766
    29   6 C        3.078     0.046    26.876     8.499
    30   6 C        2.911    -0.044    29.099     8.845
    31   6 C        2.924    -0.035    28.874     8.812
    32   6 C        2.924    -0.036    28.894     8.815
    33   6 C        2.910    -0.045    29.120     8.849
    34   6 C        3.033     0.043    27.010     8.525
    35   7 N        2.897    -0.052    22.245     7.005
    36   1 H        0.926     0.033     2.544     2.494
    37   1 H        0.926     0.032     2.554     2.499
    38   1 H        0.926     0.029     2.602     2.523
    39   1 H        0.926     0.043     2.404     2.425
    40   1 H        0.926     0.075     2.026     2.226
    41   1 H        0.926     0.043     2.413     2.429
    42   1 H        0.926     0.049     2.337     2.391
    43   1 H        0.926     0.047     2.358     2.401
    44   1 H        0.926     0.040     2.447     2.446
    45   1 H        0.926     0.038     2.476     2.460
    46   1 H        0.926     0.042     2.424     2.435
    47   1 H        0.926     0.050     2.320     2.382
    48   1 H        0.926     0.038     2.475     2.460
    49   1 H        0.925     0.039     2.460     2.453
    50   1 H        0.926     0.073     2.051     2.239
    51   1 H        0.926     0.042     2.421     2.433
    52   1 H        0.926     0.040     2.447     2.446
    53   1 H        0.926     0.041     2.434     2.440

molecular dipole:
                 x           y           z       tot (Debye)
 q only:       -0.309      -0.301      -0.213
   full:       -0.312      -0.203      -0.158       1.028

 projected vibrational frequencies (cm⁻¹)
eigval :       -0.00    -0.00    -0.00     0.00     0.00     0.00
eigval :       11.73    20.07    28.91    53.20    56.49    76.37
eigval :       79.12   107.32   112.89   135.85   152.22   167.18
eigval :      176.56   207.30   209.06   248.05   261.55   280.53
eigval :      289.11   307.32   318.28   336.93   354.37   390.30
eigval :      392.52   412.73   416.84   417.56   424.05   440.11
eigval :      446.70   452.66   513.48   532.98   536.26   539.48
eigval :      546.30   551.06   569.58   595.02   600.04   601.03
eigval :      627.39   638.33   647.63   662.12   677.40   681.13
eigval :      692.78   699.93   701.16   716.51   730.74   737.23
eigval :      771.03   776.50   779.65   802.74   813.38   820.32
eigval :      837.03   846.55   863.26   868.89   869.15   873.20
eigval :      874.67   883.72   889.25   894.94   900.95   904.69
eigval :      908.41   913.13   920.25   921.88   924.44   930.59
eigval :      973.64  1012.19  1021.52  1057.90  1062.08  1063.00
eigval :     1081.95  1089.18  1113.80  1119.68  1134.21  1139.15
eigval :     1151.34  1165.06  1172.47  1174.76  1183.54  1193.00
eigval :     1206.12  1214.19  1229.80  1248.47  1250.11  1251.86
eigval :     1261.06  1263.22  1275.44  1284.04  1297.22  1310.21
eigval :     1335.79  1338.54  1350.79  1358.28  1360.52  1385.90
eigval :     1407.49  1412.22  1418.27  1436.64  1447.16  1460.11
eigval :     1473.76  1477.44  1488.87  1500.04  1541.45  1568.72
eigval :     1573.41  1581.57  1591.25  1592.87  1599.49  1602.87
eigval :     1610.25  1617.45  1651.22  3056.73  3079.18  3083.33
eigval :     3085.16  3088.53  3090.34  3091.36  3095.75  3098.13
eigval :     3099.48  3101.99  3102.42  3108.00  3108.23  3108.44
eigval :     3108.82  3115.12  3137.37

   temp. (K)  partition function   enthalpy   heat capacity  entropy
                                   cal/mol     cal/K/mol   cal/K/mol   J/K/mol
 298.15  VIB  0.910E+10            14109.030     95.149     85.174
         ROT  0.355E+08              888.752      2.981     37.527
         INT  0.323E+18            14997.783     98.130    122.701
         TR   0.925E+28             1481.254      4.968     44.185
         TOT                       16479.0367   103.0981   166.8854   698.2484

       T/K    H(0)-H(T)+PV         H(T)/Eh          T*S/Eh         G(T)/Eh
   ------------------------------------------------------------------------
    298.15    0.262610E-01    0.421093E+00    0.792926E-01    0.341800E+00
   ------------------------------------------------------------------------

         :::::::::::::::::::::::::::::::::::::::::::::::::::::
         ::                  THERMODYNAMIC                  ::
         :::::::::::::::::::::::::::::::::::::::::::::::::::::
         :: total free energy         -88.933002493235 Eh   ::
         ::.................................................::
         :: total energy              -89.274802563928 Eh   ::
         :: zero point energy           0.394831676582 Eh   ::
         :: G(RRHO) w/o ZPVE           -0.053031605889 Eh   ::
         :: G(RRHO) contrib.            0.341800070694 Eh   ::
         :::::::::::::::::::::::::::::::::::::::::::::::::::::

           -------------------------------------------------
          | TOTAL ENERGY              -89.274802563928 Eh   |
          | TOTAL ENTHALPY            -88.853709870718 Eh   |
          | TOTAL FREE ENERGY         -88.933002493235 Eh   |
          | GRADIENT NORM               0.000019391825 Eh/α |
          | HOMO-LUMO GAP               2.805722242051 eV   |
           -------------------------------------------------

 * finished run on 2025/09/04 at 15:01:15.847
