   * xtb version 6.7.1 (edcfbbe) compiled by 'albert@albert-system' on 2024-07-22

   ID    Z sym.   atoms
    1    6 C      1-6, 8-35, 37-54
    2    7 N      7, 36
    3    1 H      55-94

          program call               : xtb data2507/toluene/BDAVBi/BDAVBi_toluene_T1_crest.xyz --gfn 2 --uhf 2 --gbsa toluene --ohess vtight --parallel 40 --molden --ceasefiles --namespace data2507/toluene/BDAVBi/BDAVBi_toluene_T1_finalOpt
      * Solvation model:               GBSA
        Solvent                        toluene
        Solvent mass                       9.2140E+01 g/mol
          :  Hamiltonian                  GFN2-xTB          :
 * total energy  :  -137.5412602 Eh     change       -0.1112284E-08 Eh
 * total energy  :  -137.5412853 Eh     change       -0.2518010E-04 Eh
 * total energy  :  -137.5413043 Eh     change       -0.1893826E-04 Eh
 * total energy  :  -137.5413135 Eh     change       -0.9253459E-05 Eh
 * total energy  :  -137.5413224 Eh     change       -0.8854663E-05 Eh
 * total energy  :  -137.5413262 Eh     change       -0.3823236E-05 Eh
 * total energy  :  -137.5413302 Eh     change       -0.3960963E-05 Eh
 * total energy  :  -137.5413349 Eh     change       -0.4699784E-05 Eh
 * total energy  :  -137.5413376 Eh     change       -0.2715842E-05 Eh
 * total energy  :  -137.5413401 Eh     change       -0.2489677E-05 Eh
 * total energy  :  -137.5414093 Eh     change       -0.5027836E-06 Eh
 * total energy  :  -137.5414097 Eh     change       -0.3816491E-06 Eh
 * total energy  :  -137.5414099 Eh     change       -0.2549523E-06 Eh
 * total energy  :  -137.5414103 Eh     change       -0.3574584E-06 Eh
 * total energy  :  -137.5414107 Eh     change       -0.3862093E-06 Eh
 * total energy  :  -137.5414112 Eh     change       -0.5262905E-06 Eh
 * total energy  :  -137.5414116 Eh     change       -0.4224268E-06 Eh
 * total energy  :  -137.5414120 Eh     change       -0.3346128E-06 Eh
 * total energy  :  -137.5414120 Eh     change       -0.1875094E-08 Eh
   *** GEOMETRY OPTIMIZATION CONVERGED AFTER 68 ITERATIONS ***

 final structure:
================
94
 xtb: 6.7.1 (edcfbbe)
C           -4.98821431750879        0.73262311640356       -0.11318016666181
C           -5.85942679481903       -0.31042806755821        0.10367386093259
C           -7.27674443346897       -0.24849826672425        0.07165727150065
C           -8.02586502624600       -1.41512369253091        0.34958508500286
C           -9.39546253615815       -1.41893376419048        0.33333108440337
C          -10.10846292486844       -0.24683266680620        0.03963412862500
N          -11.49963525601528       -0.24331577787269        0.02272391274558
C          -12.20684296319327        0.88999398381771        0.44319032240017
C          -13.36938112915517        1.28340181950786       -0.22121970990759
C          -14.06584288187090        2.39980433605135        0.19940947496966
C          -13.61565508562861        3.14204183935787        1.28004843444351
C          -12.46080575526602        2.75599910480627        1.94239107763850
C          -11.75990708739248        1.63815282655656        1.53327832040505
C          -12.20209725017081       -1.37154167455674       -0.41845447607446
C          -11.72867689922037       -2.12292697272971       -1.49511347736124
C          -12.42542788118004       -3.23550583356083       -1.92506637678947
C          -13.60213247554534       -3.61305596824540       -1.29720061040202
C          -14.07846595379905       -2.86768542085074       -0.23001817848766
C          -13.38649374467222       -1.75653763692085        0.21138022618028
C           -9.38314793981670        0.92129805019934       -0.23854553446828
C           -8.01292663342159        0.92025079823294       -0.22560122249237
C           -3.57830502875341        0.67570083666130       -0.08311130381578
C           -2.82564188535867        1.85527256129351       -0.32086633011952
C           -1.46324206397075        1.86336100004901       -0.29372398759995
C           -0.71466165275765        0.68438084420339       -0.04901293746240
C            0.71532020736318        0.68628623338234       -0.02945476709329
C            1.46046219780317        1.86751625599495        0.21489843542328
C            2.82275045305388        1.86230543033430        0.24763932182353
C            3.57880796331106        0.68362814358269        0.01634887967199
C            4.98836202506105        0.74257823744949        0.05705142506275
C            5.86255335591974       -0.30009171201203       -0.14934783193875
C            7.27938817775013       -0.23747863383061       -0.10175523969561
C            8.03171227705477       -1.40504104364536       -0.36678333901012
C            9.40091509799288       -1.40922252094062       -0.33184666126615
C           10.11030791671187       -0.23656434000189       -0.03171220321605
N           11.50111435392103       -0.23490621856006        0.00658336290802
C           12.21691156635277        0.89482942596843       -0.40835827640005
C           13.37166710531147        1.28742865098888        0.27000358950065
C           14.07665379678002        2.40048669349297       -0.14524804052599
C           13.64282504266217        3.14018578963165       -1.23429308070521
C           12.49572848610245        2.75497863289992       -1.91045946293403
C           11.78646321465379        1.64040954785393       -1.50685291164285
C           12.19337015871336       -1.36316774388329        0.46356368751117
C           11.70026813384902       -2.10817979748663        1.53583992364888
C           12.38515245858821       -3.22231779241989        1.98047188624379
C           13.56946066065569       -3.60760678790169        1.37186641126697
C           14.06573686422336       -2.86805537245914        0.30974489098579
C           13.38571978906742       -1.75542993028916       -0.14634468569205
C            9.38195701033493        0.93304634713298        0.23172770845514
C            8.01197985557421        0.93231807670940        0.20028845034735
C            2.83329174624336       -0.49495791640376       -0.24267708754187
C            1.47015133843214       -0.49275146440520       -0.25289874862352
C           -1.46609128189658       -0.49622689802666        0.17756538838917
C           -2.82925846357595       -0.50126477483328        0.17300786592074
H           -5.40223143389299        1.70949121145958       -0.32811716357765
H           -5.44778393081674       -1.28564488026169        0.32689544973223
H           -7.49627978326619       -2.32582687665798        0.59229921136052
H           -9.93909549692263       -2.32406728741331        0.56335605083548
H          -13.71567943756590        0.71174427634328       -1.06986162659914
H          -14.96193272272512        2.69679173224593       -0.32556803216732
H          -14.16117955892257        4.01534317557989        1.60429223973383
H          -12.10686569242440        3.32498203333581        2.78959928820571
H          -10.86677002930710        1.33095900118486        2.05743962026568
H          -10.81819174232388       -1.82203292680264       -1.99251007372586
H          -12.05083950204690       -3.80701794168734       -2.76161350005285
H          -14.14437756163125       -4.48215663024520       -1.63781256482921
H          -14.99184019554369       -3.15813119099063        0.26816183856156
H          -13.75355120612101       -1.18235785127120        1.04951984661123
H           -9.91979055172529        1.82710548261127       -0.48260839350104
H           -7.49067829220896        1.83415513572166       -0.46188921158414
H           -3.36067752092011        2.77155991375524       -0.53395082018334
H           -0.94203378248101        2.78506661884703       -0.50660481348744
H            0.93651814824014        2.78859424920576        0.42370170022633
H            3.35503052577268        2.78011444894882        0.46107179927128
H            5.39940675605128        1.72039159335846        0.27338359299140
H            5.45389998941767       -1.27619026507147       -0.37422084057777
H            7.50511006468545       -2.31634022496140       -0.61368372258710
H            9.94731312833049       -2.31524079074400       -0.55157042810756
H           13.70511682949582        0.71788274483168        1.12520026888001
H           14.96658007519519        2.69687272492981        0.39046131498759
H           14.19501848081026        4.01087254308337       -1.55428271474250
H           12.15458221661135        3.32200513781948       -2.76422221132842
H           10.89949052223707        1.33374565451345       -2.04176531210162
H           10.78346640159597       -1.80127710456692        2.01781887632908
H           11.99508499939776       -3.78910914277825        2.81313903501401
H           14.10216068581812       -4.47822889901874        1.72346822747206
H           14.98530474271388       -3.16452702090823       -0.17326205934710
H           13.76816313345716       -1.18600184422879       -0.98082610882941
H            9.91560268836482        1.83961046502257        0.47951419214135
H            7.48685755828594        1.84728417643652        0.42587669949752
H            3.35651589726321       -1.41814438767211       -0.44259056556364
H            0.95181054185655       -1.41270687253955       -0.48039772990683
H           -0.94494515951076       -1.41494421436450        0.40361954459471
H           -3.34970334260296       -1.42541261160605        0.37570065091343

          :  Hamiltonian                  GFN2-xTB          :
         :: gradient norm              0.000033864101 Eh/a0 ::
         :: HOMO-LUMO gap              0.507714616248 eV    ::
         :: SCC energy              -140.172419993195 Eh    ::
         :: -> dispersion             -0.118880970245 Eh    ::
         :: -> Gsolv                  -0.060258410991 Eh    ::
         :: repulsion energy           2.631008035868 Eh    ::

    * Orbital Energies and Occupations

         #    Occupation            Energy/Eh            Energy/eV
      -------------------------------------------------------------
         1        2.0000           -0.6707166             -18.2511
       ...           ...                  ...                  ...
       118        2.0000           -0.4085768             -11.1179
       119        2.0000           -0.4082729             -11.1097
       120        2.0000           -0.4056119             -11.0373
       121        2.0000           -0.4056022             -11.0370
       122        2.0000           -0.3987464             -10.8504
       123        2.0000           -0.3984325             -10.8419
       124        2.0000           -0.3976485             -10.8206
       125        2.0000           -0.3972948             -10.8109
       126        2.0000           -0.3757348             -10.2243
       127        2.0000           -0.3638691              -9.9014
       128        1.9933           -0.3490727              -9.4988
       129        1.0067           -0.3395694              -9.2402
       130        0.9999           -0.2794245              -7.6035 (HOMO)
       131        0.0001           -0.2607663              -7.0958 (LUMO)
       132                         -0.2351152              -6.3978
       133                         -0.2350926              -6.3972
       134                         -0.2303247              -6.2675
       135                         -0.2303075              -6.2670
       136                         -0.2273511              -6.1865
       137                         -0.2258925              -6.1468
       138                         -0.2257812              -6.1438
       139                         -0.2191332              -5.9629
       140                         -0.2191138              -5.9624
       141                         -0.2157025              -5.8696
       ...                                ...                  ...
       256                          0.7223924              19.6573
      -------------------------------------------------------------
                  HL-Gap            0.0186582 Eh            0.5077 eV

     #   Z          covCN         q      C6AA      α(0)
     1   6 C        2.903    -0.044    29.081     8.842
     2   6 C        2.903    -0.050    29.242     8.867
     3   6 C        2.965     0.008    27.847     8.656
     4   6 C        2.925    -0.039    28.966     8.826
     5   6 C        2.915    -0.047    29.165     8.856
     6   6 C        2.924     0.057    26.722     8.477
     7   7 N        2.752    -0.056    22.329     7.018
     8   6 C        2.925     0.064    26.559     8.451
     9   6 C        2.922    -0.045    29.119     8.849
    10   6 C        2.919    -0.029    28.715     8.787
    11   6 C        2.919    -0.036    28.889     8.814
    12   6 C        2.919    -0.029    28.714     8.787
    13   6 C        2.922    -0.044    29.100     8.846
    14   6 C        2.925     0.064    26.559     8.451
    15   6 C        2.922    -0.044    29.101     8.846
    16   6 C        2.919    -0.029    28.715     8.787
    17   6 C        2.919    -0.036    28.890     8.814
    18   6 C        2.919    -0.029    28.715     8.787
    19   6 C        2.922    -0.045    29.120     8.849
    20   6 C        2.916    -0.047    29.159     8.855
    21   6 C        2.919    -0.038    28.936     8.821
    22   6 C        2.966     0.003    27.950     8.672
    23   6 C        2.921    -0.040    28.994     8.830
    24   6 C        2.916    -0.039    28.979     8.827
    25   6 C        2.970     0.000    28.020     8.683
    26   6 C        2.970     0.000    28.020     8.683
    27   6 C        2.916    -0.039    28.979     8.827
    28   6 C        2.921    -0.040    28.995     8.830
    29   6 C        2.966     0.003    27.950     8.672
    30   6 C        2.903    -0.044    29.081     8.842
    31   6 C        2.903    -0.050    29.243     8.867
    32   6 C        2.965     0.008    27.847     8.656
    33   6 C        2.925    -0.039    28.966     8.826
    34   6 C        2.915    -0.047    29.165     8.856
    35   6 C        2.924     0.057    26.723     8.477
    36   7 N        2.752    -0.056    22.329     7.018
    37   6 C        2.925     0.064    26.559     8.451
    38   6 C        2.922    -0.045    29.121     8.849
    39   6 C        2.919    -0.029    28.715     8.787
    40   6 C        2.919    -0.036    28.890     8.814
    41   6 C        2.919    -0.029    28.714     8.787
    42   6 C        2.922    -0.044    29.101     8.846
    43   6 C        2.925     0.064    26.559     8.451
    44   6 C        2.922    -0.044    29.101     8.846
    45   6 C        2.919    -0.029    28.714     8.787
    46   6 C        2.919    -0.036    28.890     8.814
    47   6 C        2.919    -0.029    28.715     8.787
    48   6 C        2.922    -0.045    29.120     8.849
    49   6 C        2.916    -0.047    29.159     8.855
    50   6 C        2.919    -0.038    28.936     8.821
    51   6 C        2.915    -0.039    28.962     8.825
    52   6 C        2.917    -0.039    28.967     8.826
    53   6 C        2.917    -0.039    28.967     8.826
    54   6 C        2.915    -0.039    28.962     8.825
    55   1 H        0.925     0.027     2.627     2.534
    56   1 H        0.925     0.027     2.631     2.537
    57   1 H        0.926     0.031     2.576     2.510
    58   1 H        0.926     0.032     2.562     2.503
    59   1 H        0.926     0.036     2.504     2.474
    60   1 H        0.926     0.038     2.478     2.462
    61   1 H        0.926     0.036     2.498     2.472
    62   1 H        0.926     0.037     2.484     2.464
    63   1 H        0.926     0.036     2.499     2.472
    64   1 H        0.926     0.036     2.500     2.473
    65   1 H        0.926     0.037     2.484     2.465
    66   1 H        0.926     0.036     2.498     2.472
    67   1 H        0.926     0.038     2.479     2.462
    68   1 H        0.926     0.036     2.504     2.475
    69   1 H        0.926     0.032     2.563     2.503
    70   1 H        0.926     0.034     2.535     2.490
    71   1 H        0.925     0.022     2.708     2.574
    72   1 H        0.926     0.024     2.668     2.554
    73   1 H        0.926     0.024     2.668     2.554
    74   1 H        0.925     0.022     2.709     2.574
    75   1 H        0.925     0.027     2.627     2.535
    76   1 H        0.925     0.027     2.631     2.537
    77   1 H        0.926     0.031     2.576     2.510
    78   1 H        0.926     0.032     2.562     2.503
    79   1 H        0.926     0.036     2.504     2.475
    80   1 H        0.926     0.038     2.479     2.462
    81   1 H        0.926     0.036     2.499     2.472
    82   1 H        0.926     0.037     2.484     2.465
    83   1 H        0.926     0.036     2.500     2.472
    84   1 H        0.926     0.036     2.500     2.473
    85   1 H        0.926     0.037     2.484     2.465
    86   1 H        0.926     0.036     2.498     2.472
    87   1 H        0.926     0.038     2.478     2.462
    88   1 H        0.926     0.036     2.504     2.474
    89   1 H        0.926     0.032     2.562     2.503
    90   1 H        0.926     0.034     2.535     2.490
    91   1 H        0.926     0.025     2.656     2.549
    92   1 H        0.926     0.025     2.661     2.551
    93   1 H        0.926     0.025     2.661     2.551
    94   1 H        0.926     0.025     2.656     2.549

molecular dipole:
                 x           y           z       tot (Debye)
 q only:       -0.006      -0.263       0.022
   full:       -0.006      -0.254       0.023       0.648

 projected vibrational frequencies (cm⁻¹)
eigval :       -0.00    -0.00     0.00     0.00     0.00     0.00
eigval :        4.86     8.84     9.96    16.10    20.46    27.95
eigval :       32.71    33.38    41.96    46.46    47.16    49.45
eigval :       58.89    64.96    70.10    73.07    73.92    74.38
eigval :       90.91    97.21    99.59   103.11   118.46   128.10
eigval :      151.72   171.96   194.54   198.68   208.00   209.83
eigval :      231.55   231.74   239.74   259.09   260.29   272.67
eigval :      304.53   313.91   314.67   316.32   330.33   335.25
eigval :      351.13   353.93   366.96   376.12   377.21   378.65
eigval :      378.93   382.73   386.61   387.03   393.68   410.05
eigval :      417.07   418.33   442.42   464.20   469.16   475.55
eigval :      476.12   481.46   488.25   498.78   504.22   507.69
eigval :      542.30   578.30   580.82   581.00   584.52   591.85
eigval :      592.20   592.45   594.43   601.42   604.39   612.12
eigval :      612.90   654.68   658.41   659.57   662.89   663.07
eigval :      667.01   672.27   684.11   692.74   694.78   713.76
eigval :      754.57   755.17   758.01   758.26   764.61   767.16
eigval :      796.59   807.96   809.41   812.07   819.24   827.21
eigval :      835.23   838.43   845.40   848.24   856.37   867.67
eigval :      869.02   870.66   871.49   873.82   881.74   893.13
eigval :      893.50   893.91   894.91   902.46   903.64   906.50
eigval :      906.90   909.23   909.57   911.12   913.28   917.48
eigval :      917.89   919.09   919.27   922.76   924.52   925.24
eigval :      926.88   927.32   928.15   928.45   929.06   929.15
eigval :      942.41   981.28   982.05   991.96  1002.65  1002.65
eigval :     1008.47  1011.62  1017.75  1049.70  1080.30  1080.57
eigval :     1081.23  1081.37  1120.94  1121.22  1122.90  1123.22
eigval :     1134.76  1140.72  1143.36  1155.56  1179.28  1179.38
eigval :     1179.96  1180.41  1180.61  1182.60  1189.47  1190.05
eigval :     1192.70  1193.14  1204.60  1207.01  1210.15  1220.70
eigval :     1236.10  1243.00  1244.07  1245.29  1268.85  1269.41
eigval :     1274.37  1274.93  1277.06  1279.26  1280.33  1285.74
eigval :     1294.10  1301.14  1304.26  1311.46  1312.79  1315.67
eigval :     1318.51  1321.93  1324.14  1324.33  1324.82  1341.69
eigval :     1343.36  1348.00  1356.90  1364.73  1380.88  1428.43
eigval :     1428.63  1432.74  1434.44  1438.91  1439.75  1445.22
eigval :     1452.81  1461.31  1461.96  1463.12  1463.50  1465.11
eigval :     1465.24  1470.50  1479.15  1479.76  1493.94  1501.89
eigval :     1502.32  1527.08  1554.44  1570.39  1570.43  1574.03
eigval :     1574.73  1577.18  1584.61  1584.64  1586.72  1590.69
eigval :     1592.50  1603.66  3049.47  3049.96  3051.09  3051.84
eigval :     3062.08  3062.27  3066.15  3066.37  3069.24  3074.18
eigval :     3074.46  3074.63  3075.44  3075.64  3075.69  3075.79
eigval :     3076.08  3076.58  3076.76  3077.11  3077.20  3081.07
eigval :     3081.21  3082.48  3083.94  3084.35  3084.65  3085.44
eigval :     3085.50  3087.30  3087.34  3087.50  3088.38  3088.68
eigval :     3095.90  3095.97  3096.12  3096.16  3096.19  3096.82

   temp. (K)  partition function   enthalpy   heat capacity  entropy
                                   cal/mol     cal/K/mol   cal/K/mol   J/K/mol
 298.15  VIB  0.843E+23            27164.651    167.712    172.971
         ROT  0.284E+09              888.752      2.981     41.663
         INT  0.239E+32            28053.403    170.693    214.634
         TR   0.176E+29             1481.254      4.968     45.467
         TOT                       29534.6568   175.6611   260.1013  1088.2639

       T/K    H(0)-H(T)+PV         H(T)/Eh          T*S/Eh         G(T)/Eh
   ------------------------------------------------------------------------
    298.15    0.470665E-01    0.784313E+00    0.123583E+00    0.660730E+00
   ------------------------------------------------------------------------

         :::::::::::::::::::::::::::::::::::::::::::::::::::::
         ::                  THERMODYNAMIC                  ::
         :::::::::::::::::::::::::::::::::::::::::::::::::::::
         :: total free energy        -136.880681893461 Eh   ::
         ::.................................................::
         :: total energy             -137.541411955631 Eh   ::
         :: zero point energy           0.737246122685 Eh   ::
         :: G(RRHO) w/o ZPVE           -0.076516060516 Eh   ::
         :: G(RRHO) contrib.            0.660730062170 Eh   ::
         :::::::::::::::::::::::::::::::::::::::::::::::::::::

           -------------------------------------------------
          | TOTAL ENERGY             -137.541411955631 Eh   |
          | TOTAL ENTHALPY           -136.757099361356 Eh   |
          | TOTAL FREE ENERGY        -136.880681893461 Eh   |
          | GRADIENT NORM               0.000033839898 Eh/α |
          | HOMO-LUMO GAP               0.507714670753 eV   |
           -------------------------------------------------

 * finished run on 2025/09/10 at 19:22:14.560
