   * xtb version 6.7.1 (edcfbbe) compiled by 'albert@albert-system' on 2024-07-22

   ID    Z sym.   atoms
    1    6 C      1-6, 8-35, 37-54
    2    7 N      7, 36
    3    1 H      55-94

          program call               : xtb data2507/toluene/BDAVBi/BDAVBi_toluene_S0_crest.xyz --gfn 2 --gbsa toluene --ohess vtight --parallel 40 --molden --ceasefiles --namespace data2507/toluene/BDAVBi/BDAVBi_toluene_S0_finalOpt
      * Solvation model:               GBSA
        Solvent                        toluene
        Solvent mass                       9.2140E+01 g/mol
          :  Hamiltonian                  GFN2-xTB          :
 * total energy  :  -137.6027995 Eh     change       -0.1581185E-08 Eh
 * total energy  :  -137.6028549 Eh     change       -0.5544500E-04 Eh
 * total energy  :  -137.6029254 Eh     change       -0.7049938E-04 Eh
 * total energy  :  -137.6029534 Eh     change       -0.2795754E-04 Eh
 * total energy  :  -137.6030452 Eh     change       -0.9182780E-04 Eh
 * total energy  :  -137.6030733 Eh     change       -0.2809575E-04 Eh
 * total energy  :  -137.6031604 Eh     change       -0.8706754E-04 Eh
 * total energy  :  -137.6032103 Eh     change       -0.4996046E-04 Eh
 * total energy  :  -137.6032625 Eh     change       -0.5217087E-04 Eh
 * total energy  :  -137.6033058 Eh     change       -0.4329384E-04 Eh
 * total energy  :  -137.6037644 Eh     change       -0.9542365E-06 Eh
 * total energy  :  -137.6037653 Eh     change       -0.9601230E-06 Eh
 * total energy  :  -137.6037663 Eh     change       -0.9502218E-06 Eh
 * total energy  :  -137.6037672 Eh     change       -0.9224596E-06 Eh
 * total energy  :  -137.6037681 Eh     change       -0.8863513E-06 Eh
 * total energy  :  -137.6037689 Eh     change       -0.8535927E-06 Eh
 * total energy  :  -137.6037698 Eh     change       -0.8349738E-06 Eh
 * total energy  :  -137.6037706 Eh     change       -0.8351213E-06 Eh
 * total energy  :  -137.6037706 Eh     change       -0.6146706E-08 Eh
   *** GEOMETRY OPTIMIZATION CONVERGED AFTER 94 ITERATIONS ***

 final structure:
================
94
 xtb: 6.7.1 (edcfbbe)
C           -2.85402101409911        2.19974221883958       -0.15512873447965
C           -3.39382136139245        0.98905124755143        0.06091346393224
C           -4.79929811409640        0.64604389943024        0.04053248523420
C           -5.17948657297820       -0.65840020018851        0.37980486626114
C           -6.49861379905774       -1.05081725351374        0.37868315419829
C           -7.50421874237374       -0.14835559248236        0.02523937932863
N           -8.84330414830132       -0.54244712362372        0.01242535634852
C           -9.18784914916199       -1.84230246987784       -0.38261390074569
C           -8.51289460132586       -2.46498770347608       -1.43273195813243
C           -8.85352142122895       -3.74786345913038       -1.81631290299273
C           -9.87435457919248       -4.42631126735513       -1.16995664228652
C          -10.55155583707749       -3.81046216039113       -0.12964115475652
C          -10.21205107421892       -2.53115100577395        0.26709169377110
C           -9.84726082717359        0.35594775891596        0.39647762214379
C           -9.63675373212615        1.24670728756897        1.44922524246475
C          -10.63117959139193        2.12997612220327        1.82343175713493
C          -11.85039470408391        2.13513960165633        1.16493628656687
C          -12.06622682328271        1.24955282887723        0.12123682796803
C          -11.07478587169674        0.36860161424035       -0.26605639645399
C           -7.13746574360571        1.15519778760554       -0.31966506470407
C           -5.81609485841927        1.54172832069186       -0.30886696775754
C           -1.44049593956511        2.51871047409487       -0.13530037270509
C           -1.04159336551854        3.85592849128797       -0.24452810921080
C            0.29021218847911        4.21317915577559       -0.23500742066776
C            1.28593112132669        3.24544729151704       -0.11086630302029
C            2.71105163852990        3.59552258173723       -0.10748666658346
C            3.22481362245856        4.54905652765910       -0.98437028465115
C            4.57815739208795        4.82221400652612       -1.01682419774037
C            5.46609284938769        4.14123233411918       -0.18472833026744
C            6.90231861799909        4.40384471102181       -0.26237928546416
C            7.87354704705439        3.48740892076073       -0.19515580563184
C            7.69420704038329        2.03867961354409       -0.14672269477623
C            8.53800406771452        1.25236343110805        0.63869176118093
C            8.36782761044447       -0.11412501908315        0.72364568113198
C            7.35701328155047       -0.74564871403645       -0.00138607440657
N            7.15967004110693       -2.12779402634339        0.09234360751069
C            5.85687673567589       -2.64200374726706        0.09308380392225
C            5.56569277699594       -3.83871258955068       -0.56213398491148
C            4.27944120075608       -4.34329229323853       -0.55244551242358
C            3.26336516874125       -3.66457284650737        0.10088966899131
C            3.54617605308449       -2.47360137646555        0.75022825438544
C            4.83024756261469       -1.96400560973419        0.75125080156494
C            8.25663307482874       -2.99075743685063        0.19192386509556
C            9.43224853184484       -2.72446873727425       -0.51070406274027
C           10.51447090152154       -3.57693272753364       -0.40671143279110
C           10.44345538020053       -4.70889382803293        0.38938647095031
C            9.27683059433370       -4.98070836200138        1.08597521036644
C            8.19237501943536       -4.12964987033299        0.99542274646915
C            6.54278851836009        0.02922084382333       -0.83004993783250
C            6.70958235853898        1.39442491305277       -0.89880028431753
C            4.94318869031876        3.22884444247914        0.73294748361368
C            3.59275564244363        2.95758538162232        0.76623334157070
C            0.89497749057400        1.90985829981414       -0.00554651415868
C           -0.43506338375380        1.55284803347912       -0.02051732821800
H           -3.50118543940390        3.04418421279880       -0.35348851454928
H           -2.74149258772835        0.15546543557770        0.28653892658794
H           -4.41840280632922       -1.37301052460200        0.66098638682752
H           -6.76405984119729       -2.06093302911026        0.65553405510649
H           -7.72329958338798       -1.93468954189615       -1.94512670173359
H           -8.32343218864511       -4.21714208078028       -2.63246618811179
H          -10.13992170812640       -5.42748544914222       -1.47471162832121
H          -11.34565356407051       -4.33323767936098        0.38359734910665
H          -10.73622099981270       -2.05730527806681        1.08440003849927
H           -8.69140286776739        1.23761098698919        1.97214665874352
H          -10.45528972926646        2.81255980811190        2.64224859683443
H          -12.62675755395080        2.82369348272327        1.46309800636567
H          -13.01157200113640        1.24941354098125       -0.40183960438033
H          -11.24325482104794       -0.31512688277859       -1.08547458993913
H           -7.90385587683274        1.86140844119019       -0.60525944529963
H           -5.56922037938466        2.55318157146012       -0.59269126808633
H           -1.79702861845073        4.62490081238497       -0.33365073023877
H            0.56610302964549        5.25593814942391       -0.30443601268374
H            2.55958362723393        5.05930798300951       -1.66636757072187
H            4.96179765971031        5.55011386519426       -1.71863681565181
H            7.17583275190661        5.44571506631838       -0.38115258311407
H            8.90396148589726        3.82310398750370       -0.18018579010126
H            9.31900736977438        1.72632804853681        1.21667352556501
H            9.01474734630824       -0.70261412167083        1.35828197464485
H            6.35398361172695       -4.36681183749195       -1.07889664639066
H            4.06780673015765       -5.27006532888839       -1.06594494083142
H            2.25907051528729       -4.06106888663120        0.10460489741023
H            2.76201659964001       -1.94319734925474        1.27089780834973
H            5.04945352670089       -1.03928054514841        1.26494635383254
H            9.48740999537567       -1.84799029809028       -1.14007875822308
H           11.41747472653736       -3.35950009274995       -0.95872624155606
H           11.28988842840945       -5.37484752134487        0.46517983445169
H            9.21318423870667       -5.85814455028641        1.71331445341257
H            7.28809181641271       -4.33941228001579        1.54818506780235
H            5.77764574865013       -0.45246677509186       -1.42166813557883
H            6.07976376390564        1.97346424626024       -1.55714311999060
H            5.60927104397399        2.73258829792097        1.42338772085874
H            3.20652495098962        2.25332377266290        1.48909053138388
H            1.65301408916543        1.14260582569031        0.06145465183220
H           -0.69513635417506        0.50743262067880        0.04532845432024

          :  Hamiltonian                  GFN2-xTB          :
         :: gradient norm              0.000062081908 Eh/a0 ::
         :: HOMO-LUMO gap              2.069967837668 eV    ::
         :: SCC energy              -140.250581008305 Eh    ::
         :: -> dispersion             -0.122690459356 Eh    ::
         :: -> Gsolv                  -0.058016842132 Eh    ::
         :: repulsion energy           2.646810395234 Eh    ::

    * Orbital Energies and Occupations

         #    Occupation            Energy/Eh            Energy/eV
      -------------------------------------------------------------
         1        2.0000           -0.6648924             -18.0926
       ...           ...                  ...                  ...
       117        2.0000           -0.4075316             -11.0895
       118        2.0000           -0.4069256             -11.0730
       119        2.0000           -0.4047586             -11.0140
       120        2.0000           -0.4044760             -11.0064
       121        2.0000           -0.4041364             -10.9971
       122        2.0000           -0.4039904             -10.9931
       123        2.0000           -0.4022911             -10.9469
       124        2.0000           -0.4010590             -10.9134
       125        2.0000           -0.3980366             -10.8311
       126        2.0000           -0.3808832             -10.3644
       127        2.0000           -0.3687467             -10.0341
       128        2.0000           -0.3473858              -9.4528
       129        2.0000           -0.3456595              -9.4059 (HOMO)
       130                         -0.2695896              -7.3359 (LUMO)
       131                         -0.2533659              -6.8944
       132                         -0.2307792              -6.2798
       133                         -0.2299342              -6.2568
       134                         -0.2274163              -6.1883
       135                         -0.2271001              -6.1797
       136                         -0.2268333              -6.1724
       137                         -0.2224550              -6.0533
       138                         -0.2220977              -6.0436
       139                         -0.2213042              -6.0220
       140                         -0.2203555              -5.9962
       ...                                ...                  ...
       256                          0.7069460              19.2370
      -------------------------------------------------------------
                  HL-Gap            0.0760699 Eh            2.0700 eV

     #   Z          covCN         q      C6AA      α(0)
     1   6 C        2.900    -0.043    29.066     8.840
     2   6 C        2.901    -0.040    29.003     8.830
     3   6 C        2.968     0.004    27.926     8.668
     4   6 C        2.928    -0.036    28.894     8.815
     5   6 C        2.919    -0.050    29.232     8.866
     6   6 C        2.923     0.064    26.565     8.452
     7   7 N        2.752    -0.077    22.735     7.082
     8   6 C        2.924     0.066    26.532     8.447
     9   6 C        2.922    -0.047    29.175     8.858
    10   6 C        2.919    -0.030    28.752     8.793
    11   6 C        2.919    -0.039    28.966     8.826
    12   6 C        2.919    -0.030    28.751     8.793
    13   6 C        2.922    -0.047    29.179     8.858
    14   6 C        2.923     0.066    26.533     8.447
    15   6 C        2.922    -0.048    29.181     8.859
    16   6 C        2.919    -0.030    28.753     8.793
    17   6 C        2.919    -0.039    28.969     8.826
    18   6 C        2.919    -0.030    28.752     8.793
    19   6 C        2.922    -0.048    29.185     8.859
    20   6 C        2.919    -0.049    29.221     8.865
    21   6 C        2.922    -0.035    28.868     8.811
    22   6 C        2.969     0.010    27.780     8.645
    23   6 C        2.927    -0.037    28.924     8.820
    24   6 C        2.920    -0.036    28.899     8.816
    25   6 C        2.976     0.006    27.875     8.660
    26   6 C        2.976     0.006    27.876     8.660
    27   6 C        2.922    -0.036    28.895     8.815
    28   6 C        2.924    -0.038    28.941     8.822
    29   6 C        2.971     0.015    27.664     8.627
    30   6 C        2.899    -0.040    29.001     8.830
    31   6 C        2.899    -0.039    28.957     8.823
    32   6 C        2.970     0.009    27.810     8.650
    33   6 C        2.925    -0.037    28.918     8.819
    34   6 C        2.919    -0.049    29.225     8.865
    35   6 C        2.924     0.064    26.572     8.453
    36   7 N        2.752    -0.080    22.790     7.090
    37   6 C        2.924     0.066    26.524     8.446
    38   6 C        2.922    -0.048    29.191     8.860
    39   6 C        2.919    -0.030    28.758     8.794
    40   6 C        2.919    -0.039    28.981     8.828
    41   6 C        2.919    -0.030    28.747     8.792
    42   6 C        2.922    -0.047    29.179     8.858
    43   6 C        2.923     0.066    26.527     8.446
    44   6 C        2.922    -0.048    29.202     8.862
    45   6 C        2.919    -0.030    28.759     8.794
    46   6 C        2.919    -0.040    28.990     8.829
    47   6 C        2.919    -0.030    28.760     8.794
    48   6 C        2.922    -0.048    29.204     8.862
    49   6 C        2.920    -0.048    29.194     8.860
    50   6 C        2.923    -0.032    28.792     8.799
    51   6 C        2.922    -0.033    28.813     8.803
    52   6 C        2.923    -0.035    28.882     8.813
    53   6 C        2.923    -0.036    28.891     8.815
    54   6 C        2.922    -0.036    28.906     8.817
    55   1 H        0.925     0.033     2.547     2.496
    56   1 H        0.925     0.035     2.522     2.483
    57   1 H        0.926     0.033     2.545     2.495
    58   1 H        0.926     0.031     2.575     2.509
    59   1 H        0.926     0.032     2.557     2.501
    60   1 H        0.926     0.034     2.533     2.489
    61   1 H        0.926     0.032     2.552     2.498
    62   1 H        0.926     0.034     2.534     2.489
    63   1 H        0.926     0.032     2.562     2.503
    64   1 H        0.926     0.032     2.558     2.501
    65   1 H        0.926     0.034     2.536     2.490
    66   1 H        0.926     0.032     2.555     2.500
    67   1 H        0.926     0.034     2.536     2.490
    68   1 H        0.926     0.032     2.564     2.504
    69   1 H        0.926     0.031     2.569     2.506
    70   1 H        0.926     0.035     2.510     2.478
    71   1 H        0.925     0.029     2.597     2.520
    72   1 H        0.926     0.030     2.587     2.515
    73   1 H        0.926     0.031     2.575     2.510
    74   1 H        0.925     0.030     2.591     2.517
    75   1 H        0.925     0.035     2.513     2.479
    76   1 H        0.925     0.035     2.515     2.480
    77   1 H        0.926     0.033     2.541     2.493
    78   1 H        0.926     0.031     2.568     2.506
    79   1 H        0.926     0.031     2.571     2.507
    80   1 H        0.926     0.033     2.545     2.495
    81   1 H        0.926     0.032     2.564     2.504
    82   1 H        0.926     0.032     2.552     2.498
    83   1 H        0.926     0.031     2.576     2.510
    84   1 H        0.926     0.031     2.572     2.508
    85   1 H        0.926     0.033     2.547     2.496
    86   1 H        0.926     0.031     2.568     2.506
    87   1 H        0.926     0.033     2.548     2.496
    88   1 H        0.926     0.031     2.575     2.509
    89   1 H        0.926     0.030     2.585     2.514
    90   1 H        0.926     0.033     2.550     2.497
    91   1 H        0.926     0.029     2.606     2.525
    92   1 H        0.926     0.030     2.585     2.514
    93   1 H        0.926     0.031     2.575     2.510
    94   1 H        0.926     0.032     2.555     2.499

molecular dipole:
                 x           y           z       tot (Debye)
 q only:       -0.225      -0.154      -0.005
   full:       -0.220      -0.155      -0.015       0.686

 projected vibrational frequencies (cm⁻¹)
eigval :       -0.00    -0.00    -0.00    -0.00     0.00     0.00
eigval :       -2.35     4.34    10.03    13.66    16.51    26.55
eigval :       31.45    38.15    40.32    44.70    47.35    50.48
eigval :       59.94    61.48    69.42    71.40    76.23    79.77
eigval :       82.63    91.37    99.74   104.71   121.39   132.04
eigval :      142.14   168.81   187.71   192.54   205.50   222.30
eigval :      229.10   230.75   244.31   245.81   268.55   274.70
eigval :      308.13   313.58   319.36   324.37   334.89   337.54
eigval :      367.99   371.81   377.91   378.54   378.87   379.58
eigval :      382.50   384.77   387.89   391.65   397.11   403.97
eigval :      419.19   455.12   462.71   467.06   476.20   482.19
eigval :      490.67   494.16   503.78   524.69   531.21   544.95
eigval :      551.40   580.57   582.77   583.42   587.28   591.88
eigval :      592.76   595.24   602.40   607.71   612.15   615.29
eigval :      640.99   659.22   659.73   661.89   664.30   672.81
eigval :      680.26   681.31   685.59   700.49   702.42   733.34
eigval :      754.07   757.99   758.48   761.43   768.42   776.80
eigval :      797.37   808.88   817.61   819.69   827.85   845.18
eigval :      860.78   862.60   864.61   867.69   870.48   873.05
eigval :      875.12   876.70   878.47   882.05   889.52   891.13
eigval :      893.54   895.28   909.04   909.41   909.65   911.84
eigval :      915.13   915.25   918.91   924.06   924.94   925.38
eigval :      926.44   927.39   927.77   928.67   929.04   929.87
eigval :      930.20   931.26   931.55   933.30   934.28   984.78
eigval :      985.03   986.73   987.56  1003.64  1003.88  1017.03
eigval :     1022.30  1022.84  1081.11  1081.91  1082.26  1082.98
eigval :     1083.66  1119.66  1120.27  1121.97  1122.50  1138.95
eigval :     1141.28  1142.86  1147.59  1177.01  1177.04  1177.11
eigval :     1177.42  1177.60  1184.58  1185.13  1190.63  1193.36
eigval :     1194.65  1194.86  1197.51  1201.10  1207.42  1209.07
eigval :     1221.14  1225.07  1238.98  1241.48  1270.46  1273.01
eigval :     1274.94  1276.42  1277.10  1278.61  1280.58  1281.49
eigval :     1292.69  1305.85  1309.79  1311.93  1314.08  1314.36
eigval :     1318.11  1319.52  1320.76  1324.08  1325.29  1327.53
eigval :     1329.67  1337.20  1345.83  1368.45  1395.87  1412.07
eigval :     1412.81  1417.50  1434.06  1434.32  1440.53  1440.78
eigval :     1468.78  1470.01  1472.03  1472.76  1473.09  1484.70
eigval :     1487.59  1507.48  1546.43  1549.79  1552.99  1559.76
eigval :     1571.20  1574.95  1575.25  1578.92  1579.39  1587.19
eigval :     1591.02  1591.53  1591.57  1596.86  1598.91  1601.41
eigval :     1638.60  1653.55  3028.00  3042.07  3052.87  3058.90
eigval :     3062.46  3063.28  3066.19  3068.14  3070.38  3070.85
eigval :     3071.12  3071.53  3071.87  3071.95  3072.16  3072.63
eigval :     3072.91  3072.97  3075.28  3076.52  3077.01  3077.81
eigval :     3081.37  3081.57  3082.02  3082.59  3082.90  3083.23
eigval :     3084.11  3084.61  3085.02  3085.44  3085.72  3090.36
eigval :     3093.14  3093.16  3093.76  3093.79  3094.12  3094.62

   temp. (K)  partition function   enthalpy   heat capacity  entropy
                                   cal/mol     cal/K/mol   cal/K/mol   J/K/mol
 298.15  VIB  0.436E+24            26920.634    165.767    173.523
         ROT  0.238E+09              888.752      2.981     41.314
         INT  0.104E+33            27809.386    168.748    214.837
         TR   0.176E+29             1481.254      4.968     45.467
         TOT                       29290.6401   173.7163   260.3042  1089.1127

       T/K    H(0)-H(T)+PV         H(T)/Eh          T*S/Eh         G(T)/Eh
   ------------------------------------------------------------------------
    298.15    0.466776E-01    0.787597E+00    0.123679E+00    0.663918E+00
   ------------------------------------------------------------------------

         :::::::::::::::::::::::::::::::::::::::::::::::::::::
         ::                  THERMODYNAMIC                  ::
         :::::::::::::::::::::::::::::::::::::::::::::::::::::
         :: total free energy        -136.939852886561 Eh   ::
         ::.................................................::
         :: total energy             -137.603770611176 Eh   ::
         :: zero point energy           0.740919030576 Eh   ::
         :: G(RRHO) w/o ZPVE           -0.077001305961 Eh   ::
         :: G(RRHO) contrib.            0.663917724615 Eh   ::
         :::::::::::::::::::::::::::::::::::::::::::::::::::::

           -------------------------------------------------
          | TOTAL ENERGY             -137.603770611176 Eh   |
          | TOTAL ENTHALPY           -136.816173974478 Eh   |
          | TOTAL FREE ENERGY        -136.939852886561 Eh   |
          | GRADIENT NORM               0.000062078374 Eh/α |
          | HOMO-LUMO GAP               2.069967733480 eV   |
           -------------------------------------------------

 * finished run on 2025/09/10 at 19:11:59.490
