   * xtb version 6.7.1 (edcfbbe) compiled by 'albert@albert-system' on 2024-07-22

   ID    Z sym.   atoms
    1    6 C      1-6, 8-35, 37-54
    2    7 N      7, 36
    3    1 H      55-94

          program call               : xtb data2507/toluene/BDAVBi/BDAVBi.xyz --gfn 2 --gbsa toluene --ohess vtight --parallel 40 --molden --ceasefiles --namespace data2507/toluene/BDAVBi/BDAVBi_toluene_S0_preOpt
      * Solvation model:               GBSA
        Solvent                        toluene
        Solvent mass                       9.2140E+01 g/mol
          :  Hamiltonian                  GFN2-xTB          :
 * total energy  :  -137.5743168 Eh     change       -0.2936531E-08 Eh
 * total energy  :  -137.5890326 Eh     change       -0.1471582E-01 Eh
 * total energy  :  -137.5949298 Eh     change       -0.5897184E-02 Eh
 * total energy  :  -137.5970268 Eh     change       -0.2097027E-02 Eh
 * total energy  :  -137.5986261 Eh     change       -0.1599308E-02 Eh
 * total energy  :  -137.5997656 Eh     change       -0.1139519E-02 Eh
 * total energy  :  -137.6006371 Eh     change       -0.8714310E-03 Eh
 * total energy  :  -137.6012873 Eh     change       -0.6502678E-03 Eh
 * total energy  :  -137.6017055 Eh     change       -0.4182074E-03 Eh
 * total energy  :  -137.6019472 Eh     change       -0.2416253E-03 Eh
 * total energy  :  -137.6032526 Eh     change       -0.2512755E-05 Eh
 * total energy  :  -137.6032546 Eh     change       -0.1958378E-05 Eh
 * total energy  :  -137.6032557 Eh     change       -0.1068330E-05 Eh
 * total energy  :  -137.6032568 Eh     change       -0.1083204E-05 Eh
 * total energy  :  -137.6032577 Eh     change       -0.9739180E-06 Eh
 * total energy  :  -137.6032585 Eh     change       -0.7344156E-06 Eh
 * total energy  :  -137.6032593 Eh     change       -0.8671449E-06 Eh
 * total energy  :  -137.6032598 Eh     change       -0.4813428E-06 Eh
 * total energy  :  -137.6032598 Eh     change       -0.2099313E-07 Eh
   *** GEOMETRY OPTIMIZATION CONVERGED AFTER 106 ITERATIONS ***

 final structure:
================
94
 xtb: 6.7.1 (edcfbbe)
C           -3.10256387393367        0.85114913528307       -0.14091073520742
C           -4.27951559226861        1.49384882722806       -0.21723665623088
C           -5.59556953754881        0.90042674167803       -0.11441733680834
C           -5.81924425681553       -0.45890136609432        0.13269912672231
C           -7.09407775835648       -0.97065087660060        0.21936606012218
C           -8.20913435115926       -0.14405350362450        0.05817738784930
N           -9.50119509215778       -0.66482408455407        0.14327695910210
C          -10.53239121803040        0.09695499376129        0.70857283556165
C          -11.81876229966064        0.05371134738479        0.17077663779598
C          -12.83488203839876        0.80102345618010        0.73477897475943
C          -12.58650141137438        1.60764697635297        1.83375691070713
C          -11.30958053392516        1.65701432360304        2.36972428084709
C          -10.28899454462345        0.90627523777557        1.81844283914074
C           -9.77384991990919       -1.95118541303664       -0.34132880659533
C           -9.16910325801625       -2.40970362716288       -1.51174208011679
C           -9.44074449201413       -3.67951549015127       -1.98390115114460
C          -10.32171389822130       -4.50722336054233       -1.30635467753599
C          -10.92931198762838       -4.05448031694676       -0.14617625903245
C          -10.65708996565909       -2.78960786061754        0.33879708653041
C           -7.99963236520393        1.21458192365039       -0.18838700620945
C           -6.72128529261100        1.71929855585348       -0.26731460550679
C           -1.78563638462792        1.44511207709221       -0.24672422468467
C           -1.56243554345756        2.80949550576507       -0.45994177018411
C           -0.28398932024560        3.31587857477877       -0.55127442073169
C            0.83162175805440        2.48465869248794       -0.44334225468279
C            2.19188445113524        3.02435653377401       -0.55169001944065
C            3.18265671829152        2.32879908125924       -1.24607077879756
C            4.46318143240084        2.82933126161580       -1.34763765595021
C            4.80559030177288        4.04445150341161       -0.75243853622556
C            6.14417924909833        4.61443050504809       -0.87586097592709
C            7.31141594379406        3.96187113341000       -0.85946587268385
C            7.53740246416384        2.54951399710357       -0.56957255013586
C            6.81255648429511        1.86682834198859        0.40901324114169
C            7.06530492304175        0.54063401581965        0.68535787435153
C            8.05961092053419       -0.15241132029687       -0.00782534958843
N            8.31383082956701       -1.50122286941887        0.26406105932579
C            8.24382442693029       -1.97748011694838        1.57871411785569
C            8.68235649834021       -1.18763570257952        2.64194205164352
C            8.60967918572191       -1.66082625836854        3.93796059848767
C            8.10972782796414       -2.92707158160117        4.19668992806804
C            7.67602412198262       -3.71728562749704        3.14428975978840
C            7.73577158616450       -3.24913834159778        1.84577776927445
C            8.63691011307804       -2.37383294753022       -0.78231550893743
C            8.01912981161495       -2.24511232995435       -2.02665395962187
C            8.34257296311410       -3.10594874964339       -3.05778103546522
C            9.27599977440246       -4.11198770959035       -2.86625787598671
C            9.89024700002459       -4.24673378676097       -1.63143059281502
C            9.58061108843807       -3.38449822568984       -0.59716202688804
C            8.80265354149693        0.52917674005497       -0.97263875236140
C            8.54943030330179        1.85812411610707       -1.23802865661800
C            3.80830691997736        4.75173658876664       -0.07971099717571
C            2.52798612680317        4.24806071344278        0.02620443335630
C            0.61621724058723        1.12276044181340       -0.23188280684334
C           -0.66207399268220        0.61774345146305       -0.13395511883852
H           -3.09362740872365       -0.21980871307908        0.01475711746444
H           -4.28832879890050        2.56452751508576       -0.37546557054739
H           -4.98343203459722       -1.12701272746225        0.27142912097922
H           -7.24042505707825       -2.02210820570853        0.42090239009850
H          -12.01311835967943       -0.56705079124611       -0.69187757384864
H          -13.82609069651657        0.75924757308339        0.30696734147675
H          -13.38216362859686        2.19323752373585        2.26940076029956
H          -11.10745252327440        2.27815376617922        3.23034793900426
H           -9.29687935953404        0.93902462819638        2.24506309999238
H           -8.48961572193424       -1.76229404049815       -2.04713313294921
H           -8.96731710187792       -4.02171105470068       -2.89280421490208
H          -10.53355620728406       -5.49769472964143       -1.68031018435673
H          -11.61408775829566       -4.69434650726096        0.39141725894662
H          -11.12501161780051       -2.44185574824399        1.24844512646885
H           -8.84962210438337        1.86802032057504       -0.32219925816789
H           -6.58358556872013        2.77339855299446       -0.46474082694097
H           -2.39902103864344        3.48427749385839       -0.55869501805663
H           -0.14256970469267        4.37157233922988       -0.73468438761607
H            2.93488994595458        1.39677202730395       -1.73370283203258
H            5.20987904490914        2.28526222427706       -1.90703312870302
H            6.16226900521795        5.68973229685141       -1.01362753620044
H            8.21367722753297        4.52667062540305       -1.06626336979765
H            6.04442834896877        2.38762204671019        0.96077272646469
H            6.49115082171415        0.02813520931772        1.44368305230985
H            9.08247988773150       -0.20391808249736        2.44319454131404
H            8.95530865338187       -1.03898130976957        4.75113643034628
H            8.05839625830192       -3.29504450465502        5.21049889943559
H            7.27877515780841       -4.70367667599443        3.33589548243178
H            7.38770572122034       -3.86456220387603        1.02881943421855
H            7.28304127364944       -1.46839117289306       -2.17575646118349
H            7.85444149865356       -2.99589457378863       -4.01544668918944
H            9.52291155092801       -4.78567801703003       -3.67309439490513
H           10.62356027041642       -5.02448786011919       -1.47396558793962
H           10.06859978209337       -3.48592175629566        0.36142374983731
H            9.58628085044977        0.00925147779479       -1.50481050268868
H            9.13888059604126        2.37223222103990       -1.98442363106445
H            4.05076008273048        5.70019593638010        0.37998505928097
H            1.78062571431959        4.80036633567707        0.57780718712868
H            1.46320720076173        0.46020250309490       -0.12377927178424
H           -0.80276927977720       -0.44102726916313        0.03691797789621

          :  Hamiltonian                  GFN2-xTB          :
         :: gradient norm              0.000187969867 Eh/a0 ::
         :: HOMO-LUMO gap              2.053207747191 eV    ::
         :: SCC energy              -140.249492414125 Eh    ::
         :: -> dispersion             -0.121108660958 Eh    ::
         :: -> Gsolv                  -0.058234451463 Eh    ::
         :: repulsion energy           2.646232584585 Eh    ::

    * Orbital Energies and Occupations

         #    Occupation            Energy/Eh            Energy/eV
      -------------------------------------------------------------
         1        2.0000           -0.6648748             -18.0922
       ...           ...                  ...                  ...
       117        2.0000           -0.4074556             -11.0874
       118        2.0000           -0.4067874             -11.0692
       119        2.0000           -0.4049004             -11.0179
       120        2.0000           -0.4041591             -10.9977
       121        2.0000           -0.4041264             -10.9968
       122        2.0000           -0.4039403             -10.9918
       123        2.0000           -0.4023228             -10.9478
       124        2.0000           -0.4014790             -10.9248
       125        2.0000           -0.3987029             -10.8493
       126        2.0000           -0.3802814             -10.3480
       127        2.0000           -0.3681503             -10.0179
       128        2.0000           -0.3474698              -9.4551
       129        2.0000           -0.3457001              -9.4070 (HOMO)
       130                         -0.2702461              -7.3538 (LUMO)
       131                         -0.2541746              -6.9164
       132                         -0.2307716              -6.2796
       133                         -0.2298727              -6.2552
       134                         -0.2272169              -6.1829
       135                         -0.2270693              -6.1789
       136                         -0.2266657              -6.1679
       137                         -0.2221218              -6.0442
       138                         -0.2220149              -6.0413
       139                         -0.2212193              -6.0197
       140                         -0.2202874              -5.9943
       ...                                ...                  ...
       256                          0.7082913              19.2736
      -------------------------------------------------------------
                  HL-Gap            0.0754540 Eh            2.0532 eV

     #   Z          covCN         q      C6AA      α(0)
     1   6 C        2.901    -0.043    29.070     8.840
     2   6 C        2.901    -0.040    28.998     8.829
     3   6 C        2.968     0.004    27.927     8.668
     4   6 C        2.922    -0.035    28.869     8.811
     5   6 C        2.919    -0.049    29.223     8.865
     6   6 C        2.923     0.064    26.565     8.452
     7   7 N        2.752    -0.077    22.736     7.082
     8   6 C        2.924     0.066    26.532     8.447
     9   6 C        2.922    -0.048    29.182     8.859
    10   6 C        2.919    -0.030    28.751     8.793
    11   6 C        2.919    -0.039    28.968     8.826
    12   6 C        2.919    -0.030    28.752     8.793
    13   6 C        2.922    -0.047    29.178     8.858
    14   6 C        2.924     0.066    26.533     8.447
    15   6 C        2.922    -0.047    29.174     8.858
    16   6 C        2.919    -0.030    28.751     8.793
    17   6 C        2.919    -0.039    28.965     8.826
    18   6 C        2.919    -0.030    28.751     8.793
    19   6 C        2.922    -0.047    29.179     8.858
    20   6 C        2.918    -0.050    29.234     8.866
    21   6 C        2.928    -0.036    28.893     8.815
    22   6 C        2.969     0.010    27.779     8.645
    23   6 C        2.921    -0.036    28.906     8.817
    24   6 C        2.922    -0.036    28.897     8.815
    25   6 C        2.976     0.006    27.876     8.661
    26   6 C        2.976     0.006    27.875     8.660
    27   6 C        2.923    -0.036    28.887     8.814
    28   6 C        2.922    -0.033    28.820     8.804
    29   6 C        2.970     0.015    27.677     8.629
    30   6 C        2.898    -0.041    29.010     8.831
    31   6 C        2.898    -0.039    28.961     8.824
    32   6 C        2.969     0.009    27.817     8.651
    33   6 C        2.923    -0.032    28.794     8.800
    34   6 C        2.920    -0.049    29.204     8.862
    35   6 C        2.923     0.064    26.573     8.453
    36   7 N        2.752    -0.080    22.786     7.090
    37   6 C        2.923     0.066    26.526     8.446
    38   6 C        2.922    -0.048    29.196     8.861
    39   6 C        2.919    -0.030    28.758     8.794
    40   6 C        2.919    -0.040    28.985     8.829
    41   6 C        2.919    -0.030    28.760     8.794
    42   6 C        2.922    -0.048    29.199     8.861
    43   6 C        2.923     0.066    26.525     8.446
    44   6 C        2.922    -0.048    29.190     8.860
    45   6 C        2.919    -0.030    28.758     8.794
    46   6 C        2.919    -0.040    28.984     8.828
    47   6 C        2.919    -0.030    28.758     8.794
    48   6 C        2.922    -0.048    29.196     8.861
    49   6 C        2.920    -0.049    29.217     8.864
    50   6 C        2.925    -0.037    28.921     8.819
    51   6 C        2.924    -0.038    28.942     8.822
    52   6 C        2.922    -0.036    28.898     8.816
    53   6 C        2.921    -0.036    28.899     8.816
    54   6 C        2.927    -0.037    28.923     8.820
    55   1 H        0.925     0.033     2.543     2.494
    56   1 H        0.925     0.034     2.529     2.487
    57   1 H        0.926     0.035     2.510     2.478
    58   1 H        0.926     0.031     2.570     2.507
    59   1 H        0.926     0.032     2.564     2.504
    60   1 H        0.926     0.034     2.535     2.490
    61   1 H        0.926     0.032     2.554     2.499
    62   1 H        0.926     0.034     2.534     2.490
    63   1 H        0.926     0.032     2.557     2.501
    64   1 H        0.926     0.032     2.557     2.501
    65   1 H        0.926     0.034     2.533     2.489
    66   1 H        0.926     0.032     2.552     2.498
    67   1 H        0.926     0.034     2.533     2.489
    68   1 H        0.926     0.032     2.562     2.503
    69   1 H        0.926     0.031     2.574     2.509
    70   1 H        0.925     0.033     2.546     2.495
    71   1 H        0.926     0.032     2.557     2.500
    72   1 H        0.926     0.031     2.576     2.510
    73   1 H        0.926     0.030     2.584     2.514
    74   1 H        0.926     0.030     2.589     2.516
    75   1 H        0.925     0.035     2.519     2.482
    76   1 H        0.925     0.035     2.518     2.482
    77   1 H        0.926     0.033     2.538     2.491
    78   1 H        0.926     0.030     2.580     2.512
    79   1 H        0.926     0.031     2.573     2.508
    80   1 H        0.926     0.033     2.547     2.496
    81   1 H        0.926     0.031     2.566     2.505
    82   1 H        0.926     0.033     2.546     2.495
    83   1 H        0.926     0.031     2.572     2.508
    84   1 H        0.926     0.031     2.575     2.509
    85   1 H        0.926     0.033     2.545     2.495
    86   1 H        0.926     0.032     2.564     2.504
    87   1 H        0.926     0.033     2.545     2.495
    88   1 H        0.926     0.031     2.571     2.507
    89   1 H        0.926     0.031     2.573     2.508
    90   1 H        0.926     0.033     2.545     2.495
    91   1 H        0.925     0.030     2.590     2.517
    92   1 H        0.926     0.031     2.571     2.508
    93   1 H        0.926     0.030     2.584     2.514
    94   1 H        0.925     0.029     2.598     2.521

molecular dipole:
                 x           y           z       tot (Debye)
 q only:       -0.230      -0.115       0.014
   full:       -0.225      -0.112       0.016       0.641

 projected vibrational frequencies (cm⁻¹)
eigval :       -0.00    -0.00    -0.00     0.00     0.00     0.00
eigval :       -6.55     7.22    11.12    13.19    20.19    26.64
eigval :       32.22    37.60    41.85    44.86    47.95    53.42
eigval :       57.55    61.88    68.85    69.71    77.15    81.93
eigval :       87.43    88.96    98.57   104.99   109.99   139.50
eigval :      146.71   167.25   178.36   190.36   206.61   219.57
eigval :      231.29   231.71   239.87   254.48   268.26   273.97
eigval :      307.71   315.92   316.74   322.77   335.65   342.09
eigval :      361.52   372.14   376.67   377.33   379.30   380.14
eigval :      380.80   386.18   387.95   388.68   392.59   409.23
eigval :      426.74   447.82   463.23   467.22   475.23   482.45
eigval :      490.50   495.54   502.59   525.75   530.51   543.99
eigval :      549.95   581.29   583.07   583.75   587.53   592.89
eigval :      593.44   594.21   603.24   606.13   611.44   615.76
eigval :      646.10   659.54   659.66   662.82   664.39   671.67
eigval :      678.30   680.11   686.57   701.06   702.12   733.81
eigval :      756.45   756.77   760.14   760.64   767.92   776.76
eigval :      795.70   807.67   816.44   819.55   827.36   844.52
eigval :      858.27   860.61   864.82   867.77   870.43   872.62
eigval :      873.33   876.28   877.46   881.01   891.09   891.70
eigval :      893.65   893.84   908.51   909.27   909.95   910.87
eigval :      913.31   914.44   918.57   920.92   922.94   924.93
eigval :      925.01   926.48   927.14   927.30   928.82   929.71
eigval :      930.05   930.94   930.96   931.09   931.39   984.63
eigval :      984.78   985.19   986.85  1003.90  1003.96  1016.49
eigval :     1022.35  1022.98  1081.26  1082.11  1082.36  1082.53
eigval :     1083.40  1119.56  1121.26  1121.86  1123.37  1138.69
eigval :     1141.43  1143.80  1149.09  1178.77  1179.62  1179.93
eigval :     1179.99  1181.18  1184.56  1185.26  1191.43  1192.99
eigval :     1194.44  1195.20  1198.21  1201.99  1207.30  1210.53
eigval :     1222.00  1228.16  1239.71  1243.59  1271.04  1272.87
eigval :     1274.72  1276.49  1278.00  1279.59  1281.22  1282.24
eigval :     1293.38  1306.46  1308.87  1311.64  1313.90  1315.45
eigval :     1318.80  1319.52  1320.92  1324.15  1325.29  1330.54
eigval :     1331.11  1337.64  1344.11  1373.74  1396.36  1412.50
eigval :     1413.55  1417.65  1434.62  1434.82  1440.90  1441.49
eigval :     1468.78  1470.48  1471.98  1472.38  1473.41  1484.54
eigval :     1487.76  1506.90  1545.91  1549.45  1553.18  1559.40
eigval :     1570.70  1575.31  1575.50  1579.24  1579.54  1586.97
eigval :     1591.01  1591.48  1591.60  1596.71  1598.92  1601.42
eigval :     1638.90  1656.74  3023.63  3037.37  3051.31  3058.62
eigval :     3061.65  3061.88  3066.21  3067.31  3070.78  3070.87
eigval :     3071.21  3071.48  3071.77  3071.78  3071.90  3072.13
eigval :     3072.28  3072.72  3076.59  3077.17  3077.35  3077.64
eigval :     3081.23  3081.24  3082.04  3082.06  3082.71  3083.10
eigval :     3083.78  3083.91  3084.84  3084.89  3086.46  3088.98
eigval :     3092.57  3093.27  3093.27  3093.85  3094.29  3094.59

   temp. (K)  partition function   enthalpy   heat capacity  entropy
                                   cal/mol     cal/K/mol   cal/K/mol   J/K/mol
 298.15  VIB  0.704E+23            26912.163    165.890    171.861
         ROT  0.276E+09              888.752      2.981     41.605
         INT  0.194E+32            27800.915    168.871    213.466
         TR   0.176E+29             1481.254      4.968     45.467
         TOT                       29282.1691   173.8391   258.9333  1083.3769

       T/K    H(0)-H(T)+PV         H(T)/Eh          T*S/Eh         G(T)/Eh
   ------------------------------------------------------------------------
    298.15    0.466641E-01    0.787584E+00    0.123028E+00    0.664556E+00
   ------------------------------------------------------------------------

         :::::::::::::::::::::::::::::::::::::::::::::::::::::
         ::                  THERMODYNAMIC                  ::
         :::::::::::::::::::::::::::::::::::::::::::::::::::::
         :: total free energy        -136.938703517660 Eh   ::
         ::.................................................::
         :: total energy             -137.603259826329 Eh   ::
         :: zero point energy           0.740919763971 Eh   ::
         :: G(RRHO) w/o ZPVE           -0.076363455302 Eh   ::
         :: G(RRHO) contrib.            0.664556308669 Eh   ::
         :::::::::::::::::::::::::::::::::::::::::::::::::::::

           -------------------------------------------------
          | TOTAL ENERGY             -137.603259826329 Eh   |
          | TOTAL ENTHALPY           -136.815675955524 Eh   |
          | TOTAL FREE ENERGY        -136.938703517660 Eh   |
          | GRADIENT NORM               0.000187933123 Eh/α |
          | HOMO-LUMO GAP               2.053207610837 eV   |
           -------------------------------------------------

 * finished run on 2025/09/10 at 18:57:56.022
