   * xtb version 6.7.1 (edcfbbe) compiled by 'albert@albert-system' on 2024-07-22

   ID    Z sym.   atoms
    1    6 C      1-6, 8-35, 37-54
    2    7 N      7, 36
    3    1 H      55-94

          program call               : xtb data2507/toluene/BDAVBi/BDAVBi_toluene_S0_finalOpt.xtbopt.xyz --gfn 2 --uhf 2 --gbsa toluene --ohess vtight --parallel 40 --molden --ceasefiles --namespace data2507/toluene/BDAVBi/BDAVBi_toluene_T1_preOpt
      * Solvation model:               GBSA
        Solvent                        toluene
        Solvent mass                       9.2140E+01 g/mol
          :  Hamiltonian                  GFN2-xTB          :
 * total energy  :  -137.5225708 Eh     change       -0.2206150E-08 Eh
 * total energy  :  -137.5288665 Eh     change       -0.6295704E-02 Eh
 * total energy  :  -137.5313553 Eh     change       -0.2488763E-02 Eh
 * total energy  :  -137.5316496 Eh     change       -0.2943852E-03 Eh
 * total energy  :  -137.5320050 Eh     change       -0.3553980E-03 Eh
 * total energy  :  -137.5322158 Eh     change       -0.2107319E-03 Eh
 * total energy  :  -137.5324415 Eh     change       -0.2257340E-03 Eh
 * total energy  :  -137.5326666 Eh     change       -0.2250648E-03 Eh
 * total energy  :  -137.5327968 Eh     change       -0.1302744E-03 Eh
 * total energy  :  -137.5328526 Eh     change       -0.5577946E-04 Eh
 * total energy  :  -137.5338603 Eh     change       -0.6352809E-06 Eh
 * total energy  :  -137.5338609 Eh     change       -0.6722161E-06 Eh
 * total energy  :  -137.5338618 Eh     change       -0.8159145E-06 Eh
 * total energy  :  -137.5338626 Eh     change       -0.8913691E-06 Eh
 * total energy  :  -137.5338637 Eh     change       -0.1062295E-05 Eh
 * total energy  :  -137.5338648 Eh     change       -0.1047783E-05 Eh
 * total energy  :  -137.5338659 Eh     change       -0.1193079E-05 Eh
 * total energy  :  -137.5338671 Eh     change       -0.1167505E-05 Eh
 * total energy  :  -137.5338671 Eh     change       -0.2470046E-08 Eh
   *** GEOMETRY OPTIMIZATION CONVERGED AFTER 185 ITERATIONS ***

 final structure:
================
94
 xtb: 6.7.1 (edcfbbe)
C           -3.16271391655589        2.21160706757559       -0.00433192229719
C           -3.75918748717652        0.99065550059368        0.15963203939172
C           -5.15494258930819        0.70788825290829        0.10858300993279
C           -5.59343237194694       -0.61753693976809        0.31106565458106
C           -6.92127804818176       -0.95683980381425        0.26703852766868
C           -7.89661093129564        0.01794875248226        0.01843258426985
N           -9.24655451076269       -0.32202039779393       -0.03228264438327
C           -9.63877695550228       -1.56021242606382       -0.55634582473319
C           -8.98295474876349       -2.09846576740595       -1.66438232183384
C           -9.36966183950360       -3.32300876855659       -2.17360607599110
C          -10.41567572193136       -4.02516828930242       -1.59567244964058
C          -11.07370949577457       -3.49222000496171       -0.49839475281781
C          -10.69055726792826       -2.27139191137486        0.02253682378341
C          -10.21690063001755        0.56907220920963        0.44183862892639
C           -9.97547393819029        1.33753232202486        1.58143294870344
C          -10.93521792425578        2.21789766273675        2.04215399326847
C          -12.14836001291568        2.34204300008308        1.38335262176798
C          -12.39509784220970        1.57693868082786        0.25428308576795
C          -11.43950182870010        0.69843596566783       -0.21840393609560
C           -7.48005210406643        1.34089652150745       -0.18093451134456
C           -6.14995119494440        1.67504901425908       -0.13854126721683
C           -1.77137473497266        2.48211117507775        0.03358905065432
C           -1.31000003908275        3.80616593545325       -0.16371201239050
C            0.01851276788069        4.11916016401886       -0.15987663908579
C            1.01328482471542        3.13589826008565        0.05869268645864
C            2.41079647935251        3.44314585974109        0.05092282940716
C            2.92891544732276        4.59556068309988       -0.59433496765993
C            4.26715841532447        4.84778150197487       -0.64976671908433
C            5.22173257701538        3.95927945830717       -0.08627414367216
C            6.59918068352676        4.22627658315043       -0.20493413945496
C            7.67085764152608        3.37438549444253        0.02120294113565
C            7.69164182872010        1.95815934945123       -0.01196882294433
C            8.75887359422334        1.24817829535007        0.58713016166220
C            8.79634484771686       -0.12111575581424        0.59893037902227
C            7.78167853015075       -0.86970485000684       -0.01902148936103
N            7.78954602723597       -2.25944404234126        0.02091414235653
C            6.58104459768015       -2.96358832952121        0.08908431843108
C            6.42446329682842       -4.16753658192989       -0.59944075492049
C            5.23109676423815       -4.85956261337494       -0.52668909176118
C            4.17596215609042       -4.36333246701986        0.22279255930409
C            4.32578329651036       -3.16699853700372        0.90687423211905
C            5.51726150888766       -2.47098992376037        0.84701631484600
C            9.00059029824968       -2.96178800078661       -0.00804420709859
C           10.05243044350354       -2.52305751403034       -0.81349101934737
C           11.24516234263088       -3.21959267674769       -0.83756753928806
C           11.40725807104883       -4.36114120281389       -0.06815006824219
C           10.36422353589984       -4.80230016012409        0.73125880049256
C            9.16940591906471       -4.11010149315173        0.76697092376306
C            6.75887612714722       -0.18008797043703       -0.68976793505070
C            6.71702018370968        1.18724258268600       -0.69136870910585
C            4.69581623041233        2.85798954119320        0.64414297941869
C            3.35841541835919        2.61087424651299        0.69922234494744
C            0.55000142457707        1.81454719189676        0.27108762536735
C           -0.77725679664478        1.49909263965563        0.25159777006154
H           -3.79126789453571        3.07393547719975       -0.18688074587438
H           -3.12973373576987        0.13057679908790        0.34537384051052
H           -4.85834321679006       -1.38353474756134        0.51549440613094
H           -7.22642061166927       -1.97948291375238        0.43656247733571
H           -8.17492057427513       -1.54683912053040       -2.12253942862911
H           -8.85573564330357       -3.72766682747782       -3.03333439092863
H          -10.71596961336195       -4.98103171294876       -1.99769009175751
H          -11.88662124700334       -4.03510974710057       -0.03868152826779
H          -11.19760019297454       -1.86218388988404        0.88425668023411
H           -9.03512177852903        1.23300835533496        2.10273034625099
H          -10.73722567504687        2.80487033590046        2.92719205161247
H          -12.89662184320800        3.02955408442930        1.74792147712103
H          -13.33596104247333        1.67087374170859       -0.26804275646859
H          -11.62958794521806        0.11065628177142       -1.10466041376662
H           -8.22106037600584        2.10070563597183       -0.38500062636573
H           -5.86644228388136        2.70160667015581       -0.31151174568278
H           -2.04124332165335        4.58897920053789       -0.31832902808418
H            0.31252359978224        5.14997738424773       -0.29248169583757
H            2.24967463367553        5.27133737775796       -1.09260827866350
H            4.62723070775882        5.72251961094428       -1.17513672133314
H            6.85228606672535        5.24994230048526       -0.46355082003613
H            8.62960840381057        3.84832481032916        0.20228422795521
H            9.53776961397735        1.80688479703992        1.08663495385441
H            9.59891690937881       -0.63750561544158        1.10571434214977
H            7.24092721166750       -4.54968077532902       -1.19454693281317
H            5.12140773401193       -5.78861289288048       -1.06662881263909
H            3.24362076069888       -4.90515491208715        0.27402267222892
H            3.51109539444320       -2.77644518002263        1.49900048362881
H            5.63625569911985       -1.54555269349131        1.39114146491881
H            9.92132824661326       -1.64090950132264       -1.42308943556217
H           12.05067446237189       -2.87328046022263       -1.46840584396056
H           12.34004545948621       -4.90404710221971       -0.09200844313872
H           10.48434029087066       -5.68797579596710        1.33777228503093
H            8.36076869253188       -4.44827067833243        1.39828439883037
H            6.00871098838423       -0.74391647345707       -1.22560803506263
H            5.94559232355536        1.69518335287226       -1.24913630849792
H            5.37950154235098        2.23278086364395        1.19863758540534
H            3.00728989643450        1.78310837814810        1.29754596164801
H            1.26972134165962        1.02118405375613        0.40946750891583
H           -1.07142987165674        0.47040471127988        0.39670919515655

          :  Hamiltonian                  GFN2-xTB          :
         :: gradient norm              0.000058845523 Eh/a0 ::
         :: HOMO-LUMO gap              0.502085598038 eV    ::
         :: SCC energy              -140.162572787731 Eh    ::
         :: -> dispersion             -0.121717483043 Eh    ::
         :: -> Gsolv                  -0.059159284210 Eh    ::
         :: repulsion energy           2.628705664554 Eh    ::

    * Orbital Energies and Occupations

         #    Occupation            Energy/Eh            Energy/eV
      -------------------------------------------------------------
         1        2.0000           -0.6713177             -18.2675
       ...           ...                  ...                  ...
       118        2.0000           -0.4086347             -11.1195
       119        2.0000           -0.4077014             -11.0941
       120        2.0000           -0.4055402             -11.0353
       121        2.0000           -0.4048214             -11.0158
       122        2.0000           -0.3996305             -10.8745
       123        2.0000           -0.3979939             -10.8300
       124        2.0000           -0.3970693             -10.8048
       125        2.0000           -0.3944326             -10.7331
       126        2.0000           -0.3743244             -10.1859
       127        2.0000           -0.3631618              -9.8821
       128        1.9943           -0.3480866              -9.4719
       129        1.0057           -0.3382687              -9.2048
       130        0.9999           -0.2797545              -7.6125 (HOMO)
       131        0.0001           -0.2613030              -7.1104 (LUMO)
       132                         -0.2354329              -6.4065
       133                         -0.2338891              -6.3644
       134                         -0.2305749              -6.2743
       135                         -0.2293123              -6.2399
       136                         -0.2278161              -6.1992
       137                         -0.2261041              -6.1526
       138                         -0.2248300              -6.1179
       139                         -0.2194017              -5.9702
       140                         -0.2190037              -5.9594
       141                         -0.2158621              -5.8739
       ...                                ...                  ...
       256                          0.7214153              19.6307
      -------------------------------------------------------------
                  HL-Gap            0.0184515 Eh            0.5021 eV

     #   Z          covCN         q      C6AA      α(0)
     1   6 C        2.902    -0.044    29.085     8.843
     2   6 C        2.903    -0.049    29.222     8.864
     3   6 C        2.966     0.007    27.870     8.659
     4   6 C        2.926    -0.039    28.959     8.825
     5   6 C        2.916    -0.048    29.184     8.859
     6   6 C        2.924     0.058    26.693     8.473
     7   7 N        2.752    -0.062    22.436     7.035
     8   6 C        2.925     0.065    26.550     8.450
     9   6 C        2.922    -0.045    29.118     8.849
    10   6 C        2.919    -0.029    28.724     8.789
    11   6 C        2.919    -0.037    28.910     8.817
    12   6 C        2.919    -0.029    28.725     8.789
    13   6 C        2.922    -0.046    29.136     8.852
    14   6 C        2.925     0.065    26.550     8.450
    15   6 C        2.922    -0.045    29.122     8.850
    16   6 C        2.919    -0.029    28.725     8.789
    17   6 C        2.919    -0.037    28.912     8.817
    18   6 C        2.919    -0.029    28.725     8.789
    19   6 C        2.922    -0.046    29.139     8.852
    20   6 C        2.917    -0.047    29.176     8.857
    21   6 C        2.920    -0.037    28.927     8.820
    22   6 C        2.967     0.003    27.947     8.671
    23   6 C        2.921    -0.040    28.991     8.830
    24   6 C        2.917    -0.039    28.980     8.828
    25   6 C        2.970     0.000    28.018     8.682
    26   6 C        2.970     0.000    28.022     8.683
    27   6 C        2.916    -0.039    28.971     8.826
    28   6 C        2.919    -0.041    29.017     8.834
    29   6 C        2.964     0.006    27.879     8.661
    30   6 C        2.900    -0.043    29.071     8.841
    31   6 C        2.901    -0.052    29.278     8.872
    32   6 C        2.964     0.012    27.742     8.639
    33   6 C        2.923    -0.040    28.998     8.831
    34   6 C        2.915    -0.047    29.157     8.855
    35   6 C        2.924     0.057    26.732     8.479
    36   7 N        2.752    -0.054    22.279     7.010
    37   6 C        2.926     0.064    26.562     8.452
    38   6 C        2.922    -0.045    29.120     8.849
    39   6 C        2.919    -0.028    28.712     8.787
    40   6 C        2.919    -0.036    28.885     8.813
    41   6 C        2.919    -0.028    28.704     8.786
    42   6 C        2.922    -0.044    29.083     8.844
    43   6 C        2.925     0.064    26.565     8.452
    44   6 C        2.921    -0.044    29.094     8.845
    45   6 C        2.919    -0.028    28.711     8.787
    46   6 C        2.919    -0.035    28.882     8.813
    47   6 C        2.919    -0.028    28.710     8.787
    48   6 C        2.922    -0.045    29.111     8.848
    49   6 C        2.916    -0.046    29.151     8.854
    50   6 C        2.919    -0.034    28.851     8.808
    51   6 C        2.915    -0.036    28.900     8.815
    52   6 C        2.917    -0.039    28.977     8.827
    53   6 C        2.918    -0.039    28.977     8.827
    54   6 C        2.916    -0.039    28.966     8.826
    55   1 H        0.925     0.027     2.636     2.539
    56   1 H        0.925     0.028     2.621     2.531
    57   1 H        0.926     0.031     2.576     2.510
    58   1 H        0.926     0.031     2.571     2.508
    59   1 H        0.926     0.035     2.516     2.480
    60   1 H        0.926     0.036     2.496     2.471
    61   1 H        0.926     0.035     2.511     2.478
    62   1 H        0.926     0.037     2.492     2.469
    63   1 H        0.926     0.035     2.520     2.482
    64   1 H        0.926     0.035     2.516     2.480
    65   1 H        0.926     0.036     2.499     2.472
    66   1 H        0.926     0.035     2.514     2.479
    67   1 H        0.926     0.037     2.494     2.469
    68   1 H        0.926     0.035     2.520     2.482
    69   1 H        0.926     0.031     2.572     2.508
    70   1 H        0.926     0.033     2.542     2.493
    71   1 H        0.925     0.021     2.715     2.577
    72   1 H        0.926     0.024     2.678     2.559
    73   1 H        0.926     0.024     2.669     2.555
    74   1 H        0.925     0.022     2.709     2.574
    75   1 H        0.925     0.026     2.646     2.544
    76   1 H        0.925     0.027     2.631     2.537
    77   1 H        0.926     0.032     2.560     2.502
    78   1 H        0.926     0.033     2.548     2.496
    79   1 H        0.926     0.036     2.498     2.471
    80   1 H        0.926     0.038     2.475     2.460
    81   1 H        0.926     0.036     2.499     2.472
    82   1 H        0.926     0.037     2.493     2.469
    83   1 H        0.926     0.036     2.502     2.474
    84   1 H        0.926     0.037     2.491     2.468
    85   1 H        0.926     0.038     2.477     2.461
    86   1 H        0.926     0.037     2.492     2.469
    87   1 H        0.926     0.038     2.473     2.459
    88   1 H        0.926     0.036     2.498     2.472
    89   1 H        0.926     0.031     2.570     2.507
    90   1 H        0.926     0.037     2.492     2.468
    91   1 H        0.926     0.028     2.616     2.529
    92   1 H        0.926     0.025     2.659     2.550
    93   1 H        0.926     0.026     2.644     2.543
    94   1 H        0.926     0.025     2.653     2.547

molecular dipole:
                 x           y           z       tot (Debye)
 q only:       -0.368      -1.861      -0.011
   full:       -0.364      -1.800      -0.026       4.668

 projected vibrational frequencies (cm⁻¹)
eigval :       -0.00    -0.00    -0.00     0.00     0.00     0.00
eigval :        5.04     7.96     9.02    14.21    19.14    26.54
eigval :       30.67    39.36    42.25    45.70    47.96    52.17
eigval :       57.80    62.64    69.42    70.75    75.57    82.50
eigval :       86.11    98.47   103.62   116.24   119.69   139.52
eigval :      147.52   174.39   183.53   189.58   202.18   210.00
eigval :      227.37   230.56   241.73   250.54   255.08   275.71
eigval :      301.92   307.25   312.76   314.93   323.34   338.21
eigval :      342.51   347.56   371.31   375.84   378.38   379.15
eigval :      379.65   383.66   388.23   392.31   398.41   405.10
eigval :      410.68   413.55   446.65   463.96   471.70   473.67
eigval :      477.85   483.01   498.88   506.01   508.53   524.14
eigval :      545.16   579.23   581.00   582.08   586.33   590.76
eigval :      592.06   593.28   594.31   603.87   606.46   613.42
eigval :      650.78   653.69   658.51   659.37   660.79   663.41
eigval :      668.13   674.98   680.16   683.91   696.61   706.42
eigval :      731.51   751.27   756.26   756.63   758.71   759.38
eigval :      763.29   798.12   801.62   807.80   813.22   814.89
eigval :      824.22   831.35   843.55   848.17   849.16   857.80
eigval :      871.03   871.38   872.34   872.96   874.09   892.95
eigval :      893.26   893.57   894.52   903.08   906.90   907.82
eigval :      908.25   909.85   911.80   913.30   915.21   918.93
eigval :      920.10   923.10   925.86   926.90   927.00   927.69
eigval :      927.94   928.46   928.93   929.37   929.72   930.05
eigval :      959.66   981.21   982.78   991.85  1002.49  1003.06
eigval :     1008.32  1014.07  1042.36  1079.48  1080.62  1081.38
eigval :     1082.04  1093.94  1120.28  1120.83  1122.81  1123.11
eigval :     1135.28  1141.02  1142.30  1155.84  1166.51  1177.21
eigval :     1178.15  1178.61  1179.22  1179.64  1183.01  1189.32
eigval :     1190.16  1192.42  1193.42  1203.08  1207.05  1211.15
eigval :     1224.87  1238.38  1243.59  1250.02  1253.89  1270.08
eigval :     1273.44  1275.52  1276.10  1279.13  1280.55  1281.69
eigval :     1287.63  1301.62  1303.89  1309.32  1314.27  1315.81
eigval :     1319.19  1320.86  1322.49  1324.32  1324.66  1336.13
eigval :     1341.24  1345.77  1357.19  1366.29  1403.29  1426.89
eigval :     1428.73  1431.81  1434.23  1439.09  1439.64  1442.11
eigval :     1448.86  1458.06  1463.30  1464.32  1464.67  1465.19
eigval :     1466.74  1467.73  1478.97  1482.93  1491.35  1494.20
eigval :     1512.59  1521.78  1552.95  1570.04  1571.58  1573.50
eigval :     1575.10  1576.00  1584.27  1586.19  1586.59  1590.69
eigval :     1593.12  1603.33  3008.68  3025.74  3046.52  3050.33
eigval :     3053.52  3059.76  3065.24  3067.78  3070.09  3073.67
eigval :     3073.98  3074.43  3074.53  3075.21  3075.37  3075.41
eigval :     3075.49  3075.74  3076.51  3076.55  3076.98  3081.04
eigval :     3082.10  3083.39  3083.82  3084.73  3084.83  3085.69
eigval :     3085.94  3086.66  3087.65  3087.93  3088.70  3089.00
eigval :     3094.62  3095.22  3095.48  3096.06  3096.32  3098.01

   temp. (K)  partition function   enthalpy   heat capacity  entropy
                                   cal/mol     cal/K/mol   cal/K/mol   J/K/mol
 298.15  VIB  0.104E+24            27178.313    167.930    173.263
         ROT  0.258E+09              888.752      2.981     41.475
         INT  0.269E+32            28067.065    170.911    214.738
         TR   0.176E+29             1481.254      4.968     45.467
         TOT                       29548.3190   175.8792   260.2055  1088.6999

       T/K    H(0)-H(T)+PV         H(T)/Eh          T*S/Eh         G(T)/Eh
   ------------------------------------------------------------------------
    298.15    0.470882E-01    0.783934E+00    0.123632E+00    0.660302E+00
   ------------------------------------------------------------------------

         :::::::::::::::::::::::::::::::::::::::::::::::::::::
         ::                  THERMODYNAMIC                  ::
         :::::::::::::::::::::::::::::::::::::::::::::::::::::
         :: total free energy        -136.873565304880 Eh   ::
         ::.................................................::
         :: total energy             -137.533867121276 Eh   ::
         :: zero point energy           0.736845617831 Eh   ::
         :: G(RRHO) w/o ZPVE           -0.076543801436 Eh   ::
         :: G(RRHO) contrib.            0.660301816395 Eh   ::
         :::::::::::::::::::::::::::::::::::::::::::::::::::::

           -------------------------------------------------
          | TOTAL ENERGY             -137.533867121276 Eh   |
          | TOTAL ENTHALPY           -136.749933259863 Eh   |
          | TOTAL FREE ENERGY        -136.873565304880 Eh   |
          | GRADIENT NORM               0.000058530249 Eh/α |
          | HOMO-LUMO GAP               0.502091511650 eV   |
           -------------------------------------------------

 * finished run on 2025/09/10 at 19:12:22.394
