   * xtb version 6.7.1 (edcfbbe) compiled by 'albert@albert-system' on 2024-07-22

   ID    Z sym.   atoms
    1    9 F      1, 52
    2    6 C      2-4, 6-10, 12-17, 19-31, 33-38, 40-47, 49-51
    3    7 N      5, 11, 32, 48
    4    8 O      18, 39
    5    1 H      53-78

          program call               : xtb data2507/toluene/DFDBQPXZ/DFDBQPXZ_toluene_S0_crest.xyz --gfn 2 --gbsa toluene --ohess vtight --parallel 40 --molden --ceasefiles --namespace data2507/toluene/DFDBQPXZ/DFDBQPXZ_toluene_S0_finalOpt
      * Solvation model:               GBSA
        Solvent                        toluene
        Solvent mass                       9.2140E+01 g/mol
          :  Hamiltonian                  GFN2-xTB          :
 * total energy  :  -136.8761676 Eh     change       -0.1201556E-08 Eh
 * total energy  :  -136.8762447 Eh     change       -0.7713780E-04 Eh
 * total energy  :  -136.8763026 Eh     change       -0.5790655E-04 Eh
 * total energy  :  -136.8763309 Eh     change       -0.2831841E-04 Eh
 * total energy  :  -136.8763547 Eh     change       -0.2372737E-04 Eh
 * total energy  :  -136.8763853 Eh     change       -0.3065960E-04 Eh
 * total energy  :  -136.8764061 Eh     change       -0.2081695E-04 Eh
 * total energy  :  -136.8764156 Eh     change       -0.9415844E-05 Eh
 * total energy  :  -136.8764279 Eh     change       -0.1232196E-04 Eh
 * total energy  :  -136.8764405 Eh     change       -0.1262772E-04 Eh
 * total energy  :  -136.8765507 Eh     change       -0.1905304E-05 Eh
 * total energy  :  -136.8765526 Eh     change       -0.1895011E-05 Eh
 * total energy  :  -136.8765542 Eh     change       -0.1632986E-05 Eh
 * total energy  :  -136.8765556 Eh     change       -0.1350033E-05 Eh
 * total energy  :  -136.8765567 Eh     change       -0.1111065E-05 Eh
 * total energy  :  -136.8765577 Eh     change       -0.1031610E-05 Eh
 * total energy  :  -136.8765587 Eh     change       -0.9506279E-06 Eh
 * total energy  :  -136.8765595 Eh     change       -0.8299613E-06 Eh
 * total energy  :  -136.8765595 Eh     change       -0.4638935E-08 Eh
   *** GEOMETRY OPTIMIZATION CONVERGED AFTER 44 ITERATIONS ***

 final structure:
================
78
 xtb: 6.7.1 (edcfbbe)
F           -9.32610995355337       -1.16547311900011       -0.69132753303319
C           -8.14516432805767       -0.60921959565219       -0.36006111454077
C           -6.97578741091241       -1.22048712738139       -0.71519970200970
C           -5.75537361037728       -0.62041801241240       -0.35241986970768
N           -4.59273064075206       -1.24589412774966       -0.64270743661960
C           -3.48078385834343       -0.65570231992671       -0.30215428284419
C           -2.17041167246000       -1.30501586883923       -0.48387864109038
C           -1.42600889960239       -1.61852008304723        0.65203201037803
C           -0.11648987058298       -2.03246232328318        0.53846555798804
C            0.48531896600679       -2.10731316279128       -0.71537576416845
N            1.86941150779644       -2.36846824335422       -0.81991504640483
C            2.41828442540028       -3.52266550065261       -0.25505228599260
C            1.62503628059351       -4.58125763780131        0.17089258196859
C            2.19486165958717       -5.72121978635844        0.71766350589375
C            3.56627143449773       -5.82687279439434        0.83707056466140
C            4.37352664054166       -4.79197473306004        0.38665959422902
C            3.80954936370283       -3.65495478117556       -0.16215901733273
O            4.67431316487362       -2.68793486221804       -0.61831748055846
C            4.12151764796328       -1.54865762252423       -1.15034058929153
C            5.00171492554745       -0.57261725449738       -1.57944404852655
C            4.52753410210127        0.62087922639675       -2.10256927538476
C            3.16622502753877        0.83117623794408       -2.17928410837875
C            2.28015767173768       -0.14789415401438       -1.75571357006262
C            2.73727046818983       -1.35781316673055       -1.25020011308023
C           -0.28196528820120       -1.88063294493564       -1.85425765682632
C           -1.60446827304174       -1.49078616044304       -1.73922083083207
C           -3.48129820260947        0.65285001838757        0.30200543889450
C           -2.17138695998226        1.30303984978570        0.48386455412560
C           -1.60564046653509        1.48961484114556        1.73916840474583
C           -0.28337728826733        1.88032975021945        1.85413174338613
C            0.48385209738202        2.10705156351863        0.71522224324534
N            1.86778156834190        2.36905891359062        0.81977451648403
C            2.41613171002944        3.52272054593336        0.25325630015033
C            1.62241328041954        4.58042077855630       -0.17403828999091
C            2.19168120358297        5.71971541264144       -0.72277094271752
C            3.56302161742951        5.82565360989242       -0.84274358828290
C            4.37075793220015        4.79181696399634       -0.39077736690445
C            3.80732527056046        3.65545147512809        0.15995922664484
O            4.67255425463420        2.68954004475550        0.61754611330275
C            4.12029852817392        1.55025076716652        1.15009356147945
C            5.00098096723917        0.57469418175536        1.57931251789276
C            4.52739616006746       -0.61881504406233        2.10293364453317
C            3.16618459698537       -0.82962023509795        2.18000167941971
C            2.27963187102301        0.14895889160899        1.75631491681795
C            2.73614641609090        1.35889908614717        1.25029719357368
C           -0.11785921948414        2.03140742563923       -0.53862764758342
C           -1.42710909781804        1.61663929997049       -0.65211006984442
N           -4.59373796774614        1.24238034098760        0.64210299705755
C           -5.75589127084394        0.61625499169642        0.35125080494818
C           -6.97682844409093        1.21571683134885        0.71328080279381
C           -8.14568348582446        0.60388502566479        0.35739390443057
F           -9.32710755459189        1.15958572866811        0.68788081344469
H           -6.97560389169254       -2.15260076379745       -1.25644031367342
H           -1.87533791130059       -1.52089900874040        1.62917414078529
H            0.45836159175547       -2.26886787148717        1.42030561113330
H            0.55313393532854       -4.51492992471716        0.06898999581466
H            1.55476951541960       -6.52633901871678        1.04440789535460
H            4.01558422030683       -6.70890895986708        1.26562949348694
H            5.44899303067875       -4.84990454789690        0.44809975111512
H            6.05904283323966       -0.76409030297194       -1.48650308120288
H            5.22220313657178        1.37709124296269       -2.43276786229584
H            2.78333378691735        1.76212170480559       -2.57057560290987
H            1.21918973502587        0.03320698738334       -1.80816911386702
H            0.16850046445495       -1.99013570419757       -2.82935363772588
H           -2.19062347934874       -1.29422290781531       -2.62410505307665
H           -2.19170301474641        1.29297129768799        2.62409589763645
H            0.16695789887288        1.99046885137923        2.82921637406792
H            0.55056676730265        4.51392454095457       -0.07168170543325
H            1.55121803873082        6.52410622077751       -1.05057857225848
H            4.01190930035841        6.70718995882494       -1.27277343266123
H            5.44619174927047        4.85007601279427       -0.45246891825722
H            6.05820974143526        0.76655330676603        1.48604132679081
H            5.22244157073208       -1.37463867226468        2.43323652971206
H            2.78374443804833       -1.76055139237899        2.57176475398033
H            1.21875212365929       -0.03258127657343        1.80908671459626
H            0.45686011905463        2.26786452351178       -1.42053901123982
H           -1.87633540190120        1.51844694461395       -1.62924148289766
H           -6.97744900465850        2.14784559352153        1.25449501114480

          :  Hamiltonian                  GFN2-xTB          :
         :: gradient norm              0.000053864344 Eh/a0 ::
         :: HOMO-LUMO gap              0.749435582797 eV    ::
         :: SCC energy              -139.105085726978 Eh    ::
         :: -> dispersion             -0.130743681770 Eh    ::
         :: -> Gsolv                  -0.045416232375 Eh    ::
         :: repulsion energy           2.228526212561 Eh    ::

    * Orbital Energies and Occupations

         #    Occupation            Energy/Eh            Energy/eV
      -------------------------------------------------------------
         1        2.0000           -0.8486840             -23.0939
       ...           ...                  ...                  ...
       112        2.0000           -0.4250321             -11.5657
       113        2.0000           -0.4233764             -11.5207
       114        2.0000           -0.4225878             -11.4992
       115        2.0000           -0.4189868             -11.4012
       116        2.0000           -0.4173237             -11.3560
       117        2.0000           -0.4161216             -11.3232
       118        2.0000           -0.4139452             -11.2640
       119        2.0000           -0.4109427             -11.1823
       120        2.0000           -0.3934000             -10.7050
       121        2.0000           -0.3911957             -10.6450
       122        2.0000           -0.3770582             -10.2603
       123        2.0000           -0.3459283              -9.4132
       124        2.0000           -0.3458768              -9.4118 (HOMO)
       125        0.0000           -0.3183356              -8.6624 (LUMO)
       126                         -0.2799884              -7.6189
       127                         -0.2524538              -6.8696
       128                         -0.2498430              -6.7986
       129                         -0.2465048              -6.7077
       130                         -0.2437044              -6.6315
       131                         -0.2423980              -6.5960
       132                         -0.2414431              -6.5700
       133                         -0.2386140              -6.4930
       134                         -0.2324809              -6.3261
       135                         -0.2308994              -6.2831
       ...                                ...                  ...
       234                          0.6718438              18.2818
      -------------------------------------------------------------
                  HL-Gap            0.0275412 Eh            0.7494 eV

     #   Z          covCN         q      C6AA      α(0)
     1   9 F        0.787    -0.211    11.352     3.980
     2   6 C        2.777     0.158    24.564     8.118
     3   6 C        2.917    -0.059    29.479     8.903
     4   6 C        2.973     0.075    26.319     8.415
     5   7 N        1.844    -0.221    26.653     7.651
     6   6 C        2.961     0.093    25.924     8.351
     7   6 C        2.979     0.002    27.987     8.678
     8   6 C        2.926    -0.030    28.757     8.794
     9   6 C        2.921    -0.039    28.975     8.827
    10   6 C        2.921     0.067    26.504     8.442
    11   7 N        2.750    -0.073    22.654     7.069
    12   6 C        2.922     0.042    27.053     8.530
    13   6 C        2.924    -0.060    29.488     8.905
    14   6 C        2.919    -0.039    28.972     8.827
    15   6 C        2.919    -0.041    29.011     8.833
    16   6 C        2.919    -0.057    29.428     8.896
    17   6 C        2.883     0.123    25.291     8.245
    18   8 O        1.708    -0.269    18.455     5.800
    19   6 C        2.884     0.124    25.283     8.243
    20   6 C        2.920    -0.058    29.433     8.897
    21   6 C        2.919    -0.040    28.986     8.829
    22   6 C        2.919    -0.039    28.974     8.827
    23   6 C        2.925    -0.065    29.606     8.923
    24   6 C        2.923     0.042    27.068     8.532
    25   6 C        2.922    -0.039    28.970     8.826
    26   6 C        2.921    -0.026    28.654     8.778
    27   6 C        2.961     0.093    25.924     8.351
    28   6 C        2.979     0.002    27.987     8.678
    29   6 C        2.921    -0.026    28.654     8.778
    30   6 C        2.922    -0.039    28.970     8.826
    31   6 C        2.921     0.067    26.504     8.442
    32   7 N        2.750    -0.073    22.654     7.069
    33   6 C        2.922     0.042    27.053     8.530
    34   6 C        2.924    -0.060    29.488     8.905
    35   6 C        2.919    -0.039    28.972     8.827
    36   6 C        2.919    -0.041    29.011     8.833
    37   6 C        2.919    -0.057    29.428     8.896
    38   6 C        2.883     0.123    25.291     8.245
    39   8 O        1.708    -0.269    18.455     5.800
    40   6 C        2.884     0.124    25.283     8.243
    41   6 C        2.920    -0.058    29.433     8.897
    42   6 C        2.919    -0.040    28.986     8.829
    43   6 C        2.919    -0.039    28.974     8.827
    44   6 C        2.925    -0.065    29.606     8.923
    45   6 C        2.923     0.042    27.068     8.532
    46   6 C        2.921    -0.039    28.976     8.827
    47   6 C        2.926    -0.030    28.757     8.794
    48   7 N        1.844    -0.221    26.653     7.651
    49   6 C        2.973     0.075    26.319     8.415
    50   6 C        2.917    -0.059    29.479     8.903
    51   6 C        2.777     0.158    24.564     8.118
    52   9 F        0.787    -0.211    11.352     3.980
    53   1 H        0.926     0.099     1.797     2.096
    54   1 H        0.926     0.042     2.426     2.436
    55   1 H        0.926     0.054     2.267     2.354
    56   1 H        0.926     0.041     2.436     2.441
    57   1 H        0.926     0.042     2.416     2.431
    58   1 H        0.926     0.043     2.412     2.429
    59   1 H        0.926     0.048     2.344     2.394
    60   1 H        0.926     0.048     2.345     2.395
    61   1 H        0.926     0.040     2.446     2.446
    62   1 H        0.926     0.034     2.527     2.486
    63   1 H        0.926     0.040     2.444     2.445
    64   1 H        0.926     0.057     2.237     2.339
    65   1 H        0.926     0.051     2.303     2.373
    66   1 H        0.926     0.051     2.302     2.373
    67   1 H        0.926     0.057     2.237     2.339
    68   1 H        0.926     0.041     2.436     2.441
    69   1 H        0.926     0.042     2.416     2.431
    70   1 H        0.926     0.043     2.412     2.429
    71   1 H        0.926     0.048     2.344     2.394
    72   1 H        0.926     0.048     2.345     2.395
    73   1 H        0.926     0.040     2.446     2.446
    74   1 H        0.926     0.034     2.526     2.486
    75   1 H        0.926     0.040     2.444     2.445
    76   1 H        0.926     0.054     2.267     2.354
    77   1 H        0.926     0.042     2.427     2.436
    78   1 H        0.926     0.099     1.797     2.096

molecular dipole:
                 x           y           z       tot (Debye)
 q only:        1.096       0.000       0.000
   full:        0.943       0.000       0.000       2.396

 projected vibrational frequencies (cm⁻¹)
eigval :       -0.00    -0.00    -0.00     0.00     0.00     0.00
eigval :       16.53    19.07    20.62    24.60    29.53    40.24
eigval :       47.85    51.97    52.16    62.57    65.95    67.11
eigval :       85.25    99.54   110.54   112.35   117.75   124.64
eigval :      131.75   147.02   178.70   193.52   194.80   203.68
eigval :      217.85   241.27   243.75   252.95   253.59   260.11
eigval :      267.09   276.07   282.69   302.56   339.71   340.51
eigval :      351.06   367.29   368.89   376.87   384.82   389.61
eigval :      393.94   400.78   400.86   412.37   416.79   427.75
eigval :      428.72   430.83   445.83   449.15   450.90   461.62
eigval :      497.79   498.78   508.79   509.06   513.49   523.22
eigval :      523.72   527.56   553.54   563.50   574.31   581.02
eigval :      589.84   591.12   600.82   608.79   615.79   620.45
eigval :      625.83   645.05   658.14   658.68   661.70   661.85
eigval :      669.95   684.06   687.91   703.61   703.69   732.58
eigval :      749.37   765.19   771.61   774.80   776.92   780.58
eigval :      782.55   800.62   801.53   820.12   821.08   850.02
eigval :      853.83   854.02   858.80   860.90   868.72   868.84
eigval :      869.39   874.03   876.13   876.32   893.43   895.73
eigval :      899.11   899.82   904.02   912.07   913.35   914.27
eigval :      915.51   915.89   917.55   918.31   925.75   926.25
eigval :      933.92   935.29   973.66  1007.41  1031.34  1083.36
eigval :     1088.50  1088.51  1092.20  1094.62  1094.73  1106.82
eigval :     1106.83  1118.08  1119.11  1127.06  1129.61  1157.26
eigval :     1167.79  1169.10  1169.17  1174.76  1174.98  1180.69
eigval :     1182.33  1188.87  1189.15  1201.14  1201.33  1215.52
eigval :     1216.45  1231.48  1242.75  1242.75  1252.76  1259.06
eigval :     1259.51  1263.93  1264.57  1267.90  1299.93  1303.43
eigval :     1305.57  1306.19  1306.77  1314.10  1322.89  1334.19
eigval :     1334.77  1353.39  1354.15  1393.39  1397.05  1397.60
eigval :     1416.13  1422.67  1423.15  1431.72  1442.34  1442.41
eigval :     1469.96  1479.31  1481.96  1482.60  1492.46  1503.51
eigval :     1503.89  1540.99  1542.60  1556.48  1556.75  1567.41
eigval :     1567.47  1580.06  1580.16  1586.34  1586.64  1591.18
eigval :     1591.22  1601.12  1603.23  1603.34  3080.02  3080.05
eigval :     3082.50  3082.96  3087.02  3087.12  3087.35  3087.47
eigval :     3095.09  3095.10  3097.22  3097.29  3097.62  3097.67
eigval :     3103.30  3103.38  3104.68  3104.70  3108.19  3108.56
eigval :     3108.84  3109.83  3117.34  3118.05  3119.94  3120.32

   temp. (K)  partition function   enthalpy   heat capacity  entropy
                                   cal/mol     cal/K/mol   cal/K/mol   J/K/mol
 298.15  VIB  0.202E+18            23473.575    150.292    143.977
         ROT  0.434E+08              888.752      2.981     37.927
         INT  0.877E+25            24362.328    153.273    181.903
         TR   0.172E+29             1481.254      4.968     45.414
         TOT                       25843.5817   158.2411   227.3177   951.0973

       T/K    H(0)-H(T)+PV         H(T)/Eh          T*S/Eh         G(T)/Eh
   ------------------------------------------------------------------------
    298.15    0.411844E-01    0.610251E+00    0.108006E+00    0.502245E+00
   ------------------------------------------------------------------------

         :::::::::::::::::::::::::::::::::::::::::::::::::::::
         ::                  THERMODYNAMIC                  ::
         :::::::::::::::::::::::::::::::::::::::::::::::::::::
         :: total free energy        -136.374314170462 Eh   ::
         ::.................................................::
         :: total energy             -136.876559513620 Eh   ::
         :: zero point energy           0.569066952602 Eh   ::
         :: G(RRHO) w/o ZPVE           -0.066821609444 Eh   ::
         :: G(RRHO) contrib.            0.502245343158 Eh   ::
         :::::::::::::::::::::::::::::::::::::::::::::::::::::

           -------------------------------------------------
          | TOTAL ENERGY             -136.876559513620 Eh   |
          | TOTAL ENTHALPY           -136.266308192124 Eh   |
          | TOTAL FREE ENERGY        -136.374314170462 Eh   |
          | GRADIENT NORM               0.000053867586 Eh/α |
          | HOMO-LUMO GAP               0.749435194420 eV   |
           -------------------------------------------------

 * finished run on 2025/09/13 at 22:36:55.164
