   * xtb version 6.7.1 (edcfbbe) compiled by 'albert@albert-system' on 2024-07-22

   ID    Z sym.   atoms
    1    9 F      1, 52
    2    6 C      2-4, 6-10, 12-17, 19-31, 33-38, 40-47, 49-51
    3    7 N      5, 11, 32, 48
    4    8 O      18, 39
    5    1 H      53-78

          program call               : xtb data2507/toluene/DFDBQPXZ/DFDBQPXZ.xyz --gfn 2 --gbsa toluene --ohess vtight --parallel 40 --molden --ceasefiles --namespace data2507/toluene/DFDBQPXZ/DFDBQPXZ_toluene_S0_preOpt
      * Solvation model:               GBSA
        Solvent                        toluene
        Solvent mass                       9.2140E+01 g/mol
          :  Hamiltonian                  GFN2-xTB          :
 * total energy  :  -136.8549752 Eh     change       -0.2342091E-08 Eh
 * total energy  :  -136.8692364 Eh     change       -0.1426122E-01 Eh
 * total energy  :  -136.8743267 Eh     change       -0.5090289E-02 Eh
 * total energy  :  -136.8757480 Eh     change       -0.1421284E-02 Eh
 * total energy  :  -136.8769277 Eh     change       -0.1179688E-02 Eh
 * total energy  :  -136.8774499 Eh     change       -0.5222256E-03 Eh
 * total energy  :  -136.8778425 Eh     change       -0.3926262E-03 Eh
 * total energy  :  -136.8782501 Eh     change       -0.4076060E-03 Eh
 * total energy  :  -136.8787318 Eh     change       -0.4816598E-03 Eh
 * total energy  :  -136.8791955 Eh     change       -0.4636819E-03 Eh
 * total energy  :  -136.8805660 Eh     change       -0.1047985E-05 Eh
 * total energy  :  -136.8805671 Eh     change       -0.1080018E-05 Eh
 * total energy  :  -136.8805681 Eh     change       -0.1076927E-05 Eh
 * total energy  :  -136.8805692 Eh     change       -0.1105776E-05 Eh
 * total energy  :  -136.8805703 Eh     change       -0.1092370E-05 Eh
 * total energy  :  -136.8805714 Eh     change       -0.1106110E-05 Eh
 * total energy  :  -136.8805725 Eh     change       -0.1079525E-05 Eh
 * total energy  :  -136.8805736 Eh     change       -0.1079739E-05 Eh
 * total energy  :  -136.8805736 Eh     change       -0.7970328E-08 Eh
   *** GEOMETRY OPTIMIZATION CONVERGED AFTER 94 ITERATIONS ***

 final structure:
================
78
 xtb: 6.7.1 (edcfbbe)
F           -1.26352659619264        9.32878122306886       -0.48211113668423
C           -0.66022398147070        8.14546489032960       -0.24950711514290
C           -1.32741831904439        6.97767934606207       -0.48908126493398
C           -0.67463505526880        5.75714061901712       -0.22975232657380
N           -1.34197641120985        4.59584248090246       -0.35795681923800
C           -0.70789374249894        3.46907783098083       -0.13166978356558
C           -1.50819847765726        2.24301745383238       -0.13623868654200
C           -1.27085212357430        1.21865948924960        0.78206864195808
C           -2.02145412412334        0.06277018939849        0.74536688481664
C           -3.02427292748474       -0.09558160255867       -0.20965911061595
N           -3.75832300644316       -1.29797039552751       -0.26831391953264
C           -5.13502463283162       -1.30893697150240       -0.02893340385487
C           -5.83410736614583       -0.16449692390497        0.33541852246231
C           -7.19912042607664       -0.21177185435293        0.57521745133170
C           -7.88669983410573       -1.40398987511677        0.46711149533829
C           -7.19834449496808       -2.56131160037355        0.13264278197022
C           -5.83716229612221       -2.51932075617913       -0.10641648585011
O           -5.22071633096655       -3.71314090484053       -0.40210230966786
C           -3.86724011912209       -3.68290508674530       -0.64571025134989
C           -3.26315057326511       -4.88414109039804       -0.96890027330440
C           -1.90701142958098       -4.93074466694724       -1.25838274312060
C           -1.16713781678592       -3.76569036157312       -1.23697646521212
C           -1.76768158688537       -2.55983260340777       -0.90812563202926
C           -3.11921377425551       -2.49921091499562       -0.58981173650925
C           -3.29127013749504        0.94062664469335       -1.10196351739987
C           -2.54632908634656        2.10105899166561       -1.05715551232424
C            0.70698912645358        3.46927418386767        0.13165012495521
C            1.50763005909809        2.24343252353335        0.13622035343495
C            2.54578791522096        2.10174720422052        1.05714821673309
C            3.29103631906116        0.94151194425007        1.10196023573916
C            3.02431685178044       -0.09476700878053        0.20965517038970
N            3.75867359907041       -1.29696924992205        0.26832906326717
C            5.13537358379612       -1.30758972029929        0.02892875741337
C            5.83414633805945       -0.16298786080728       -0.33550877765177
C            7.19916821844713       -0.20991730686576       -0.57532604095634
C            7.88706448795282       -1.40194658875021       -0.46715357190842
C            7.19902108806510       -2.55942969593473       -0.13260022746673
C            5.83783254381769       -2.51778272501975        0.10648207073130
O            5.22170722348024       -3.71174334151054        0.40226981063704
C            3.86821461908273       -3.68185787293178        0.64583134662886
C            3.26443665443699       -4.88324070984476        0.96905743624424
C            1.90830254982934       -4.93019328488694        1.25850957781035
C            1.16811890320766       -3.76533728205239        1.23702774819372
C            1.76834830264773       -2.55933509032486        0.90813157902419
C            3.11987415818897       -2.49836558030652        0.58985886943257
C            2.02147208556337        0.06332420519279       -0.74538628910082
C            1.27056844118217        1.21901749752003       -0.78209666300919
N            1.34076112235416        4.59621455662589        0.35792936987795
C            0.67310122656164        5.75732821489096        0.22971033469467
C            1.32554985478923        6.97804926708268        0.48902223015539
C            0.65803731551331        8.14564877620560        0.24942717730418
F            1.26102006610023        9.32913335975540        0.48200474324816
H           -2.34102868221334        6.98054197948059       -0.85544101539092
H           -0.51364810379717        1.33968963602378        1.54157950193246
H           -1.84079707642858       -0.72608075145002        1.45984287620786
H           -5.30687904053963        0.77047620959286        0.44030887496485
H           -7.71680426250053        0.69374201399308        0.85213968766046
H           -8.94894406847698       -1.44671916215597        0.64944914315298
H           -7.70087571147669       -3.51289661801943        0.05729348468678
H           -3.87476090961325       -5.77243271237124       -0.99370086709498
H           -1.44355719200971       -5.87244061708543       -1.50673470732553
H           -0.11451313720545       -3.78482420843017       -1.47222086348395
H           -1.17986408015027       -1.65604707175593       -0.90352853111669
H           -4.07660372369867        0.82400550172018       -1.83372447947001
H           -2.74016270913658        2.90447352329065       -1.75064199430095
H            2.73940359381896        2.90521285135247        1.75063647123950
H            4.07639543689354        0.82509614252236        1.83372647874094
H            5.30666841193183        0.77184014126996       -0.44044114800554
H            7.71660693029049        0.69571347973726       -0.85232351783243
H            8.94931392152985       -1.44441011955989       -0.64952331154446
H            7.70180428891702       -3.51087781111433       -0.05720342294413
H            3.87628489928507       -5.77136708012875        0.99391435833554
H            1.44508932865588       -5.87200535420011        1.50687168575620
H            0.11548664215191       -3.78474357932836        1.47221479727380
H            1.18028710324948       -1.65570873922975        0.90346759045244
H            1.84103472339476       -0.72557070361328       -1.45986941102546
H            0.51333981245342        1.33984930806437       -1.54161486270640
H            2.33915962083201        6.98119577574127        0.85538125159029

          :  Hamiltonian                  GFN2-xTB          :
         :: gradient norm              0.000071530710 Eh/a0 ::
         :: HOMO-LUMO gap              0.782066483042 eV    ::
         :: SCC energy              -139.106066234762 Eh    ::
         :: -> dispersion             -0.115807034448 Eh    ::
         :: -> Gsolv                  -0.051212883131 Eh    ::
         :: repulsion energy           2.225492622006 Eh    ::

    * Orbital Energies and Occupations

         #    Occupation            Energy/Eh            Energy/eV
      -------------------------------------------------------------
         1        2.0000           -0.8459814             -23.0203
       ...           ...                  ...                  ...
       112        2.0000           -0.4250598             -11.5665
       113        2.0000           -0.4219504             -11.4819
       114        2.0000           -0.4201111             -11.4318
       115        2.0000           -0.4178912             -11.3714
       116        2.0000           -0.4167604             -11.3406
       117        2.0000           -0.4147493             -11.2859
       118        2.0000           -0.4144427             -11.2776
       119        2.0000           -0.4072780             -11.0826
       120        2.0000           -0.3928901             -10.6911
       121        2.0000           -0.3916420             -10.6571
       122        2.0000           -0.3741403             -10.1809
       123        2.0000           -0.3463948              -9.4259
       124        2.0000           -0.3455965              -9.4042 (HOMO)
       125        0.0000           -0.3168561              -8.6221 (LUMO)
       126                         -0.2868364              -7.8052
       127                         -0.2498402              -6.7985
       128                         -0.2474982              -6.7348
       129                         -0.2432625              -6.6195
       130                         -0.2407178              -6.5503
       131                         -0.2406135              -6.5474
       132                         -0.2392699              -6.5109
       133                         -0.2339610              -6.3664
       134                         -0.2318448              -6.3088
       135                         -0.2312338              -6.2922
       ...                                ...                  ...
       234                          0.6729776              18.3127
      -------------------------------------------------------------
                  HL-Gap            0.0287404 Eh            0.7821 eV

     #   Z          covCN         q      C6AA      α(0)
     1   9 F        0.787    -0.216    11.400     3.988
     2   6 C        2.778     0.156    24.617     8.126
     3   6 C        2.917    -0.062    29.533     8.912
     4   6 C        2.964     0.075    26.322     8.415
     5   7 N        1.851    -0.229    26.854     7.680
     6   6 C        2.949     0.089    26.022     8.367
     7   6 C        2.980     0.003    27.956     8.673
     8   6 C        2.922    -0.029    28.715     8.788
     9   6 C        2.920    -0.039    28.960     8.825
    10   6 C        2.921     0.069    26.454     8.434
    11   7 N        2.751    -0.068    22.568     7.056
    12   6 C        2.921     0.042    27.069     8.532
    13   6 C        2.923    -0.061    29.507     8.908
    14   6 C        2.919    -0.039    28.962     8.825
    15   6 C        2.919    -0.041    29.009     8.832
    16   6 C        2.919    -0.058    29.434     8.897
    17   6 C        2.882     0.123    25.305     8.247
    18   8 O        1.708    -0.271    18.499     5.807
    19   6 C        2.882     0.123    25.301     8.246
    20   6 C        2.919    -0.057    29.426     8.896
    21   6 C        2.919    -0.040    28.998     8.831
    22   6 C        2.919    -0.037    28.927     8.820
    23   6 C        2.924    -0.060    29.500     8.907
    24   6 C        2.922     0.041    27.076     8.533
    25   6 C        2.919    -0.038    28.939     8.822
    26   6 C        2.924    -0.024    28.610     8.772
    27   6 C        2.949     0.089    26.022     8.367
    28   6 C        2.980     0.003    27.956     8.673
    29   6 C        2.924    -0.024    28.610     8.772
    30   6 C        2.919    -0.038    28.939     8.822
    31   6 C        2.921     0.069    26.454     8.434
    32   7 N        2.751    -0.069    22.568     7.056
    33   6 C        2.921     0.042    27.069     8.532
    34   6 C        2.923    -0.061    29.507     8.908
    35   6 C        2.919    -0.039    28.962     8.825
    36   6 C        2.919    -0.041    29.009     8.832
    37   6 C        2.919    -0.058    29.434     8.897
    38   6 C        2.882     0.123    25.305     8.247
    39   8 O        1.708    -0.271    18.499     5.807
    40   6 C        2.882     0.123    25.301     8.246
    41   6 C        2.919    -0.057    29.426     8.896
    42   6 C        2.919    -0.040    28.998     8.831
    43   6 C        2.919    -0.037    28.927     8.820
    44   6 C        2.924    -0.060    29.500     8.907
    45   6 C        2.922     0.041    27.076     8.533
    46   6 C        2.920    -0.039    28.960     8.825
    47   6 C        2.922    -0.029    28.715     8.788
    48   7 N        1.851    -0.229    26.854     7.680
    49   6 C        2.964     0.075    26.322     8.415
    50   6 C        2.917    -0.062    29.533     8.912
    51   6 C        2.778     0.156    24.617     8.126
    52   9 F        0.787    -0.216    11.400     3.988
    53   1 H        0.926     0.095     1.835     2.119
    54   1 H        0.926     0.043     2.405     2.425
    55   1 H        0.926     0.053     2.287     2.365
    56   1 H        0.926     0.042     2.429     2.437
    57   1 H        0.926     0.042     2.424     2.435
    58   1 H        0.926     0.042     2.423     2.434
    59   1 H        0.926     0.048     2.349     2.397
    60   1 H        0.926     0.048     2.346     2.395
    61   1 H        0.926     0.042     2.418     2.432
    62   1 H        0.926     0.041     2.435     2.440
    63   1 H        0.926     0.040     2.445     2.445
    64   1 H        0.926     0.054     2.265     2.354
    65   1 H        0.926     0.059     2.210     2.325
    66   1 H        0.926     0.059     2.210     2.325
    67   1 H        0.926     0.054     2.265     2.354
    68   1 H        0.926     0.042     2.429     2.437
    69   1 H        0.926     0.042     2.424     2.435
    70   1 H        0.926     0.042     2.423     2.434
    71   1 H        0.926     0.048     2.349     2.397
    72   1 H        0.926     0.048     2.346     2.395
    73   1 H        0.926     0.042     2.418     2.432
    74   1 H        0.926     0.041     2.435     2.440
    75   1 H        0.926     0.040     2.445     2.445
    76   1 H        0.926     0.053     2.287     2.365
    77   1 H        0.926     0.043     2.405     2.425
    78   1 H        0.926     0.095     1.835     2.119

molecular dipole:
                 x           y           z       tot (Debye)
 q only:        0.000      -1.726      -0.000
   full:        0.000      -1.509      -0.000       3.834

 projected vibrational frequencies (cm⁻¹)
eigval :       -0.00    -0.00    -0.00     0.00     0.00     0.00
eigval :       13.05    13.45    20.38    28.18    28.87    32.13
eigval :       40.82    45.44    48.29    53.24    67.72    69.35
eigval :       74.21    86.12   115.54   117.80   120.89   125.12
eigval :      132.08   140.41   173.22   190.30   199.06   214.04
eigval :      234.33   244.93   245.14   252.56   253.30   256.82
eigval :      258.53   277.43   278.08   310.70   333.23   342.58
eigval :      349.56   366.07   373.09   380.65   385.51   388.62
eigval :      395.26   396.08   400.37   412.71   418.34   423.96
eigval :      430.72   430.81   442.31   447.26   455.05   466.06
eigval :      487.84   504.37   511.10   512.04   516.61   522.97
eigval :      524.65   528.83   550.09   565.34   569.82   580.67
eigval :      588.30   589.63   602.33   604.50   617.81   619.34
eigval :      620.53   648.63   660.26   661.08   662.53   662.55
eigval :      669.06   672.01   687.87   702.63   706.37   729.38
eigval :      753.23   762.80   765.95   777.05   778.78   778.82
eigval :      779.31   799.39   800.36   821.61   821.72   837.85
eigval :      852.73   853.18   855.65   861.53   863.67   865.24
eigval :      865.86   872.20   873.44   876.53   896.91   897.58
eigval :      898.20   898.84   905.95   913.52   914.17   915.32
eigval :      916.35   916.51   916.57   918.56   923.63   925.75
eigval :      930.99   932.02   973.79  1007.89  1031.82  1089.53
eigval :     1089.53  1089.68  1090.50  1091.00  1091.30  1105.51
eigval :     1105.83  1117.28  1117.80  1133.24  1134.51  1157.77
eigval :     1167.04  1168.41  1169.12  1173.63  1174.02  1182.31
eigval :     1182.93  1187.83  1190.61  1197.46  1198.31  1217.68
eigval :     1219.62  1240.90  1241.08  1256.78  1258.77  1259.13
eigval :     1260.27  1263.24  1264.11  1274.10  1303.79  1304.02
eigval :     1305.05  1311.11  1311.46  1313.10  1332.54  1332.62
eigval :     1333.63  1351.67  1352.82  1384.83  1399.04  1401.02
eigval :     1415.46  1422.21  1422.43  1432.21  1440.94  1441.57
eigval :     1469.66  1478.59  1480.09  1480.54  1482.43  1500.99
eigval :     1502.23  1502.27  1527.59  1551.83  1552.30  1566.21
eigval :     1566.28  1578.82  1579.01  1579.78  1583.49  1588.26
eigval :     1589.17  1595.27  1601.47  1601.66  3087.68  3087.77
eigval :     3087.77  3088.71  3090.52  3090.55  3091.44  3091.83
eigval :     3096.40  3096.43  3097.13  3098.04  3099.20  3100.12
eigval :     3103.79  3103.93  3105.10  3105.18  3105.47  3105.68
eigval :     3109.51  3109.58  3110.73  3111.89  3119.64  3120.00

   temp. (K)  partition function   enthalpy   heat capacity  entropy
                                   cal/mol     cal/K/mol   cal/K/mol   J/K/mol
 298.15  VIB  0.689E+18            23536.519    149.667    144.770
         ROT  0.613E+08              888.752      2.981     38.614
         INT  0.422E+26            24425.271    152.648    183.384
         TR   0.172E+29             1481.254      4.968     45.414
         TOT                       25906.5250   157.6159   228.7979   957.2906

       T/K    H(0)-H(T)+PV         H(T)/Eh          T*S/Eh         G(T)/Eh
   ------------------------------------------------------------------------
    298.15    0.412847E-01    0.610085E+00    0.108709E+00    0.501376E+00
   ------------------------------------------------------------------------

         :::::::::::::::::::::::::::::::::::::::::::::::::::::
         ::                  THERMODYNAMIC                  ::
         :::::::::::::::::::::::::::::::::::::::::::::::::::::
         :: total free energy        -136.379197757462 Eh   ::
         ::.................................................::
         :: total energy             -136.880573610433 Eh   ::
         :: zero point energy           0.568800458531 Eh   ::
         :: G(RRHO) w/o ZPVE           -0.067424605560 Eh   ::
         :: G(RRHO) contrib.            0.501375852971 Eh   ::
         :::::::::::::::::::::::::::::::::::::::::::::::::::::

           -------------------------------------------------
          | TOTAL ENERGY             -136.880573610433 Eh   |
          | TOTAL ENTHALPY           -136.270488476425 Eh   |
          | TOTAL FREE ENERGY        -136.379197757462 Eh   |
          | GRADIENT NORM               0.000071532501 Eh/α |
          | HOMO-LUMO GAP               0.782066609802 eV   |
           -------------------------------------------------

 * finished run on 2025/09/13 at 22:31:56.993
