   * xtb version 6.7.1 (edcfbbe) compiled by 'albert@albert-system' on 2024-07-22

   ID    Z sym.   atoms
    1    9 F      1, 52
    2    6 C      2-4, 6-10, 12-17, 19-31, 33-38, 40-47, 49-51
    3    7 N      5, 11, 32, 48
    4    8 O      18, 39
    5    1 H      53-78

          program call               : xtb data2507/toluene/DFDBQPXZ/DFDBQPXZ_toluene_S0_finalOpt.xtbopt.xyz --gfn 2 --uhf 2 --gbsa toluene --ohess vtight --parallel 40 --molden --ceasefiles --namespace data2507/toluene/DFDBQPXZ/DFDBQPXZ_toluene_T1_preOpt
      * Solvation model:               GBSA
        Solvent                        toluene
        Solvent mass                       9.2140E+01 g/mol
          :  Hamiltonian                  GFN2-xTB          :
 * total energy  :  -136.8216746 Eh     change       -0.6078693E-08 Eh
 * total energy  :  -136.8252266 Eh     change       -0.3552038E-02 Eh
 * total energy  :  -136.8262356 Eh     change       -0.1008964E-02 Eh
 * total energy  :  -136.8263317 Eh     change       -0.9611988E-04 Eh
 * total energy  :  -136.8263728 Eh     change       -0.4105854E-04 Eh
 * total energy  :  -136.8263839 Eh     change       -0.1110903E-04 Eh
 * total energy  :  -136.8263949 Eh     change       -0.1102037E-04 Eh
 * total energy  :  -136.8264085 Eh     change       -0.1363246E-04 Eh
 * total energy  :  -136.8264252 Eh     change       -0.1661448E-04 Eh
 * total energy  :  -136.8264414 Eh     change       -0.1621691E-04 Eh
 * total energy  :  -136.8265480 Eh     change       -0.1115744E-05 Eh
 * total energy  :  -136.8265492 Eh     change       -0.1224504E-05 Eh
 * total energy  :  -136.8265505 Eh     change       -0.1301205E-05 Eh
 * total energy  :  -136.8265519 Eh     change       -0.1419024E-05 Eh
 * total energy  :  -136.8265534 Eh     change       -0.1509940E-05 Eh
 * total energy  :  -136.8265550 Eh     change       -0.1567738E-05 Eh
 * total energy  :  -136.8265566 Eh     change       -0.1650147E-05 Eh
 * total energy  :  -136.8265585 Eh     change       -0.1894514E-05 Eh
 * total energy  :  -136.8265585 Eh     change       -0.7482555E-08 Eh
   *** GEOMETRY OPTIMIZATION CONVERGED AFTER 68 ITERATIONS ***

 final structure:
================
78
 xtb: 6.7.1 (edcfbbe)
F           -9.34347032880888       -1.20324766410822       -0.66722204434491
C           -8.16549224590219       -0.60688137948830       -0.33520092227937
C           -6.97423846126556       -1.23279422239573       -0.67582481754108
C           -5.75756580921284       -0.63862728917884       -0.34062811133894
N           -4.59306690645646       -1.24156756507238       -0.61767854814147
C           -3.44918631686330       -0.63810745770031       -0.29562094680036
C           -2.14776585000340       -1.29971125303306       -0.48278954629110
C           -1.38675286181784       -1.58891636464398        0.65032983925049
C           -0.08500439331391       -2.02515328239005        0.53254220542011
C            0.49082718437141       -2.15227922544845       -0.72789039527257
N            1.87625560982914       -2.43374250199851       -0.83213125785788
C            2.39777129017515       -3.61590158881496       -0.31759432392364
C            1.57970733175933       -4.66601093455215        0.09030775083180
C            2.12919633948997       -5.83272949947341        0.59329906023346
C            3.50266682156167       -5.97593480635039        0.69064151465358
C            4.33243936583803       -4.95053510088873        0.26603192037383
C            3.78981128381826       -3.78193413385840       -0.24112807692496
O            4.66420178050350       -2.81616408594589       -0.66428909533955
C            4.13815104547632       -1.65533704944816       -1.16069843922498
C            5.03410661012774       -0.68089819444910       -1.56688664433177
C            4.57398216739001        0.53088654465338       -2.05434261939102
C            3.21238177516283        0.76476411569322       -2.12596672797634
C            2.31089634337585       -0.20648117569416       -1.72601441541070
C            2.75395995006935       -1.43591309170064       -1.24824525847784
C           -0.28810576702664       -1.95214770839466       -1.86344380244352
C           -1.60308798374266       -1.54148162559776       -1.74025623270141
C           -3.44950812937942        0.63522851484605        0.29366186368990
C           -2.14847016908692        1.29756179642155        0.48078073305121
C           -1.60411761952269        1.53981108941408        1.73830088079714
C           -0.28936703533033        1.95115245357373        1.86163557270394
C            0.48962867440936        2.15153014892161        0.72617021675723
N            1.87490270175749        2.43369999628510        0.83060810442416
C            2.39587178280002        3.61618811887284        0.31629361307675
C            1.57730566053340        4.66590824057973       -0.09159858488134
C            2.12624845987649        5.83298614759554       -0.59435212406202
C            3.49965766746211        5.97693000938288       -0.69147149071593
C            4.32991566116476        4.95191477870904       -0.26687800179805
C            3.78783554823654        3.78295781528982        0.24004728950139
O            4.66266441730044        2.81757892902009        0.66319909880985
C            4.13714303724385        1.65644419647738        1.15945537787825
C            5.03353544259389        0.68243755460480        1.56571454828095
C            4.57395755922746       -0.52961079273925        2.05303409034133
C            3.21246752812754       -0.76418949427544        2.12445805467788
C            2.31054228206821        0.20661659018190        1.72442994841894
C            2.75305232754080        1.43629885347901        1.24678847668706
C           -0.08594327480346        2.02395689758246       -0.53433545361451
C           -1.38744021463210        1.58700237772846       -0.65226894728992
N           -4.59370111331326        1.23788333279616        0.61613463940930
C           -5.75786995461859        0.63417297209601        0.33942368830379
C           -6.97479826122965        1.22762161093834        0.67496138346958
C           -8.16577132259263        0.60105331465128        0.33458899885922
F           -9.34401560198571        1.19677473238931        0.66681631312364
H           -6.98928056686718       -2.17928791169491       -1.18957440779306
H           -1.82081945458239       -1.45024658335645        1.62909340617376
H            0.50080001879993       -2.24269398514895        1.41228882018076
H            0.50920275595667       -4.56505337669835        0.00650497734363
H            1.47584417323171       -6.63236069063302        0.90578129936273
H            3.93163874928712       -6.88282154090814        1.08611591576836
H            5.40619277852618       -5.03708270958004        0.31544865865482
H            6.08832860321513       -0.89127531797340       -1.48549138512695
H            5.27727953843133        1.28632940344037       -2.36674881937133
H            2.84596335017030        1.70984485508488       -2.49748742845335
H            1.25194261290567       -0.01337859949531       -1.77346475441418
H            0.14587704308395       -2.09948036575222       -2.84119443766664
H           -2.20338907641894       -1.37014873218970       -2.62101840663816
H           -2.20448808410981        1.36829435505387        2.61897951673079
H            0.14440236142368        2.09882860947372        2.83942799680852
H            0.50684413869322        4.56435281025986       -0.00796509131292
H            1.47252276182414        6.63231770532245       -0.90682196009428
H            3.92820639823487        6.88409809054814       -1.08675976889314
H            5.40362914259094        5.03904607417185       -0.31612965458682
H            6.08766223951493        0.89335272841911        1.48449006178618
H            5.27759817735144       -1.28470871219641        2.36550082885366
H            2.84648240700202       -1.70947636537764        2.49588249429605
H            1.25167804661766        0.01297813242973        1.77172433048845
H            0.49987831970694        2.24172930461926       -1.41401312417884
H           -1.82128372930115        1.44797617034913       -1.63108017173004
H           -6.99020879344501        2.17409784536055        1.18873206902897

          :  Hamiltonian                  GFN2-xTB          :
         :: gradient norm              0.000071042507 Eh/a0 ::
         :: HOMO-LUMO gap              0.930620290334 eV    ::
         :: SCC energy              -139.047423319231 Eh    ::
         :: -> dispersion             -0.129013229736 Eh    ::
         :: -> Gsolv                  -0.056566166696 Eh    ::
         :: repulsion energy           2.220864790140 Eh    ::

    * Orbital Energies and Occupations

         #    Occupation            Energy/Eh            Energy/eV
      -------------------------------------------------------------
         1        2.0000           -0.8215292             -22.3549
       ...           ...                  ...                  ...
       113        2.0000           -0.4266505             -11.6098
       114        2.0000           -0.4234873             -11.5237
       115        2.0000           -0.4232266             -11.5166
       116        2.0000           -0.4207452             -11.4491
       117        2.0000           -0.4164858             -11.3332
       118        2.0000           -0.4051130             -11.0237
       119        2.0000           -0.4043098             -11.0018
       120        2.0000           -0.4011924             -10.9170
       121        2.0000           -0.3981705             -10.8348
       122        1.9413           -0.3587932              -9.7633
       123        1.8338           -0.3576887              -9.7332
       124        1.2249           -0.3549810              -9.6595
       125        1.0000           -0.2946362              -8.0175 (HOMO)
       126                         -0.2604364              -7.0868 (LUMO)
       127                         -0.2554020              -6.9498
       128                         -0.2522898              -6.8652
       129                         -0.2492331              -6.7820
       130                         -0.2453532              -6.6764
       131                         -0.2442786              -6.6472
       132                         -0.2414524              -6.5703
       133                         -0.2413906              -6.5686
       134                         -0.2350592              -6.3963
       135                         -0.2283355              -6.2133
       136                         -0.2258348              -6.1453
       ...                                ...                  ...
       234                          0.6696071              18.2209
      -------------------------------------------------------------
                  HL-Gap            0.0341999 Eh            0.9306 eV

     #   Z          covCN         q      C6AA      α(0)
     1   9 F        0.786    -0.250    11.760     4.051
     2   6 C        2.775     0.132    25.107     8.207
     3   6 C        2.919    -0.093    30.326     9.031
     4   6 C        2.948     0.081    26.190     8.394
     5   7 N        1.845    -0.255    27.499     7.772
     6   6 C        2.945     0.069    26.451     8.435
     7   6 C        2.979     0.009    27.819     8.652
     8   6 C        2.927    -0.032    28.803     8.801
     9   6 C        2.920    -0.039    28.977     8.828
    10   6 C        2.923     0.057    26.719     8.477
    11   7 N        2.751    -0.042    22.062     6.976
    12   6 C        2.924     0.043    27.031     8.526
    13   6 C        2.922    -0.053    29.328     8.881
    14   6 C        2.918    -0.033    28.817     8.803
    15   6 C        2.919    -0.033    28.830     8.805
    16   6 C        2.918    -0.053    29.320     8.879
    17   6 C        2.884     0.128    25.203     8.230
    18   8 O        1.709    -0.242    18.003     5.729
    19   6 C        2.885     0.128    25.195     8.229
    20   6 C        2.919    -0.054    29.348     8.884
    21   6 C        2.919    -0.034    28.852     8.808
    22   6 C        2.919    -0.035    28.861     8.810
    23   6 C        2.923    -0.059    29.477     8.904
    24   6 C        2.925     0.042    27.067     8.532
    25   6 C        2.920    -0.038    28.948     8.823
    26   6 C        2.922    -0.027    28.671     8.781
    27   6 C        2.945     0.069    26.451     8.435
    28   6 C        2.979     0.009    27.819     8.652
    29   6 C        2.922    -0.027    28.671     8.781
    30   6 C        2.920    -0.038    28.948     8.823
    31   6 C        2.923     0.057    26.719     8.477
    32   7 N        2.751    -0.042    22.062     6.976
    33   6 C        2.924     0.043    27.031     8.526
    34   6 C        2.922    -0.053    29.328     8.881
    35   6 C        2.918    -0.033    28.817     8.803
    36   6 C        2.919    -0.033    28.830     8.805
    37   6 C        2.918    -0.053    29.320     8.879
    38   6 C        2.884     0.128    25.203     8.230
    39   8 O        1.709    -0.242    18.003     5.729
    40   6 C        2.885     0.128    25.195     8.229
    41   6 C        2.919    -0.054    29.348     8.884
    42   6 C        2.919    -0.034    28.852     8.808
    43   6 C        2.919    -0.035    28.861     8.810
    44   6 C        2.923    -0.059    29.477     8.904
    45   6 C        2.925     0.042    27.067     8.532
    46   6 C        2.920    -0.039    28.977     8.828
    47   6 C        2.927    -0.032    28.803     8.801
    48   7 N        1.845    -0.255    27.499     7.772
    49   6 C        2.948     0.081    26.190     8.394
    50   6 C        2.919    -0.093    30.326     9.031
    51   6 C        2.775     0.132    25.107     8.207
    52   9 F        0.786    -0.250    11.760     4.051
    53   1 H        0.926     0.064     2.154     2.295
    54   1 H        0.926     0.042     2.428     2.437
    55   1 H        0.926     0.055     2.263     2.353
    56   1 H        0.926     0.049     2.327     2.385
    57   1 H        0.926     0.051     2.304     2.374
    58   1 H        0.926     0.053     2.282     2.362
    59   1 H        0.926     0.060     2.202     2.321
    60   1 H        0.926     0.061     2.193     2.316
    61   1 H        0.926     0.052     2.294     2.368
    62   1 H        0.926     0.044     2.395     2.420
    63   1 H        0.926     0.049     2.329     2.386
    64   1 H        0.926     0.057     2.236     2.338
    65   1 H        0.926     0.049     2.332     2.388
    66   1 H        0.926     0.049     2.332     2.388
    67   1 H        0.926     0.057     2.236     2.339
    68   1 H        0.926     0.049     2.327     2.385
    69   1 H        0.926     0.051     2.304     2.374
    70   1 H        0.926     0.053     2.282     2.362
    71   1 H        0.926     0.060     2.202     2.321
    72   1 H        0.926     0.061     2.193     2.316
    73   1 H        0.926     0.052     2.294     2.368
    74   1 H        0.926     0.044     2.395     2.420
    75   1 H        0.926     0.049     2.329     2.386
    76   1 H        0.926     0.055     2.263     2.353
    77   1 H        0.926     0.042     2.428     2.437
    78   1 H        0.926     0.064     2.154     2.295

molecular dipole:
                 x           y           z       tot (Debye)
 q only:        8.300       0.002      -0.000
   full:        7.949       0.002      -0.000      20.205

 projected vibrational frequencies (cm⁻¹)
eigval :       -0.00    -0.00    -0.00    -0.00     0.00     0.00
eigval :       -9.26    14.52    17.13    21.42    26.80    38.82
eigval :       46.99    49.20    53.14    60.69    64.42    66.59
eigval :       81.27    94.71   104.05   112.79   116.35   123.25
eigval :      125.29   144.70   184.29   192.64   194.37   199.44
eigval :      226.02   240.11   241.19   242.36   250.63   252.00
eigval :      258.86   276.35   278.07   294.40   318.99   336.54
eigval :      345.23   367.38   373.43   377.42   383.52   388.57
eigval :      391.77   400.94   403.24   409.22   414.17   428.60
eigval :      429.96   431.02   442.77   448.61   456.56   459.99
eigval :      492.06   495.00   504.62   504.88   510.63   522.09
eigval :      527.13   528.14   551.44   560.44   567.39   570.30
eigval :      571.96   586.74   588.84   596.24   608.20   614.48
eigval :      616.34   643.75   645.98   663.87   664.35   666.39
eigval :      667.36   669.70   683.33   688.74   693.83   701.11
eigval :      728.91   729.89   748.22   775.41   777.84   781.10
eigval :      781.40   781.45   782.77   799.47   802.04   818.28
eigval :      818.75   855.51   855.66   860.23   863.82   867.38
eigval :      868.20   869.82   870.19   872.71   896.76   898.88
eigval :      898.89   902.99   903.03   914.46   914.66   916.42
eigval :      916.55   917.65   921.81   922.14   922.94   923.07
eigval :      929.88   931.07   958.74  1008.79  1024.53  1066.08
eigval :     1085.13  1085.16  1091.55  1091.95  1100.01  1111.00
eigval :     1111.05  1117.98  1120.33  1125.50  1127.56  1161.96
eigval :     1167.87  1169.17  1170.03  1174.28  1174.31  1178.85
eigval :     1180.27  1186.79  1189.65  1206.36  1206.61  1209.13
eigval :     1219.65  1225.81  1239.24  1239.33  1256.95  1257.32
eigval :     1259.14  1260.15  1262.88  1272.41  1295.51  1302.19
eigval :     1305.11  1307.22  1307.63  1307.87  1310.93  1312.51
eigval :     1323.54  1324.42  1340.28  1348.01  1370.49  1391.42
eigval :     1397.23  1397.70  1400.86  1419.63  1420.03  1440.87
eigval :     1441.14  1454.20  1454.76  1470.07  1470.15  1476.03
eigval :     1485.59  1489.74  1519.97  1538.31  1550.21  1550.65
eigval :     1561.16  1561.18  1567.81  1568.03  1573.70  1576.23
eigval :     1578.33  1580.79  1588.34  1591.25  3084.92  3085.24
eigval :     3086.41  3086.43  3086.48  3086.77  3094.25  3094.26
eigval :     3096.00  3096.07  3100.65  3100.80  3101.90  3101.91
eigval :     3102.89  3102.99  3108.80  3108.84  3113.67  3113.73
eigval :     3113.82  3115.35  3121.07  3121.21  3121.31  3122.13

   temp. (K)  partition function   enthalpy   heat capacity  entropy
                                   cal/mol     cal/K/mol   cal/K/mol   J/K/mol
 298.15  VIB  0.113E+19            23716.669    151.204    146.498
         ROT  0.445E+08              888.752      2.981     37.976
         INT  0.503E+26            24605.421    154.185    184.474
         TR   0.172E+29             1481.254      4.968     45.414
         TOT                       26086.6748   159.1528   229.8886   961.8537

       T/K    H(0)-H(T)+PV         H(T)/Eh          T*S/Eh         G(T)/Eh
   ------------------------------------------------------------------------
    298.15    0.415718E-01    0.607897E+00    0.109227E+00    0.498670E+00
   ------------------------------------------------------------------------

         :::::::::::::::::::::::::::::::::::::::::::::::::::::
         ::                  THERMODYNAMIC                  ::
         :::::::::::::::::::::::::::::::::::::::::::::::::::::
         :: total free energy        -136.327888784806 Eh   ::
         ::.................................................::
         :: total energy             -136.826558526402 Eh   ::
         :: zero point energy           0.566325453568 Eh   ::
         :: G(RRHO) w/o ZPVE           -0.067655711972 Eh   ::
         :: G(RRHO) contrib.            0.498669741596 Eh   ::
         :::::::::::::::::::::::::::::::::::::::::::::::::::::

           -------------------------------------------------
          | TOTAL ENERGY             -136.826558526402 Eh   |
          | TOTAL ENTHALPY           -136.218661310369 Eh   |
          | TOTAL FREE ENERGY        -136.327888784806 Eh   |
          | GRADIENT NORM               0.000070528918 Eh/α |
          | HOMO-LUMO GAP               0.930626283502 eV   |
           -------------------------------------------------

 * finished run on 2025/09/13 at 22:37:05.264
