   * xtb version 6.7.1 (edcfbbe) compiled by 'albert@albert-system' on 2024-07-22

   ID    Z sym.   atoms
    1    9 F      1, 52
    2    6 C      2-4, 6-10, 12-17, 19-31, 33-38, 40-47, 49-51
    3    7 N      5, 11, 32, 48
    4    8 O      18, 39
    5    1 H      53-78

          program call               : xtb data2507/toluene/DFDBQPXZ/DFDBQPXZ_toluene_T1_crest.xyz --gfn 2 --uhf 2 --gbsa toluene --ohess vtight --parallel 40 --molden --ceasefiles --namespace data2507/toluene/DFDBQPXZ/DFDBQPXZ_toluene_T1_finalOpt
      * Solvation model:               GBSA
        Solvent                        toluene
        Solvent mass                       9.2140E+01 g/mol
          :  Hamiltonian                  GFN2-xTB          :
 * total energy  :  -136.8309080 Eh     change       -0.7584504E-08 Eh
 * total energy  :  -136.8311021 Eh     change       -0.1940758E-03 Eh
 * total energy  :  -136.8312123 Eh     change       -0.1101602E-03 Eh
 * total energy  :  -136.8312307 Eh     change       -0.1846696E-04 Eh
 * total energy  :  -136.8312725 Eh     change       -0.4178395E-04 Eh
 * total energy  :  -136.8312756 Eh     change       -0.3088896E-05 Eh
 * total energy  :  -136.8312991 Eh     change       -0.2347557E-04 Eh
 * total energy  :  -136.8313479 Eh     change       -0.4885175E-04 Eh
 * total energy  :  -136.8313725 Eh     change       -0.2453594E-04 Eh
 * total energy  :  -136.8313857 Eh     change       -0.1319428E-04 Eh
 * total energy  :  -136.8323325 Eh     change       -0.9205493E-06 Eh
 * total energy  :  -136.8323334 Eh     change       -0.9620996E-06 Eh
 * total energy  :  -136.8323344 Eh     change       -0.1024020E-05 Eh
 * total energy  :  -136.8323355 Eh     change       -0.1089292E-05 Eh
 * total energy  :  -136.8323367 Eh     change       -0.1152426E-05 Eh
 * total energy  :  -136.8323378 Eh     change       -0.1145338E-05 Eh
 * total energy  :  -136.8323390 Eh     change       -0.1141542E-05 Eh
 * total energy  :  -136.8323401 Eh     change       -0.1089986E-05 Eh
 * total energy  :  -136.8323401 Eh     change       -0.7118217E-08 Eh
   *** GEOMETRY OPTIMIZATION CONVERGED AFTER 260 ITERATIONS ***

 final structure:
================
78
 xtb: 6.7.1 (edcfbbe)
F           -8.89655337037310       -1.28394245356559       -0.46094742537727
C           -7.71651650714384       -0.64139965628265       -0.24032716917223
C           -6.52783705134050       -1.32363835557603       -0.45247984629135
C           -5.31112877389239       -0.67970571666249       -0.22432566837949
N           -4.14697586387791       -1.32671747733117       -0.35343882614264
C           -2.99345661094021       -0.68468330153095       -0.14552109723801
C           -1.76762977355850       -1.47958144846920       -0.17854613261574
C           -0.75408645931553       -1.28390550251913        0.76406011853676
C            0.40324405514377       -2.03030866844618        0.71417445733173
C            0.57194191702870       -2.99300998152079       -0.27825570504652
N            1.77931298015199       -3.73249826603714       -0.34635519225200
C            1.79004919944140       -5.09833856677090       -0.08750990993345
C            0.64267802822092       -5.79271447616975        0.28736576929804
C            0.69245807234704       -7.15279345461210        0.53879277829930
C            1.88700973270846       -7.84408096641760        0.43086178827547
C            3.04352629590609       -7.16544139447688        0.08231160571279
C            3.00189027398021       -5.80465627213198       -0.17014157378407
O            4.18465672610113       -5.19051172840356       -0.48613547692046
C            4.15906181790816       -3.84288776568008       -0.72816551890496
C            5.36161322833801       -3.23440004691749       -1.04698511770316
C            5.40295298628901       -1.87780110523501       -1.32552752820646
C            4.23468440915859       -1.13615694711150       -1.29709546810902
C            3.02970150270050       -1.73649201059188       -0.97581946717749
C            2.97145474868258       -3.09423412991172       -0.67106250285634
C           -0.44748987831486       -3.22374149063250       -1.19722436986261
C           -1.60851318463031       -2.47983889009697       -1.13979638582825
C           -2.99177769771085        0.69546764421334        0.13010302514401
C           -1.76312876386895        1.48592399977902        0.16893458451646
C           -1.60289719070387        2.48312566119972        1.13306530330021
C           -0.43929098790111        3.22266058525032        1.19521355515953
C            0.58152649222171        2.99052926180225        0.27816247183861
N            1.79131551168890        3.72558238299475        0.35089975207295
C            1.80763734047703        5.09197106724492        0.09517929084664
C            0.66352432629284        5.79159092375188       -0.27988901230185
C            0.71889263172570        7.15202892389462       -0.52818917404122
C            1.91591891451318        7.83849403808689       -0.41691405565813
C            3.06926817451531        7.15464389796690       -0.06805631671366
C            3.02203222943938        5.79347008004028        0.18130146725223
O            4.20196618089034        5.17412441610154        0.49774667711528
C            4.17071633603688        3.82623166981658        0.73761238210322
C            5.37026718600963        3.21261491368570        1.05789474683489
C            5.40580083602829        1.85544045296556        1.33440947238759
C            4.23476435530001        1.11832729031403        1.30243109386936
C            3.03275611898495        1.72379405804523        0.97965708390286
C            2.98037049287801        3.08223426550441        0.67693293871352
C            0.41199637179853        2.03068118880231       -0.71688964420154
C           -0.74787590564803        1.28856226836372       -0.77141505878739
N           -4.14388350559025        1.34179468373089        0.33170294482815
C           -5.30979276563660        0.69918705489591        0.19574077955685
C           -6.52531363816227        1.34785733567721        0.41635034702839
C           -7.71533197931907        0.67024794669401        0.19680943974789
F           -8.89420874863572        1.31746617647086        0.40988720414437
H           -6.54465560751680       -2.35064391991980       -0.77678165640233
H           -0.88801130250638       -0.55478604761253        1.54845801623003
H            1.18013819445650       -1.88131830431501        1.44899529305987
H           -0.29015013453701       -5.26092958255452        0.38605605821006
H           -0.21064336715550       -7.66943687944604        0.82416653981857
H            1.92603984869620       -8.90427394115769        0.62401757661017
H            3.99253938342232       -7.67156866261848        0.00399475697712
H            6.25088735873412       -3.84375038127114       -1.07499050458304
H            6.34275908018387       -1.40954718271140       -1.57077058566773
H            4.25666276731317       -0.08201757502400       -1.52327890991121
H            2.12352109439040       -1.15312861403694       -0.96287807314201
H           -0.32198386502185       -3.98045141453656       -1.95752146942190
H           -2.40297289224767       -2.65056204921150       -1.84976075132668
H           -2.39844627811847        2.65484838665154        1.84157920910161
H           -0.31289982259981        3.97697602106685        1.95773677621528
H           -0.27117954594315        5.26361688760928       -0.38125184601759
H           -0.18178831920538        7.67277121993563       -0.81377396565662
H            1.95930661238755        8.89895514006862       -0.60764976598124
H            4.02009534193400        7.65694269016022        0.01287977330091
H            6.26183659086242        3.81846138279654        1.08866583182812
H            6.34328411618724        1.38319050564238        1.58085245719276
H            4.25229501264683        0.06376402558600        1.52701334008696
H            2.12436084024001        1.14394255736221        0.96391378826834
H            1.19024551489409        1.88051478378761       -1.45003019172763
H           -0.88248237510233        0.56147351318638       -1.55759863371558
H           -6.54013791483878        2.37495472950208        0.74045968064805

          :  Hamiltonian                  GFN2-xTB          :
         :: gradient norm              0.000070608882 Eh/a0 ::
         :: HOMO-LUMO gap              0.725437327937 eV    ::
         :: SCC energy              -139.051015224315 Eh    ::
         :: -> dispersion             -0.115561155306 Eh    ::
         :: -> Gsolv                  -0.061452895757 Eh    ::
         :: repulsion energy           2.218675155104 Eh    ::

    * Orbital Energies and Occupations

         #    Occupation            Energy/Eh            Energy/eV
      -------------------------------------------------------------
         1        2.0000           -0.8216347             -22.3578
       ...           ...                  ...                  ...
       113        2.0000           -0.4251704             -11.5695
       114        2.0000           -0.4246185             -11.5545
       115        2.0000           -0.4204321             -11.4405
       116        2.0000           -0.4193316             -11.4106
       117        2.0000           -0.4154208             -11.3042
       118        2.0000           -0.4036786             -10.9847
       119        2.0000           -0.4036365             -10.9835
       120        2.0000           -0.3965434             -10.7905
       121        2.0000           -0.3943435             -10.7306
       122        1.8972           -0.3569443              -9.7129
       123        1.6501           -0.3554748              -9.6730
       124        1.4528           -0.3547064              -9.6521
       125        1.0000           -0.2962622              -8.0617 (HOMO)
       126        0.0000           -0.2696029              -7.3363 (LUMO)
       127                         -0.2529852              -6.8841
       128                         -0.2519176              -6.8550
       129                         -0.2441512              -6.6437
       130                         -0.2416242              -6.5749
       131                         -0.2410490              -6.5593
       132                         -0.2403108              -6.5392
       133                         -0.2356929              -6.4135
       134                         -0.2295968              -6.2476
       135                         -0.2254911              -6.1359
       136                         -0.2226877              -6.0596
       ...                                ...                  ...
       234                          0.6808418              18.5266
      -------------------------------------------------------------
                  HL-Gap            0.0266593 Eh            0.7254 eV

     #   Z          covCN         q      C6AA      α(0)
     1   9 F        0.786    -0.250    11.763     4.051
     2   6 C        2.775     0.131    25.108     8.207
     3   6 C        2.919    -0.092    30.302     9.027
     4   6 C        2.944     0.081    26.197     8.394
     5   7 N        1.850    -0.260    27.616     7.788
     6   6 C        2.935     0.071    26.422     8.430
     7   6 C        2.978     0.008    27.835     8.654
     8   6 C        2.923    -0.033    28.820     8.804
     9   6 C        2.919    -0.039    28.969     8.826
    10   6 C        2.922     0.056    26.752     8.482
    11   7 N        2.752    -0.040    22.010     6.968
    12   6 C        2.923     0.044    27.013     8.523
    13   6 C        2.922    -0.054    29.346     8.884
    14   6 C        2.918    -0.033    28.813     8.802
    15   6 C        2.919    -0.033    28.833     8.805
    16   6 C        2.918    -0.054    29.332     8.881
    17   6 C        2.884     0.128    25.202     8.230
    18   8 O        1.709    -0.244    18.042     5.735
    19   6 C        2.884     0.128    25.194     8.229
    20   6 C        2.918    -0.053    29.323     8.880
    21   6 C        2.919    -0.033    28.831     8.805
    22   6 C        2.918    -0.032    28.800     8.800
    23   6 C        2.922    -0.055    29.363     8.886
    24   6 C        2.924     0.043    27.025     8.525
    25   6 C        2.918    -0.038    28.933     8.821
    26   6 C        2.924    -0.027    28.687     8.783
    27   6 C        2.935     0.071    26.420     8.430
    28   6 C        2.978     0.008    27.834     8.654
    29   6 C        2.924    -0.027    28.687     8.783
    30   6 C        2.918    -0.038    28.933     8.821
    31   6 C        2.922     0.056    26.751     8.482
    32   7 N        2.752    -0.040    22.010     6.968
    33   6 C        2.923     0.044    27.013     8.523
    34   6 C        2.922    -0.054    29.347     8.884
    35   6 C        2.918    -0.033    28.813     8.802
    36   6 C        2.919    -0.033    28.833     8.805
    37   6 C        2.918    -0.054    29.332     8.881
    38   6 C        2.884     0.128    25.202     8.230
    39   8 O        1.709    -0.244    18.043     5.735
    40   6 C        2.884     0.128    25.194     8.229
    41   6 C        2.918    -0.053    29.323     8.880
    42   6 C        2.919    -0.033    28.831     8.805
    43   6 C        2.918    -0.032    28.800     8.800
    44   6 C        2.922    -0.055    29.363     8.886
    45   6 C        2.924     0.043    27.025     8.525
    46   6 C        2.919    -0.039    28.969     8.826
    47   6 C        2.923    -0.033    28.819     8.803
    48   7 N        1.850    -0.260    27.615     7.788
    49   6 C        2.944     0.081    26.197     8.395
    50   6 C        2.919    -0.092    30.301     9.027
    51   6 C        2.775     0.131    25.109     8.207
    52   9 F        0.786    -0.250    11.763     4.051
    53   1 H        0.926     0.064     2.158     2.297
    54   1 H        0.926     0.040     2.452     2.449
    55   1 H        0.926     0.051     2.303     2.373
    56   1 H        0.926     0.050     2.324     2.384
    57   1 H        0.926     0.050     2.315     2.380
    58   1 H        0.926     0.052     2.294     2.368
    59   1 H        0.926     0.059     2.216     2.328
    60   1 H        0.926     0.059     2.215     2.327
    61   1 H        0.926     0.054     2.275     2.359
    62   1 H        0.926     0.051     2.309     2.376
    63   1 H        0.926     0.050     2.317     2.381
    64   1 H        0.926     0.051     2.307     2.375
    65   1 H        0.926     0.051     2.313     2.378
    66   1 H        0.926     0.051     2.313     2.378
    67   1 H        0.926     0.051     2.306     2.375
    68   1 H        0.926     0.050     2.324     2.384
    69   1 H        0.926     0.050     2.315     2.380
    70   1 H        0.926     0.052     2.294     2.368
    71   1 H        0.926     0.059     2.216     2.328
    72   1 H        0.926     0.059     2.215     2.327
    73   1 H        0.926     0.054     2.275     2.359
    74   1 H        0.926     0.051     2.309     2.376
    75   1 H        0.926     0.050     2.318     2.381
    76   1 H        0.926     0.051     2.303     2.373
    77   1 H        0.926     0.040     2.452     2.449
    78   1 H        0.926     0.064     2.158     2.297

molecular dipole:
                 x           y           z       tot (Debye)
 q only:        8.023      -0.014       0.021
   full:        7.638      -0.014       0.020      19.413

 projected vibrational frequencies (cm⁻¹)
eigval :       -0.00    -0.00    -0.00    -0.00     0.00     0.00
eigval :        9.55    13.78    19.98    27.87    29.88    31.23
eigval :       41.14    46.62    48.44    56.35    67.83    69.40
eigval :       71.33    82.82   113.71   116.83   118.53   121.34
eigval :      131.40   138.15   177.56   191.33   199.04   200.59
eigval :      236.90   238.93   242.15   243.41   249.58   250.40
eigval :      257.45   277.66   278.21   295.29   317.47   339.58
eigval :      348.71   360.18   374.09   377.96   384.15   385.53
eigval :      391.79   400.96   404.62   409.97   414.74   424.85
eigval :      431.08   431.42   436.99   452.60   455.37   461.43
eigval :      484.60   503.52   504.00   504.36   513.40   521.91
eigval :      527.40   527.85   546.88   560.62   564.25   565.26
eigval :      567.63   586.74   587.94   600.04   603.70   613.47
eigval :      618.22   640.73   647.42   664.82   665.77   668.71
eigval :      669.09   669.27   682.34   688.36   696.65   697.44
eigval :      726.10   732.95   749.01   777.11   777.91   778.89
eigval :      779.31   796.63   798.13   798.66   800.92   814.34
eigval :      817.00   854.58   855.05   863.00   865.38   867.67
eigval :      868.44   870.36   870.59   871.45   898.55   901.14
eigval :      901.88   902.35   902.62   912.31   913.65   916.09
eigval :      916.73   917.64   918.35   918.61   921.10   921.39
eigval :      926.90   928.34   961.08  1007.55  1023.83  1065.96
eigval :     1085.70  1085.83  1087.23  1087.40  1096.71  1110.47
eigval :     1110.82  1117.62  1119.17  1129.58  1130.61  1160.44
eigval :     1163.78  1167.35  1168.88  1172.94  1173.65  1179.61
eigval :     1181.13  1185.58  1191.06  1203.76  1204.16  1211.69
eigval :     1219.54  1231.75  1237.73  1238.01  1249.44  1254.41
eigval :     1255.61  1260.51  1262.53  1277.84  1282.81  1306.71
eigval :     1307.13  1307.79  1309.44  1310.20  1312.53  1312.57
eigval :     1322.07  1323.53  1339.82  1347.18  1369.63  1393.22
eigval :     1399.63  1402.94  1403.18  1418.61  1419.00  1439.60
eigval :     1439.87  1450.57  1451.26  1466.28  1468.98  1474.27
eigval :     1478.20  1487.07  1521.24  1533.50  1542.26  1543.42
eigval :     1558.91  1559.03  1566.48  1566.59  1571.67  1575.62
eigval :     1576.08  1578.70  1586.59  1589.33  3084.96  3085.13
eigval :     3086.27  3086.92  3094.03  3094.18  3096.67  3097.76
eigval :     3098.65  3099.12  3101.86  3101.92  3102.29  3102.31
eigval :     3104.22  3104.99  3110.34  3110.53  3111.75  3112.26
eigval :     3114.08  3114.25  3116.06  3117.64  3119.90  3120.11

   temp. (K)  partition function   enthalpy   heat capacity  entropy
                                   cal/mol     cal/K/mol   cal/K/mol   J/K/mol
 298.15  VIB  0.121E+19            23736.328    150.850    146.344
         ROT  0.611E+08              888.752      2.981     38.608
         INT  0.740E+26            24625.080    153.831    184.952
         TR   0.172E+29             1481.254      4.968     45.414
         TOT                       26106.3340   158.7993   230.3662   963.8522

       T/K    H(0)-H(T)+PV         H(T)/Eh          T*S/Eh         G(T)/Eh
   ------------------------------------------------------------------------
    298.15    0.416031E-01    0.607761E+00    0.109454E+00    0.498306E+00
   ------------------------------------------------------------------------

         :::::::::::::::::::::::::::::::::::::::::::::::::::::
         ::                  THERMODYNAMIC                  ::
         :::::::::::::::::::::::::::::::::::::::::::::::::::::
         :: total free energy        -136.334033901358 Eh   ::
         ::.................................................::
         :: total energy             -136.832340069131 Eh   ::
         :: zero point energy           0.566157493996 Eh   ::
         :: G(RRHO) w/o ZPVE           -0.067851326223 Eh   ::
         :: G(RRHO) contrib.            0.498306167773 Eh   ::
         :::::::::::::::::::::::::::::::::::::::::::::::::::::

           -------------------------------------------------
          | TOTAL ENERGY             -136.832340069131 Eh   |
          | TOTAL ENTHALPY           -136.224579483693 Eh   |
          | TOTAL FREE ENERGY        -136.334033901358 Eh   |
          | GRADIENT NORM               0.000070596894 Eh/α |
          | HOMO-LUMO GAP               0.725436429976 eV   |
           -------------------------------------------------

 * finished run on 2025/09/13 at 22:44:23.199
