   * xtb version 6.7.1 (edcfbbe) compiled by 'albert@albert-system' on 2024-07-22

   ID    Z sym.   atoms
    1   17 Cl     1, 33
    2    6 C      2, 3, 5-16, 18, 20-32, 34, 36-47
    3    7 N      4, 17, 19, 35
    4    1 H      48-71

          program call               : xtb data2507/toluene/2,4,6-CzPyCl2/2,4,6-CzPyCl2_toluene_T1_crest.xyz --gfn 2 --uhf 2 --gbsa toluene --ohess vtight --parallel 40 --molden --ceasefiles --namespace data2507/toluene/2,4,6-CzPyCl2/2,4,6-CzPyCl2_toluene_T1_finalOpt
      * Solvation model:               GBSA
        Solvent                        toluene
        Solvent mass                       9.2140E+01 g/mol
          :  Hamiltonian                  GFN2-xTB          :
 * total energy  :  -120.9093764 Eh     change       -0.2863473E-08 Eh
 * total energy  :  -120.9094442 Eh     change       -0.6787593E-04 Eh
 * total energy  :  -120.9094759 Eh     change       -0.3169731E-04 Eh
 * total energy  :  -120.9094876 Eh     change       -0.1166834E-04 Eh
 * total energy  :  -120.9094976 Eh     change       -0.1003802E-04 Eh
 * total energy  :  -120.9095035 Eh     change       -0.5859253E-05 Eh
 * total energy  :  -120.9095087 Eh     change       -0.5182074E-05 Eh
 * total energy  :  -120.9095135 Eh     change       -0.4846581E-05 Eh
 * total energy  :  -120.9095173 Eh     change       -0.3764148E-05 Eh
 * total energy  :  -120.9095202 Eh     change       -0.2920833E-05 Eh
 * total energy  :  -120.9095767 Eh     change       -0.7293380E-06 Eh
 * total energy  :  -120.9095768 Eh     change       -0.1466062E-06 Eh
 * total energy  :  -120.9095764 Eh     change        0.4515931E-06 Eh
 * total energy  :  -120.9095767 Eh     change       -0.3409831E-06 Eh
 * total energy  :  -120.9095770 Eh     change       -0.2619755E-06 Eh
 * total energy  :  -120.9095774 Eh     change       -0.4530756E-06 Eh
 * total energy  :  -120.9095772 Eh     change        0.2195224E-06 Eh
 * total energy  :  -120.9095775 Eh     change       -0.3446032E-06 Eh
 * total energy  :  -120.9095776 Eh     change       -0.7806383E-07 Eh
   *** GEOMETRY OPTIMIZATION CONVERGED AFTER 49 ITERATIONS ***

 final structure:
================
71
 xtb: 6.7.1 (edcfbbe)
Cl          -1.65727714115576       -1.51191064164158       -1.91963685384282
C           -0.93566784931158       -0.98628541408555       -0.35312325947678
C            0.48270920955780       -1.30028977245371       -0.22203759489992
N            0.92048172849190       -2.59200354975191       -0.33930798292080
C            2.21353612526158       -2.98217481444653       -0.68610695205738
C            3.33409107086198       -2.21128899124421       -0.95753935060874
C            4.50646157212630       -2.86723153694795       -1.29331062486521
C            4.56780046716981       -4.25493872884651       -1.36951490263138
C            3.44952597445891       -5.02904120965501       -1.11170248474251
C            2.26740004181265       -4.39132649776166       -0.76961694938666
C            0.95221117779646       -4.87798140923565       -0.43944100517723
C            0.41831069612995       -6.15281656469139       -0.33551456683983
C           -0.90459749476525       -6.28760194217302        0.04821426303051
C           -1.67838905127831       -5.16857134084335        0.33832668325116
C           -1.16125469279019       -3.88811185428259        0.24334710979474
C            0.15383382649102       -3.74281327653678       -0.17229424402462
N            1.36631083653103       -0.35449513340965       -0.05834333556560
C            1.02588918614759        0.93635923080692        0.07399038821685
N            2.05850258649137        1.84321311100574        0.23531861602750
C            2.15634964996473        3.08476040456535       -0.36720174115783
C            1.34814055650779        3.66234854260772       -1.33636495288075
C            1.68773092699518        4.92056425135540       -1.79801873996649
C            2.81364452885091        5.58731482328605       -1.32107304612609
C            3.64942859228509        4.99743735020701       -0.38944584319538
C            3.32821010550232        3.73499154003094        0.08642172544502
C            3.97864396386856        2.82143248846863        0.98944965021403
C            5.14858641043242        2.88321601075064        1.73187732184648
C            5.49655663643047        1.79287222422558        2.50991114570197
C            4.69224082560256        0.65665745171497        2.55604536570328
C            3.51836625177455        0.57471899034100        1.82900576763658
C            3.17129704302088        1.66174132879259        1.04074749579029
C           -0.33860161315985        1.31173289213524        0.20349580707530
Cl          -0.75003864278233        2.88602055312199        0.83106903824024
C           -1.31437066049795        0.36175873991203        0.03049051964113
N           -2.66914143684758        0.65220201153680        0.18080344384330
C           -3.52958168815391       -0.02890701566350        1.01778963782845
C           -3.25043753420399       -1.04987618228787        1.91357406867945
C           -4.30301046211246       -1.56414408948854        2.64871832430767
C           -5.59415756522494       -1.05889082998025        2.51480986294568
C           -5.86889458177581       -0.01698108734696        1.64674592985265
C           -4.83078462086865        0.50830926346828        0.89086808029783
C           -4.73896239770048        1.56982612043818       -0.07728491078005
C           -5.66435509896814        2.44194686938451       -0.63164074895556
C           -5.23482586935134        3.34522417111465       -1.58723072868223
C           -3.90717666322265        3.37003526425993       -2.00648998261399
C           -2.96758678128015        2.50919308513729       -1.46997401718276
C           -3.38635854297366        1.62284387324143       -0.48884004273335
H            3.29248252792668       -1.13697820512820       -0.90175773333790
H            5.39091051808517       -2.28425990120452       -1.50179461539871
H            5.49930773040289       -4.73147197651213       -1.63587409069676
H            3.49237077794803       -6.10533466108694       -1.17556127459178
H            1.02612288921397       -7.01927697036476       -0.54552213936662
H           -1.34085550155457       -7.27131771300756        0.13500937110862
H           -2.70362026409836       -5.29628675761206        0.65163790355520
H           -1.76988220419972       -3.03117437090222        0.48181398101420
H            0.48814906606431        3.14236822969759       -1.72960470968663
H            1.07003156341813        5.39162444917767       -2.54816450867404
H            3.04347241172629        6.57174842051645       -1.70027172817133
H            4.53849639296015        5.50305138413483       -0.04513257980594
H            5.77202741792162        3.76364966640733        1.70071868569936
H            6.40492563646656        1.82108278959237        3.09293199561897
H            4.98914321969600       -0.17772352725209        3.17350346738698
H            2.89569220199441       -0.30488308784573        1.86269459319021
H           -2.24295640224007       -1.41730766872173        2.03838916257338
H           -4.11699623996242       -2.36608283437410        3.34746371527013
H           -6.39007385785241       -1.48239066192652        3.10904092721037
H           -6.86779452065799        0.38239477519462        1.55889833980931
H           -6.69901227158646        2.40967107316816       -0.32581047500631
H           -5.93939431436394        4.03540483742069       -2.02681537447799
H           -3.60468415072833        4.07283460385624       -2.76877755964448
H           -1.94430196031978        2.51925046093849       -1.81333089443544

          :  Hamiltonian                  GFN2-xTB          :
         :: gradient norm              0.000047610644 Eh/a0 ::
         :: HOMO-LUMO gap              0.884874680428 eV    ::
         :: SCC energy              -122.964715948048 Eh    ::
         :: -> dispersion             -0.114698505880 Eh    ::
         :: -> Gsolv                  -0.048662433363 Eh    ::
         :: repulsion energy           2.055138312393 Eh    ::

    * Orbital Energies and Occupations

         #    Occupation            Energy/Eh            Energy/eV
      -------------------------------------------------------------
         1        2.0000           -1.0739798             -29.2245
       ...           ...                  ...                  ...
       100        2.0000           -0.4185789             -11.3901
       101        2.0000           -0.4155682             -11.3082
       102        2.0000           -0.4139186             -11.2633
       103        2.0000           -0.4136251             -11.2553
       104        2.0000           -0.4060610             -11.0495
       105        2.0000           -0.4016419             -10.9292
       106        2.0000           -0.3900266             -10.6132
       107        2.0000           -0.3885805             -10.5738
       108        2.0000           -0.3881651             -10.5625
       109        2.0000           -0.3815186             -10.3817
       110        1.9987           -0.3757137             -10.2237
       111        1.0013           -0.3631476              -9.8817
       112        1.0000           -0.2969549              -8.0806 (HOMO)
       113                         -0.2644365              -7.1957 (LUMO)
       114                         -0.2545902              -6.9278
       115                         -0.2535970              -6.9007
       116                         -0.2497517              -6.7961
       117                         -0.2329637              -6.3393
       118                         -0.2319649              -6.3121
       119                         -0.2314360              -6.2977
       120                         -0.2164750              -5.8906
       121                         -0.2032623              -5.5310
       122                         -0.1975409              -5.3754
       123                         -0.1964030              -5.3444
       ...                                ...                  ...
       222                          0.7364372              20.0395
      -------------------------------------------------------------
                  HL-Gap            0.0325185 Eh            0.8849 eV

     #   Z          covCN         q      C6AA      α(0)
     1  17 Cl       0.939    -0.212   105.825    15.738
     2   6 C        2.865    -0.019    28.469     8.746
     3   6 C        2.888     0.141    24.921     8.184
     4   7 N        2.801    -0.008    21.415     6.873
     5   6 C        3.058     0.050    26.831     8.495
     6   6 C        2.910    -0.041    29.023     8.834
     7   6 C        2.923    -0.030    28.756     8.794
     8   6 C        2.920    -0.032    28.806     8.801
     9   6 C        2.912    -0.030    28.754     8.793
    10   6 C        3.061    -0.009    28.187     8.706
    11   6 C        3.062    -0.009    28.173     8.704
    12   6 C        2.912    -0.030    28.754     8.793
    13   6 C        2.920    -0.033    28.817     8.803
    14   6 C        2.923    -0.030    28.745     8.792
    15   6 C        2.911    -0.041    29.027     8.834
    16   6 C        3.057     0.047    26.891     8.504
    17   7 N        1.852    -0.260    27.624     7.790
    18   6 C        2.895     0.106    25.659     8.305
    19   7 N        2.802    -0.019    21.617     6.905
    20   6 C        3.069     0.048    26.845     8.496
    21   6 C        2.910    -0.040    28.985     8.828
    22   6 C        2.923    -0.032    28.810     8.802
    23   6 C        2.920    -0.036    28.896     8.815
    24   6 C        2.912    -0.031    28.776     8.796
    25   6 C        3.064    -0.012    28.258     8.717
    26   6 C        3.064    -0.013    28.265     8.718
    27   6 C        2.912    -0.031    28.767     8.795
    28   6 C        2.920    -0.035    28.867     8.811
    29   6 C        2.924    -0.031    28.779     8.798
    30   6 C        2.909    -0.041    29.026     8.834
    31   6 C        3.071     0.051    26.791     8.487
    32   6 C        2.873     0.051    26.863     8.496
    33  17 Cl       0.948    -0.183   104.911    15.670
    34   6 C        2.966     0.043    27.041     8.530
    35   7 N        2.802    -0.026    21.755     6.927
    36   6 C        3.078     0.051    26.781     8.484
    37   6 C        2.909    -0.046    29.140     8.852
    38   6 C        2.924    -0.031    28.783     8.798
    39   6 C        2.920    -0.037    28.914     8.818
    40   6 C        2.912    -0.031    28.779     8.797
    41   6 C        3.065    -0.013    28.280     8.720
    42   6 C        3.067    -0.014    28.300     8.723
    43   6 C        2.912    -0.032    28.796     8.799
    44   6 C        2.920    -0.038    28.943     8.822
    45   6 C        2.923    -0.033    28.818     8.803
    46   6 C        2.910    -0.041    29.030     8.835
    47   6 C        3.073     0.053    26.731     8.477
    48   1 H        0.926     0.057     2.237     2.339
    49   1 H        0.926     0.045     2.381     2.413
    50   1 H        0.926     0.046     2.375     2.410
    51   1 H        0.926     0.048     2.351     2.398
    52   1 H        0.926     0.048     2.346     2.395
    53   1 H        0.926     0.045     2.382     2.413
    54   1 H        0.926     0.044     2.393     2.419
    55   1 H        0.926     0.047     2.358     2.401
    56   1 H        0.926     0.025     2.656     2.548
    57   1 H        0.926     0.038     2.476     2.461
    58   1 H        0.926     0.041     2.441     2.443
    59   1 H        0.926     0.044     2.393     2.419
    60   1 H        0.926     0.044     2.400     2.422
    61   1 H        0.926     0.043     2.414     2.430
    62   1 H        0.926     0.043     2.410     2.428
    63   1 H        0.926     0.043     2.409     2.427
    64   1 H        0.926     0.032     2.556     2.500
    65   1 H        0.926     0.042     2.424     2.435
    66   1 H        0.926     0.041     2.441     2.443
    67   1 H        0.926     0.041     2.433     2.439
    68   1 H        0.926     0.041     2.434     2.440
    69   1 H        0.926     0.038     2.475     2.460
    70   1 H        0.926     0.036     2.501     2.473
    71   1 H        0.926     0.023     2.689     2.565

molecular dipole:
                 x           y           z       tot (Debye)
 q only:        1.232      -1.065       0.627
   full:        0.732      -0.561       0.364       2.520

 projected vibrational frequencies (cm⁻¹)
eigval :       -0.00    -0.00    -0.00    -0.00     0.00     0.00
eigval :       11.50    16.92    22.43    24.91    27.69    31.85
eigval :       47.74    57.83    69.84    77.05    95.57    99.45
eigval :      105.45   109.56   129.38   133.80   137.13   145.04
eigval :      150.17   152.43   157.68   169.35   176.39   214.66
eigval :      223.94   229.78   268.24   270.85   272.68   275.41
eigval :      277.76   306.09   323.05   327.63   352.20   367.24
eigval :      392.14   396.07   398.77   418.55   421.49   424.45
eigval :      431.17   433.84   435.19   452.77   477.74   500.75
eigval :      512.34   513.75   515.91   518.93   522.07   537.21
eigval :      538.57   540.03   543.30   552.08   567.41   583.55
eigval :      584.99   587.59   600.02   609.08   615.91   634.48
eigval :      651.52   662.29   663.10   672.14   673.45   677.54
eigval :      707.94   708.53   713.40   745.94   750.44   753.88
eigval :      762.77   765.73   767.98   771.71   772.16   775.81
eigval :      778.48   784.30   863.44   866.37   868.81   870.70
eigval :      872.09   881.15   882.99   890.58   895.31   898.84
eigval :      900.09   901.53   902.36   903.20   904.56   908.61
eigval :      917.24   917.88   919.44   921.83   922.44   932.86
eigval :      959.71  1008.10  1009.89  1012.48  1032.31  1040.40
eigval :     1061.87  1064.78  1065.43  1067.40  1068.35  1070.38
eigval :     1108.97  1132.99  1137.49  1139.14  1140.93  1143.91
eigval :     1168.47  1171.41  1173.42  1174.13  1176.92  1178.24
eigval :     1183.78  1203.04  1205.20  1217.93  1226.08  1229.32
eigval :     1229.82  1233.24  1248.82  1260.77  1276.57  1285.91
eigval :     1288.64  1290.65  1292.66  1295.14  1339.20  1343.35
eigval :     1344.24  1351.21  1354.74  1358.08  1360.46  1362.00
eigval :     1389.19  1406.86  1410.90  1413.63  1416.74  1421.00
eigval :     1433.69  1457.35  1459.71  1463.95  1467.16  1477.29
eigval :     1479.91  1481.33  1509.89  1566.58  1568.83  1570.41
eigval :     1577.74  1579.44  1580.51  1580.63  1585.15  1586.28
eigval :     1597.45  1599.12  1602.43  3076.83  3078.81  3079.62
eigval :     3080.70  3081.22  3081.78  3081.79  3082.96  3085.06
eigval :     3087.19  3088.61  3089.47  3090.04  3090.32  3091.88
eigval :     3095.73  3096.10  3097.29  3097.62  3099.08  3099.74
eigval :     3106.65  3107.09  3128.86

   temp. (K)  partition function   enthalpy   heat capacity  entropy
                                   cal/mol     cal/K/mol   cal/K/mol   J/K/mol
 298.15  VIB  0.125E+17            21379.913    135.976    131.714
         ROT  0.641E+08              888.752      2.981     38.704
         INT  0.801E+24            22268.665    138.957    170.419
         TR   0.158E+29             1481.254      4.968     45.247
         TOT                       23749.9191   143.9255   215.6659   902.3459

       T/K    H(0)-H(T)+PV         H(T)/Eh          T*S/Eh         G(T)/Eh
   ------------------------------------------------------------------------
    298.15    0.378479E-01    0.555871E+00    0.102470E+00    0.453401E+00
   ------------------------------------------------------------------------

         :::::::::::::::::::::::::::::::::::::::::::::::::::::
         ::                  THERMODYNAMIC                  ::
         :::::::::::::::::::::::::::::::::::::::::::::::::::::
         :: total free energy        -120.456176310083 Eh   ::
         ::.................................................::
         :: total energy             -120.909577634405 Eh   ::
         :: zero point energy           0.518023223799 Eh   ::
         :: G(RRHO) w/o ZPVE           -0.064621899476 Eh   ::
         :: G(RRHO) contrib.            0.453401324322 Eh   ::
         :::::::::::::::::::::::::::::::::::::::::::::::::::::

           -------------------------------------------------
          | TOTAL ENERGY             -120.909577634405 Eh   |
          | TOTAL ENTHALPY           -120.353706505360 Eh   |
          | TOTAL FREE ENERGY        -120.456176310083 Eh   |
          | GRADIENT NORM               0.000047429031 Eh/α |
          | HOMO-LUMO GAP               0.884872275480 eV   |
           -------------------------------------------------

 * finished run on 2025/08/25 at 03:34:33.866
