   * xtb version 6.7.1 (edcfbbe) compiled by 'albert@albert-system' on 2024-07-22

   ID    Z sym.   atoms
    1   17 Cl     1, 33
    2    6 C      2, 3, 5-16, 18, 20-32, 34, 36-47
    3    7 N      4, 17, 19, 35
    4    1 H      48-71

          program call               : xtb data2507/toluene/2,4,6-CzPyCl2/2,4,6-CzPyCl2_toluene_S0_finalOpt.xtbopt.xyz --gfn 2 --uhf 2 --gbsa toluene --ohess vtight --parallel 40 --molden --ceasefiles --namespace data2507/toluene/2,4,6-CzPyCl2/2,4,6-CzPyCl2_toluene_T1_preOpt
      * Solvation model:               GBSA
        Solvent                        toluene
        Solvent mass                       9.2140E+01 g/mol
          :  Hamiltonian                  GFN2-xTB          :
 * total energy  :  -120.9030744 Eh     change       -0.1112895E-07 Eh
 * total energy  :  -120.9050333 Eh     change       -0.1958896E-02 Eh
 * total energy  :  -120.9056415 Eh     change       -0.6081976E-03 Eh
 * total energy  :  -120.9059084 Eh     change       -0.2669132E-03 Eh
 * total energy  :  -120.9060486 Eh     change       -0.1402708E-03 Eh
 * total energy  :  -120.9061712 Eh     change       -0.1225966E-03 Eh
 * total energy  :  -120.9061939 Eh     change       -0.2267485E-04 Eh
 * total energy  :  -120.9062057 Eh     change       -0.1174047E-04 Eh
 * total energy  :  -120.9062118 Eh     change       -0.6160881E-05 Eh
 * total energy  :  -120.9062184 Eh     change       -0.6543790E-05 Eh
 * total energy  :  -120.9096347 Eh     change       -0.2995093E-06 Eh
 * total energy  :  -120.9096351 Eh     change       -0.3932479E-06 Eh
 * total energy  :  -120.9096357 Eh     change       -0.5372226E-06 Eh
 * total energy  :  -120.9096362 Eh     change       -0.5157988E-06 Eh
 * total energy  :  -120.9096366 Eh     change       -0.4645144E-06 Eh
 * total energy  :  -120.9096370 Eh     change       -0.3845443E-06 Eh
 * total energy  :  -120.9096373 Eh     change       -0.2932544E-06 Eh
 * total energy  :  -120.9096375 Eh     change       -0.1856691E-06 Eh
 * total energy  :  -120.9096376 Eh     change       -0.7109500E-07 Eh
   *** GEOMETRY OPTIMIZATION CONVERGED AFTER 120 ITERATIONS ***

 final structure:
================
71
 xtb: 6.7.1 (edcfbbe)
Cl          -1.21479999931901       -1.85879213902110       -1.95975720930569
C           -0.65195347842205       -1.14264790855270       -0.40486495893740
C            0.79940764020214       -1.10580941932609       -0.26256099209427
N            1.53511257906618       -2.25616580167263       -0.36417024797031
C            2.88258762071569       -2.32874342888775       -0.71435869580609
C            3.78046679122638       -1.31506689088198       -1.01423875342412
C            5.07487591405549       -1.67435258575505       -1.35001657572819
C            5.47124234179180       -3.00704037699293       -1.39724858843742
C            4.57624937794014       -4.02357065028309       -1.11083388000893
C            3.27665833350407       -3.68426310724424       -0.76869729948206
C            2.11994996965174       -4.46766894240638       -0.41656408495567
C            1.91197982668487       -5.83100436860339       -0.27832940005164
C            0.66175376077719       -6.27340899531805        0.11763168004017
C           -0.36045105610303       -5.36907924048255        0.38698941809286
C           -0.16974551907667       -4.00405610018357        0.25910053934367
C            1.07054869545663       -3.55416152644979       -0.16810477147544
N            1.43022822779400        0.02475586248434       -0.10342352023154
C            0.79109163082378        1.19831044196972        0.01585711706609
N            1.57696382694024        2.32479426657877        0.18261666917056
C            1.38268966086203        3.55422611513582       -0.42139645071735
C            0.47016266669398        3.92356928154394       -1.39968795713525
C            0.50648415847558        5.22607506353157       -1.86200969199911
C            1.43795186715858        6.14083380487909       -1.37682781115691
C            2.38075740446642        5.76607216710835       -0.43599339461323
C            2.36292991022661        4.46392613115717        0.04078979559091
C            3.20435670766388        3.73048268329542        0.95007728237724
C            4.32178036327209        4.06728269751197        1.69947330236573
C            4.91483450962034        3.08945678389590        2.47892143190174
C            4.40398775458542        1.79426837673828        2.51903002267331
C            3.28668927000726        1.43732068051647        1.78587761547402
C            2.69534452335151        2.41208412588584        0.99612245539670
C           -0.62557216965858        1.23754037537576        0.12885539866945
Cl          -1.40994739073380        2.67057929741700        0.73942842037212
C           -1.34477847432756        0.08171212401958       -0.04763880029491
N           -2.73287395081674        0.04754290627729        0.07376911548758
C           -3.43052982212124       -0.80792172773239        0.90192649667284
C           -2.94291239191385       -1.72772049524403        1.81786031519033
C           -3.86404499725383       -2.46773031839941        2.53670004538688
C           -5.23374820925410       -2.28058988593225        2.36611393846488
C           -5.72274141806287       -1.33904680436990        1.47791391409130
C           -4.81776428026501       -0.59085714079061        0.73894352846290
C           -4.95287445752153        0.45419598921652       -0.24195251489200
C           -6.04232032913212        1.08178939785412       -0.82811151121913
C           -5.81191200482797        2.05107115556411       -1.78778618579779
C           -4.51683719185586        2.38035938710493       -2.17956089054758
C           -3.41596207502907        1.76671438563539       -1.61123967131130
C           -3.64041602421755        0.81729671751095       -0.62548895127835
H            3.47911031349184       -0.28203845532943       -0.98057273606246
H            5.78977179210396       -0.89902784806029       -1.58104287661830
H            6.48892652074884       -3.24909617800961       -1.66454830195377
H            4.87920973558723       -5.05833709557781       -1.15291900706543
H            2.71169988610127       -6.52890845706558       -0.47224859927431
H            0.47772994134494       -7.33116188872449        0.23083737880067
H           -1.32374249439246       -5.73450051267834        0.70972313944758
H           -0.96786942970242       -3.31462436844335        0.48109688926447
H           -0.23775996151472        3.21432128946904       -1.80006984063864
H           -0.19794409248344        5.53682181396909       -2.61923961570585
H            1.43209987183890        7.15144029100037       -1.75681124851785
H            3.12174642431830        6.46784711824363       -0.08510193523735
H            4.71809477938719        5.07076490741255        1.67219190860488
H            5.78728418360309        3.33172881300043        3.06715885723338
H            4.88789359507905        1.05278002035466        3.13682301049026
H            2.89057221386373        0.43498499731768        1.81532019693430
H           -1.88089872599134       -1.84792265047356        1.97025941402577
H           -3.51349449648362       -3.19776364463054        3.25091712365865
H           -5.92319215983146       -2.87450315104696        2.94739133083395
H           -6.78480562550110       -1.18589637197994        1.36148549479453
H           -7.04810147685022        0.81253392030680       -0.54348384768708
H           -6.64678021976645        2.55423924350403       -2.25230639513722
H           -4.36796067682971        3.12691538540925       -2.94570698289366
H           -2.41515585153411        2.01104478966133       -1.93336007351737

          :  Hamiltonian                  GFN2-xTB          :
         :: gradient norm              0.000023674514 Eh/a0 ::
         :: HOMO-LUMO gap              0.864181177654 eV    ::
         :: SCC energy              -122.964801093490 Eh    ::
         :: -> dispersion             -0.114691162151 Eh    ::
         :: -> Gsolv                  -0.048706324726 Eh    ::
         :: repulsion energy           2.055163477423 Eh    ::

    * Orbital Energies and Occupations

         #    Occupation            Energy/Eh            Energy/eV
      -------------------------------------------------------------
         1        2.0000           -1.0739361             -29.2233
       ...           ...                  ...                  ...
       100        2.0000           -0.4185546             -11.3894
       101        2.0000           -0.4155701             -11.3082
       102        2.0000           -0.4138907             -11.2625
       103        2.0000           -0.4136047             -11.2548
       104        2.0000           -0.4061116             -11.0509
       105        2.0000           -0.4016191             -10.9286
       106        2.0000           -0.3900209             -10.6130
       107        2.0000           -0.3885438             -10.5728
       108        2.0000           -0.3881511             -10.5621
       109        2.0000           -0.3814774             -10.3805
       110        1.9985           -0.3756633             -10.2223
       111        1.0015           -0.3632977              -9.8858
       112        1.0000           -0.2961559              -8.0588 (HOMO)
       113                         -0.2643978              -7.1946 (LUMO)
       114                         -0.2545711              -6.9272
       115                         -0.2535715              -6.9000
       116                         -0.2498096              -6.7977
       117                         -0.2329638              -6.3393
       118                         -0.2319504              -6.3117
       119                         -0.2314238              -6.2974
       120                         -0.2163655              -5.8876
       121                         -0.2032183              -5.5299
       122                         -0.1975721              -5.3762
       123                         -0.1964055              -5.3445
       ...                                ...                  ...
       222                          0.7364957              20.0411
      -------------------------------------------------------------
                  HL-Gap            0.0317581 Eh            0.8642 eV

     #   Z          covCN         q      C6AA      α(0)
     1  17 Cl       0.938    -0.211   105.819    15.738
     2   6 C        2.865    -0.019    28.468     8.746
     3   6 C        2.888     0.141    24.926     8.185
     4   7 N        2.801    -0.008    21.416     6.873
     5   6 C        3.059     0.050    26.828     8.494
     6   6 C        2.910    -0.041    29.019     8.833
     7   6 C        2.923    -0.030    28.756     8.794
     8   6 C        2.920    -0.032    28.806     8.801
     9   6 C        2.912    -0.030    28.753     8.793
    10   6 C        3.061    -0.009    28.188     8.706
    11   6 C        3.062    -0.009    28.174     8.704
    12   6 C        2.912    -0.030    28.754     8.793
    13   6 C        2.920    -0.033    28.818     8.803
    14   6 C        2.923    -0.030    28.746     8.792
    15   6 C        2.911    -0.041    29.027     8.835
    16   6 C        3.057     0.047    26.889     8.504
    17   7 N        1.852    -0.260    27.618     7.789
    18   6 C        2.894     0.105    25.674     8.308
    19   7 N        2.802    -0.019    21.607     6.904
    20   6 C        3.069     0.048    26.848     8.496
    21   6 C        2.910    -0.040    28.983     8.828
    22   6 C        2.923    -0.033    28.811     8.802
    23   6 C        2.920    -0.036    28.895     8.815
    24   6 C        2.912    -0.031    28.775     8.796
    25   6 C        3.064    -0.012    28.258     8.717
    26   6 C        3.064    -0.013    28.265     8.718
    27   6 C        2.912    -0.031    28.766     8.795
    28   6 C        2.920    -0.035    28.865     8.810
    29   6 C        2.924    -0.031    28.780     8.798
    30   6 C        2.909    -0.041    29.022     8.834
    31   6 C        3.071     0.051    26.793     8.487
    32   6 C        2.873     0.050    26.865     8.497
    33  17 Cl       0.948    -0.183   104.902    15.669
    34   6 C        2.966     0.043    27.037     8.529
    35   7 N        2.802    -0.026    21.756     6.927
    36   6 C        3.078     0.051    26.778     8.484
    37   6 C        2.909    -0.046    29.138     8.851
    38   6 C        2.924    -0.031    28.783     8.798
    39   6 C        2.920    -0.037    28.914     8.818
    40   6 C        2.912    -0.031    28.780     8.797
    41   6 C        3.065    -0.013    28.281     8.720
    42   6 C        3.067    -0.014    28.300     8.723
    43   6 C        2.912    -0.032    28.796     8.799
    44   6 C        2.920    -0.038    28.943     8.822
    45   6 C        2.923    -0.033    28.818     8.803
    46   6 C        2.910    -0.042    29.031     8.835
    47   6 C        3.073     0.053    26.731     8.477
    48   1 H        0.926     0.056     2.243     2.342
    49   1 H        0.926     0.045     2.382     2.413
    50   1 H        0.926     0.046     2.375     2.410
    51   1 H        0.926     0.048     2.351     2.398
    52   1 H        0.926     0.048     2.346     2.395
    53   1 H        0.926     0.045     2.382     2.414
    54   1 H        0.926     0.044     2.393     2.419
    55   1 H        0.926     0.047     2.361     2.403
    56   1 H        0.926     0.025     2.652     2.547
    57   1 H        0.926     0.038     2.476     2.461
    58   1 H        0.926     0.041     2.441     2.443
    59   1 H        0.926     0.044     2.393     2.419
    60   1 H        0.926     0.044     2.399     2.422
    61   1 H        0.926     0.043     2.413     2.429
    62   1 H        0.926     0.043     2.410     2.428
    63   1 H        0.926     0.043     2.406     2.425
    64   1 H        0.926     0.032     2.555     2.500
    65   1 H        0.926     0.042     2.425     2.435
    66   1 H        0.926     0.040     2.443     2.444
    67   1 H        0.926     0.041     2.434     2.440
    68   1 H        0.926     0.041     2.435     2.440
    69   1 H        0.926     0.038     2.475     2.460
    70   1 H        0.926     0.036     2.500     2.473
    71   1 H        0.926     0.023     2.692     2.566

molecular dipole:
                 x           y           z       tot (Debye)
 q only:        1.452      -0.714       0.637
   full:        0.846      -0.353       0.366       2.510

 projected vibrational frequencies (cm⁻¹)
eigval :       -0.00    -0.00    -0.00    -0.00     0.00     0.00
eigval :        9.63    17.83    22.24    24.56    26.28    28.50
eigval :       45.46    56.66    69.39    76.96    95.02    99.45
eigval :      104.29   109.98   129.49   133.54   137.76   144.03
eigval :      149.75   152.46   155.13   169.63   177.99   215.28
eigval :      223.95   230.12   268.13   271.96   272.91   274.11
eigval :      277.74   305.08   323.19   326.95   352.53   367.09
eigval :      392.55   393.70   397.66   419.27   421.95   423.86
eigval :      431.54   433.09   435.32   453.21   477.72   500.82
eigval :      512.14   513.71   515.92   518.74   521.96   535.50
eigval :      538.17   540.04   543.08   552.06   567.76   583.43
eigval :      584.88   587.49   599.67   608.97   616.06   634.64
eigval :      651.59   662.91   663.42   672.98   673.26   675.24
eigval :      708.67   709.41   710.72   746.10   750.44   753.86
eigval :      762.53   766.15   768.52   770.89   772.20   776.52
eigval :      778.36   782.30   864.54   866.99   869.56   870.97
eigval :      871.54   879.92   882.93   890.58   895.27   899.08
eigval :      901.25   901.54   902.73   903.18   904.43   908.61
eigval :      917.66   919.23   920.12   920.76   921.14   930.10
eigval :      960.13  1008.21  1009.89  1012.41  1031.61  1040.23
eigval :     1061.98  1064.43  1065.81  1067.39  1068.79  1070.58
eigval :     1108.78  1132.55  1136.80  1139.17  1140.61  1143.81
eigval :     1169.11  1171.40  1174.29  1174.63  1176.29  1177.47
eigval :     1183.94  1201.70  1204.63  1218.14  1225.70  1227.19
eigval :     1229.56  1233.03  1248.86  1260.38  1276.57  1285.48
eigval :     1288.49  1290.54  1292.31  1294.67  1338.71  1343.79
eigval :     1344.11  1351.19  1354.77  1358.00  1360.48  1361.89
eigval :     1388.96  1406.98  1410.87  1413.29  1416.74  1421.19
eigval :     1433.70  1457.18  1459.55  1463.77  1467.50  1476.99
eigval :     1479.96  1481.31  1510.80  1566.38  1568.78  1569.80
eigval :     1577.48  1579.07  1580.11  1580.37  1585.17  1586.34
eigval :     1597.21  1598.63  1602.49  3077.02  3078.74  3079.81
eigval :     3081.13  3082.08  3082.10  3082.66  3082.87  3084.96
eigval :     3087.90  3088.80  3089.55  3090.02  3090.48  3092.08
eigval :     3095.91  3096.22  3097.28  3097.99  3098.79  3099.87
eigval :     3107.16  3107.63  3127.00

   temp. (K)  partition function   enthalpy   heat capacity  entropy
                                   cal/mol     cal/K/mol   cal/K/mol   J/K/mol
 298.15  VIB  0.184E+17            21400.914    135.866    132.015
         ROT  0.641E+08              888.752      2.981     38.705
         INT  0.118E+25            22289.667    138.847    170.720
         TR   0.158E+29             1481.254      4.968     45.247
         TOT                       23770.9206   143.8147   215.9673   903.6074

       T/K    H(0)-H(T)+PV         H(T)/Eh          T*S/Eh         G(T)/Eh
   ------------------------------------------------------------------------
    298.15    0.378814E-01    0.555840E+00    0.102613E+00    0.453227E+00
   ------------------------------------------------------------------------

         :::::::::::::::::::::::::::::::::::::::::::::::::::::
         ::                  THERMODYNAMIC                  ::
         :::::::::::::::::::::::::::::::::::::::::::::::::::::
         :: total free energy        -120.456411113338 Eh   ::
         ::.................................................::
         :: total energy             -120.909637616679 Eh   ::
         :: zero point energy           0.517958182676 Eh   ::
         :: G(RRHO) w/o ZPVE           -0.064731679335 Eh   ::
         :: G(RRHO) contrib.            0.453226503341 Eh   ::
         :::::::::::::::::::::::::::::::::::::::::::::::::::::

           -------------------------------------------------
          | TOTAL ENERGY             -120.909637616679 Eh   |
          | TOTAL ENTHALPY           -120.353798060821 Eh   |
          | TOTAL FREE ENERGY        -120.456411113338 Eh   |
          | GRADIENT NORM               0.000023563240 Eh/α |
          | HOMO-LUMO GAP               0.864181904181 eV   |
           -------------------------------------------------

 * finished run on 2025/08/25 at 03:30:19.469
