   * xtb version 6.7.1 (edcfbbe) compiled by 'albert@albert-system' on 2024-07-22

   ID    Z sym.   atoms
    1   17 Cl     1, 33
    2    6 C      2, 3, 5-16, 18, 20-32, 34, 36-47
    3    7 N      4, 17, 19, 35
    4    1 H      48-71

          program call               : xtb data2507/toluene/2,4,6-CzPyCl2/2,4,6-CzPyCl2_toluene_S0_crest.xyz --gfn 2 --gbsa toluene --ohess vtight --parallel 40 --molden --ceasefiles --namespace data2507/toluene/2,4,6-CzPyCl2/2,4,6-CzPyCl2_toluene_S0_finalOpt
      * Solvation model:               GBSA
        Solvent                        toluene
        Solvent mass                       9.2140E+01 g/mol
          :  Hamiltonian                  GFN2-xTB          :
 * total energy  :  -121.0049036 Eh     change       -0.4665566E-08 Eh
 * total energy  :  -121.0049550 Eh     change       -0.5147709E-04 Eh
 * total energy  :  -121.0049783 Eh     change       -0.2330238E-04 Eh
 * total energy  :  -121.0049898 Eh     change       -0.1147586E-04 Eh
 * total energy  :  -121.0049993 Eh     change       -0.9492992E-05 Eh
 * total energy  :  -121.0050075 Eh     change       -0.8229525E-05 Eh
 * total energy  :  -121.0050132 Eh     change       -0.5627448E-05 Eh
 * total energy  :  -121.0050177 Eh     change       -0.4577820E-05 Eh
 * total energy  :  -121.0050212 Eh     change       -0.3411951E-05 Eh
 * total energy  :  -121.0050233 Eh     change       -0.2193539E-05 Eh
 * total energy  :  -121.0050319 Eh     change       -0.2602823E-05 Eh
 * total energy  :  -121.0050342 Eh     change       -0.2332993E-05 Eh
 * total energy  :  -121.0050361 Eh     change       -0.1832797E-05 Eh
 * total energy  :  -121.0050376 Eh     change       -0.1529919E-05 Eh
 * total energy  :  -121.0050389 Eh     change       -0.1282533E-05 Eh
 * total energy  :  -121.0050399 Eh     change       -0.1032857E-05 Eh
 * total energy  :  -121.0050407 Eh     change       -0.8050057E-06 Eh
 * total energy  :  -121.0050413 Eh     change       -0.5959823E-06 Eh
 * total energy  :  -121.0050413 Eh     change       -0.5586244E-08 Eh
   *** GEOMETRY OPTIMIZATION CONVERGED AFTER 22 ITERATIONS ***

 final structure:
================
71
 xtb: 6.7.1 (edcfbbe)
Cl          -1.52249331913309       -2.53012462621688       -0.91646039214234
C           -0.65582747532223       -1.15582386546836       -0.31214445173921
C            0.74368236163123       -1.14719951756988       -0.20885269678105
N            1.51455357798157       -2.27961345932269       -0.37570786322135
C            2.68457048211332       -2.34427957964490       -1.12995335776894
C            3.33333052188406       -1.34667947097677       -1.83741936007547
C            4.47390421090306       -1.69416831068043       -2.53970122866154
C            4.95440083548273       -3.00091279009109       -2.54535472564983
C            4.30425051977811       -3.99991306413805       -1.84661550294967
C            3.16026107131341       -3.67186147486285       -1.13087372148663
C            2.26800992770965       -4.43430776603246       -0.29688753054621
C            2.25734954169809       -5.75889551675147        0.11824691156979
C            1.27783262967277       -6.16801024064477        1.00306079398928
C            0.33938326720870       -5.26602142091891        1.49490665971535
C            0.33252480379983       -3.94211274311135        1.09266572012519
C            1.27820645649904       -3.53907667596091        0.16349947994442
N            1.39853566738301       -0.01424460205322       -0.00454191721339
C            0.76746013465521        1.13223294026881        0.19904684438915
N            1.56181710384726        2.24788768876790        0.36836730902031
C            1.35214863890805        3.51343093454320       -0.16755613386763
C            0.41765623283098        3.93789947050361       -1.09852237371821
C            0.45196985948609        5.26269384746163       -1.49648575834024
C            1.40632395572739        6.14444865643333       -0.99856389101217
C            2.37454836864651        5.71340231349371       -0.11173883353723
C            2.35776978685766        4.38754397480709        0.29910320908675
C            3.23195518460428        3.60504509084453        1.13365665898022
C            4.37929548212034        3.90835330408480        1.85491078574965
C            5.00712461219950        2.89454506812595        2.55274461571357
C            4.50145011924618        1.59738528488903        2.54063042516750
C            3.35696510653907        1.27458313592843        1.83295431108753
C            2.73033696782543        2.28707612728162        1.12671301793303
C           -0.63168453086423        1.17022607082776        0.30100563613472
Cl          -1.46995915209526        2.56219004716255        0.90482084783918
C           -1.35821127264125        0.01464573196860       -0.00553740100939
N           -2.74950706894665        0.02879463551676       -0.00450894505063
C           -3.56692450255090       -0.76208337051389        0.78611200015686
C           -3.22129937373782       -1.67775083715695        1.76611606900513
C           -4.24512503002310       -2.32349364940636        2.43459844210700
C           -5.58074603217835       -2.05307631780642        2.14745022208546
C           -5.92895844719317       -1.11694506297749        1.19285921664495
C           -4.91691174486702       -0.45985611599872        0.50526361985082
C           -4.90795291014843        0.56002323385331       -0.50952358359399
C           -5.90843237298478        1.23688406064743       -1.19485650528625
C           -5.54400947217218        2.16645711847028       -2.14979409550994
C           -4.20395630475715        2.41114801794280       -2.43935451274742
C           -3.19147624582612        1.74529301788918       -1.77328840305297
C           -3.55288097235168        0.83590983881215       -0.79310911034769
H            2.96871588776770       -0.33226130795144       -1.82679368435508
H            5.00318230452503       -0.93278148563294       -3.09298248009723
H            5.84885149384897       -3.23297014576535       -3.10397806448261
H            4.67374704888432       -5.01386026436636       -1.85295045001037
H            3.00775794519590       -6.44843982848375       -0.23651735502168
H            1.24903621320862       -7.19475986262009        1.33572589307518
H           -0.39527969924785       -5.60120915206445        2.21191478790091
H           -0.38230713448992       -3.24889276214553        1.50691965054468
H           -0.30934832368106        3.26011138703171       -1.51720424237555
H           -0.27359568571230        5.61470720169746       -2.21471378134819
H            1.39888760762997        7.17263520109369       -1.32794559291601
H            3.13701758348557        6.38698498010407        0.24795815984514
H            4.76839257490303        4.91489914104246        1.86622864423679
H            5.90362196122284        3.10733279019426        3.11572640567651
H            5.01376725467212        0.82388825428430        3.09309887453868
H            2.97271337090126        0.26751005144385        1.81735852130706
H           -2.18738507907434       -1.87446350435982        2.00734512270547
H           -4.00240435677939       -3.04806321987107        3.19771521873438
H           -6.35301793632085       -2.57827748963987        2.68927783890182
H           -6.96445947307807       -0.89459788741757        0.98499754026096
H           -6.94763704309078        1.03459146241929       -0.98495246038953
H           -6.30702260774206        2.70675983497625       -2.68989864501036
H           -3.94874494779345        3.13135445806442       -3.20252990105124
H           -2.15441525339431        1.92241390454489       -2.01621407505593

          :  Hamiltonian                  GFN2-xTB          :
         :: gradient norm              0.000057384297 Eh/a0 ::
         :: HOMO-LUMO gap              2.482352215021 eV    ::
         :: SCC energy              -123.080306410059 Eh    ::
         :: -> dispersion             -0.114414875778 Eh    ::
         :: -> Gsolv                  -0.047071726299 Eh    ::
         :: repulsion energy           2.075265107589 Eh    ::

    * Orbital Energies and Occupations

         #    Occupation            Energy/Eh            Energy/eV
      -------------------------------------------------------------
         1        2.0000           -1.0814751             -29.4284
       ...           ...                  ...                  ...
        99        2.0000           -0.4260185             -11.5926
       100        2.0000           -0.4247113             -11.5570
       101        2.0000           -0.4204896             -11.4421
       102        2.0000           -0.4150810             -11.2949
       103        2.0000           -0.4129235             -11.2362
       104        2.0000           -0.4127270             -11.2309
       105        2.0000           -0.4111775             -11.1887
       106        2.0000           -0.3893780             -10.5955
       107        2.0000           -0.3872391             -10.5373
       108        2.0000           -0.3872309             -10.5371
       109        2.0000           -0.3800014             -10.3404
       110        2.0000           -0.3789211             -10.3110
       111        2.0000           -0.3763443             -10.2409 (HOMO)
       112                         -0.2851196              -7.7585 (LUMO)
       113                         -0.2774351              -7.5494
       114                         -0.2551636              -6.9434
       115                         -0.2525621              -6.8726
       116                         -0.2512140              -6.8359
       117                         -0.2322460              -6.3197
       118                         -0.2299707              -6.2578
       119                         -0.2299644              -6.2576
       120                         -0.2126443              -5.7863
       121                         -0.2023712              -5.5068
       122                         -0.2005750              -5.4579
       ...                                ...                  ...
       222                          0.7364382              20.0395
      -------------------------------------------------------------
                  HL-Gap            0.0912248 Eh            2.4824 eV

     #   Z          covCN         q      C6AA      α(0)
     1  17 Cl       0.948    -0.151   103.870    15.592
     2   6 C        2.883     0.043    27.026     8.523
     3   6 C        2.896     0.146    24.820     8.168
     4   7 N        2.805    -0.037    21.947     6.958
     5   6 C        3.063     0.052    26.777     8.486
     6   6 C        2.910    -0.045    29.121     8.849
     7   6 C        2.925    -0.031    28.771     8.796
     8   6 C        2.920    -0.037    28.928     8.820
     9   6 C        2.913    -0.032    28.807     8.801
    10   6 C        3.064    -0.013    28.262     8.718
    11   6 C        3.064    -0.012    28.242     8.715
    12   6 C        2.913    -0.032    28.802     8.800
    13   6 C        2.920    -0.038    28.945     8.823
    14   6 C        2.924    -0.032    28.805     8.801
    15   6 C        2.911    -0.046    29.130     8.850
    16   6 C        3.060     0.048    26.872     8.501
    17   7 N        1.862    -0.259    27.588     7.785
    18   6 C        2.896     0.146    24.820     8.168
    19   7 N        2.805    -0.037    21.947     6.958
    20   6 C        3.060     0.048    26.872     8.501
    21   6 C        2.911    -0.045    29.129     8.850
    22   6 C        2.924    -0.032    28.804     8.801
    23   6 C        2.920    -0.038    28.945     8.823
    24   6 C        2.913    -0.032    28.802     8.800
    25   6 C        3.064    -0.012    28.242     8.715
    26   6 C        3.064    -0.013    28.262     8.718
    27   6 C        2.913    -0.032    28.807     8.801
    28   6 C        2.920    -0.037    28.928     8.820
    29   6 C        2.925    -0.031    28.771     8.796
    30   6 C        2.910    -0.045    29.122     8.849
    31   6 C        3.063     0.052    26.777     8.486
    32   6 C        2.883     0.043    27.026     8.523
    33  17 Cl       0.948    -0.151   103.869    15.592
    34   6 C        2.979     0.065    26.530     8.449
    35   7 N        2.803    -0.041    22.030     6.971
    36   6 C        3.070     0.051    26.797     8.488
    37   6 C        2.910    -0.047    29.156     8.854
    38   6 C        2.924    -0.032    28.799     8.801
    39   6 C        2.920    -0.039    28.975     8.827
    40   6 C        2.913    -0.032    28.809     8.801
    41   6 C        3.066    -0.014    28.300     8.723
    42   6 C        3.066    -0.014    28.300     8.723
    43   6 C        2.913    -0.032    28.809     8.801
    44   6 C        2.920    -0.039    28.975     8.827
    45   6 C        2.924    -0.032    28.800     8.801
    46   6 C        2.910    -0.047    29.156     8.854
    47   6 C        3.070     0.051    26.796     8.488
    48   1 H        0.926     0.040     2.443     2.444
    49   1 H        0.926     0.041     2.432     2.439
    50   1 H        0.926     0.041     2.438     2.442
    51   1 H        0.926     0.043     2.409     2.427
    52   1 H        0.926     0.044     2.402     2.424
    53   1 H        0.926     0.040     2.455     2.450
    54   1 H        0.926     0.038     2.473     2.459
    55   1 H        0.926     0.024     2.673     2.557
    56   1 H        0.926     0.024     2.674     2.557
    57   1 H        0.926     0.038     2.473     2.459
    58   1 H        0.926     0.040     2.455     2.450
    59   1 H        0.926     0.044     2.402     2.424
    60   1 H        0.926     0.043     2.409     2.427
    61   1 H        0.926     0.041     2.438     2.442
    62   1 H        0.926     0.041     2.432     2.439
    63   1 H        0.926     0.041     2.442     2.444
    64   1 H        0.926     0.020     2.731     2.584
    65   1 H        0.926     0.038     2.476     2.461
    66   1 H        0.926     0.038     2.473     2.459
    67   1 H        0.926     0.041     2.440     2.443
    68   1 H        0.926     0.041     2.440     2.443
    69   1 H        0.926     0.038     2.473     2.459
    70   1 H        0.926     0.038     2.476     2.461
    71   1 H        0.926     0.020     2.731     2.584

molecular dipole:
                 x           y           z       tot (Debye)
 q only:        0.937      -0.009       0.002
   full:        0.192      -0.001       0.001       0.489

 projected vibrational frequencies (cm⁻¹)
eigval :       -0.00    -0.00    -0.00    -0.00     0.00     0.00
eigval :       16.70    21.03    25.15    26.11    27.07    27.63
eigval :       53.18    54.94    69.05    93.11    97.83   105.89
eigval :      112.42   114.20   132.14   136.45   143.89   149.49
eigval :      154.33   160.60   173.23   175.17   189.52   221.91
eigval :      223.45   268.92   271.31   272.71   273.36   280.55
eigval :      287.26   293.19   321.00   327.14   350.89   387.63
eigval :      395.03   396.95   397.92   420.06   422.58   423.53
eigval :      431.99   437.13   439.14   489.63   490.57   514.29
eigval :      516.16   516.79   520.98   524.62   526.38   540.35
eigval :      542.25   542.63   543.34   562.79   582.01   587.65
eigval :      589.59   592.71   630.71   633.74   647.80   659.44
eigval :      665.30   672.29   674.48   675.23   680.40   701.03
eigval :      706.84   710.66   710.94   749.78   754.59   755.71
eigval :      766.26   768.73   769.89   770.03   778.91   780.79
eigval :      781.72   806.69   865.45   867.02   872.01   872.45
eigval :      873.02   873.81   892.01   893.81   899.35   900.06
eigval :      902.35   902.59   903.03   903.28   905.53   905.67
eigval :      919.14   919.73   921.03   921.46   924.90   925.14
eigval :     1010.97  1011.85  1013.58  1044.77  1053.25  1061.73
eigval :     1065.57  1067.96  1068.61  1069.95  1073.62  1074.96
eigval :     1124.84  1144.89  1146.54  1148.21  1151.90  1152.66
eigval :     1173.22  1175.61  1175.82  1176.97  1177.55  1179.07
eigval :     1205.08  1221.94  1222.64  1227.01  1229.15  1232.36
eigval :     1250.31  1264.78  1278.61  1280.40  1289.25  1291.37
eigval :     1295.13  1296.97  1304.62  1307.88  1352.41  1352.58
eigval :     1354.89  1356.04  1356.99  1359.08  1398.99  1399.86
eigval :     1405.12  1418.70  1421.41  1422.83  1425.89  1428.50
eigval :     1464.42  1469.62  1471.80  1472.31  1482.29  1482.65
eigval :     1484.48  1491.22  1496.29  1575.52  1576.39  1576.51
eigval :     1589.70  1589.98  1591.55  1597.70  1597.91  1599.73
eigval :     1608.55  1608.89  1611.91  3075.43  3075.98  3079.67
eigval :     3079.69  3079.94  3079.95  3080.80  3081.53  3086.28
eigval :     3086.37  3087.17  3087.29  3087.45  3088.77  3095.00
eigval :     3095.05  3096.17  3096.63  3096.70  3098.30  3101.15
eigval :     3101.22  3109.16  3109.51

   temp. (K)  partition function   enthalpy   heat capacity  entropy
                                   cal/mol     cal/K/mol   cal/K/mol   J/K/mol
 298.15  VIB  0.299E+16            21031.313    134.643    128.520
         ROT  0.322E+08              888.752      2.981     37.337
         INT  0.965E+23            21920.065    137.624    165.857
         TR   0.158E+29             1481.254      4.968     45.247
         TOT                       23401.3189   142.5922   211.1043   883.2606

       T/K    H(0)-H(T)+PV         H(T)/Eh          T*S/Eh         G(T)/Eh
   ------------------------------------------------------------------------
    298.15    0.372924E-01    0.558514E+00    0.100302E+00    0.458212E+00
   ------------------------------------------------------------------------

         :::::::::::::::::::::::::::::::::::::::::::::::::::::
         ::                  THERMODYNAMIC                  ::
         :::::::::::::::::::::::::::::::::::::::::::::::::::::
         :: total free energy        -120.546829783294 Eh   ::
         ::.................................................::
         :: total energy             -121.005041302432 Eh   ::
         :: zero point energy           0.521221631993 Eh   ::
         :: G(RRHO) w/o ZPVE           -0.063010112854 Eh   ::
         :: G(RRHO) contrib.            0.458211519139 Eh   ::
         :::::::::::::::::::::::::::::::::::::::::::::::::::::

           -------------------------------------------------
          | TOTAL ENERGY             -121.005041302432 Eh   |
          | TOTAL ENTHALPY           -120.446527295008 Eh   |
          | TOTAL FREE ENERGY        -120.546829783294 Eh   |
          | GRADIENT NORM               0.000057405957 Eh/α |
          | HOMO-LUMO GAP               2.482352479142 eV   |
           -------------------------------------------------

 * finished run on 2025/08/25 at 03:30:06.496
