   * xtb version 6.7.1 (edcfbbe) compiled by 'albert@albert-system' on 2024-07-22

   ID    Z sym.   atoms
    1   17 Cl     1, 33
    2    6 C      2, 3, 5-16, 18, 20-32, 34, 36-47
    3    7 N      4, 17, 19, 35
    4    1 H      48-71

          program call               : xtb data2507/toluene/2,4,6-CzPyCl2/2,4,6-CzPyCl2.xyz --gfn 2 --gbsa toluene --ohess vtight --parallel 40 --molden --ceasefiles --namespace data2507/toluene/2,4,6-CzPyCl2/2,4,6-CzPyCl2_toluene_S0_preOpt
      * Solvation model:               GBSA
        Solvent                        toluene
        Solvent mass                       9.2140E+01 g/mol
          :  Hamiltonian                  GFN2-xTB          :
 * total energy  :  -120.9796735 Eh     change       -0.5676398E-08 Eh
 * total energy  :  -120.9987011 Eh     change       -0.1902752E-01 Eh
 * total energy  :  -121.0032739 Eh     change       -0.4572887E-02 Eh
 * total energy  :  -121.0039823 Eh     change       -0.7084040E-03 Eh
 * total energy  :  -121.0043466 Eh     change       -0.3642617E-03 Eh
 * total energy  :  -121.0044625 Eh     change       -0.1159131E-03 Eh
 * total energy  :  -121.0045354 Eh     change       -0.7284570E-04 Eh
 * total energy  :  -121.0045738 Eh     change       -0.3838468E-04 Eh
 * total energy  :  -121.0046141 Eh     change       -0.4037548E-04 Eh
 * total energy  :  -121.0046454 Eh     change       -0.3128476E-04 Eh
 * total energy  :  -121.0050721 Eh     change       -0.7284955E-06 Eh
 * total energy  :  -121.0050727 Eh     change       -0.6215968E-06 Eh
 * total energy  :  -121.0050732 Eh     change       -0.4751143E-06 Eh
 * total energy  :  -121.0050735 Eh     change       -0.3100417E-06 Eh
 * total energy  :  -121.0050737 Eh     change       -0.1935163E-06 Eh
 * total energy  :  -121.0050738 Eh     change       -0.1366942E-06 Eh
 * total energy  :  -121.0050740 Eh     change       -0.1224226E-06 Eh
 * total energy  :  -121.0050741 Eh     change       -0.1306692E-06 Eh
 * total energy  :  -121.0050741 Eh     change       -0.1569262E-08 Eh
   *** GEOMETRY OPTIMIZATION CONVERGED AFTER 44 ITERATIONS ***

 final structure:
================
71
 xtb: 6.7.1 (edcfbbe)
Cl          -1.64681229930921       -2.49819711067564       -1.03309341979348
C           -0.79242074320720       -1.14574852760217       -0.36600320893021
C            0.60719873189717       -1.12635921838727       -0.26849479157969
N            1.39063256146022       -2.23716943994876       -0.50833069574263
C            2.54538447058577       -2.24248489911390       -1.28816710134559
C            3.16530870312084       -1.19711867131735       -1.95107531673113
C            4.29012322830659       -1.48900630696644       -2.70230697976079
C            4.78425646340914       -2.78730487231468       -2.79663579069478
C            4.16420246455401       -3.83303908364540       -2.14024326764719
C            3.03542925089328       -3.56168967187517       -1.37807780010211
C            2.16891319644529       -4.38314685665975       -0.57355881579981
C            2.18036396902555       -5.73043748747052       -0.23940651396325
C            1.22073166110298       -6.20408855042655        0.63490264941108
C            0.27919859544457       -5.34551055112236        1.19414306453690
C            0.25047418742274       -3.99977530344872        0.87348905723397
C            1.17743222619595       -3.52948523125702       -0.04294286055984
N            1.25041593858141       -0.00022575084803       -0.00003545490755
C            0.60760836325740        1.12613798597079        0.26843622011146
N            1.39143835235605        2.23666828728705        0.50827241731690
C            1.17866845811027        3.52906810789165        0.04292310067598
C            0.25187885361739        3.99968756186004       -0.87350997225868
C            0.28103858771763        5.34542556209794       -1.19411251008487
C            1.22283581496192        6.20368060316996       -0.63482069476273
C            2.18230091059026        5.72969058397795        0.23948847476279
C            2.17041327893125        4.38239107744545        0.57359003057858
C            3.03664818705760        3.56062424667528        1.37809551414252
C            4.16549139264769        3.83158177529694        2.14029642203464
C            4.78518606116257        2.78562523666963        2.79667416955641
C            4.29063234159490        1.48749040516855        2.70229276546958
C            3.16574335439657        1.19599219840288        1.95102135145436
C            2.54617500534594        2.24158211452854        1.28813356861692
C           -0.79200130835873        1.14602513460180        0.36597056347247
Cl          -1.64589765286532        2.49877180568177        1.03308820522577
C           -1.50636835233425        0.00026632360497       -0.00000863637320
N           -2.89771891311009        0.00052604869158        0.00002533180043
C           -3.70787487220382       -0.83086553256455        0.75538743128618
C           -3.35349947473456       -1.78387277164783        1.69593416045146
C           -4.37161815206103       -2.46469095264819        2.33783655230698
C           -5.70962770467081       -2.19406582547352        2.06206414052411
C           -6.06644283539290       -1.22373700787011        1.14555166822184
C           -5.06045849162389       -0.52968273593964        0.48586418510004
C           -5.06026575705499        0.53146179960228       -0.48588460500938
C           -6.06599435252496        1.22584868085651       -1.14561265737106
C           -5.70882233446101        2.19604611566866       -2.06212522771334
C           -4.37071313479365        2.46622004691032       -2.33785567764563
C           -3.35284569211313        1.78506473938917       -1.69591288307898
C           -3.70757292899670        0.83218538981193       -0.75536894425588
H            2.79013424904131       -0.18958165315206       -1.87140683009489
H            4.79571544380448       -0.69040853924679       -3.22445730013092
H            5.66537155284883       -2.97574571414595       -3.39164729096255
H            4.54440640824300       -4.84021693953678       -2.21555777466721
H            2.93232343614800       -6.38800397382077       -0.64762483301444
H            1.20958949713368       -7.24919022278233        0.90571212133436
H           -0.44053212485215       -5.73312951587214        1.89982012406378
H           -0.46711676568126       -3.34208520942119        1.33822386643670
H           -0.46591641344833        3.34224263407524       -1.33827673136974
H           -0.43855884502573        5.73330322842500       -1.89978371208844
H            1.21203465008015        7.24879513827605       -0.90559452060368
H            2.93446878416078        6.38699915689827        0.64773822751970
H            4.54601666652488        4.83863497589439        2.21565620368667
H            5.66634237596355        2.97376207652235        3.39172084847193
H            4.79595208217185        0.68871246584064        3.22443147174339
H            2.79024243301257        0.18858029966378        1.87130691610602
H           -2.31769203586781       -1.98296003180089        1.92715081228071
H           -4.12265283022704       -3.21767433785126        3.07084159063033
H           -6.47712002906533       -2.74694014015885        2.58274691765402
H           -7.10399796468820       -1.00278009154200        0.94656408919159
H           -7.10363067600242        1.00524275784681       -0.94665981874643
H           -6.47611140593133        2.74917101183828       -2.58284148127009
H           -4.12147112838226        3.21911251410294       -3.07086006955904
H           -2.31696397033908        1.98379963790896       -1.92709904480163

          :  Hamiltonian                  GFN2-xTB          :
         :: gradient norm              0.000028970274 Eh/a0 ::
         :: HOMO-LUMO gap              2.475180559249 eV    ::
         :: SCC energy              -123.080372202614 Eh    ::
         :: -> dispersion             -0.114247518347 Eh    ::
         :: -> Gsolv                  -0.047120701014 Eh    ::
         :: repulsion energy           2.075298099952 Eh    ::

    * Orbital Energies and Occupations

         #    Occupation            Energy/Eh            Energy/eV
      -------------------------------------------------------------
         1        2.0000           -1.0816595             -29.4335
       ...           ...                  ...                  ...
        99        2.0000           -0.4261636             -11.5965
       100        2.0000           -0.4247765             -11.5588
       101        2.0000           -0.4206075             -11.4453
       102        2.0000           -0.4151341             -11.2964
       103        2.0000           -0.4129472             -11.2369
       104        2.0000           -0.4127483             -11.2315
       105        2.0000           -0.4114395             -11.1958
       106        2.0000           -0.3893889             -10.5958
       107        2.0000           -0.3872568             -10.5378
       108        2.0000           -0.3872543             -10.5377
       109        2.0000           -0.3799838             -10.3399
       110        2.0000           -0.3788639             -10.3094
       111        2.0000           -0.3764077             -10.2426 (HOMO)
       112                         -0.2854465              -7.7674 (LUMO)
       113                         -0.2775460              -7.5524
       114                         -0.2551757              -6.9437
       115                         -0.2525915              -6.8734
       116                         -0.2512628              -6.8372
       117                         -0.2322530              -6.3199
       118                         -0.2299831              -6.2582
       119                         -0.2299732              -6.2579
       120                         -0.2124777              -5.7818
       121                         -0.2024462              -5.5088
       122                         -0.2006905              -5.4611
       ...                                ...                  ...
       222                          0.7364454              20.0397
      -------------------------------------------------------------
                  HL-Gap            0.0909612 Eh            2.4752 eV

     #   Z          covCN         q      C6AA      α(0)
     1  17 Cl       0.948    -0.150   103.853    15.591
     2   6 C        2.883     0.044    27.019     8.522
     3   6 C        2.896     0.146    24.819     8.168
     4   7 N        2.805    -0.037    21.951     6.959
     5   6 C        3.064     0.052    26.776     8.485
     6   6 C        2.910    -0.045    29.123     8.849
     7   6 C        2.925    -0.031    28.772     8.796
     8   6 C        2.920    -0.037    28.930     8.820
     9   6 C        2.913    -0.032    28.807     8.801
    10   6 C        3.064    -0.013    28.262     8.718
    11   6 C        3.064    -0.012    28.243     8.715
    12   6 C        2.913    -0.032    28.801     8.800
    13   6 C        2.920    -0.038    28.946     8.823
    14   6 C        2.924    -0.032    28.804     8.801
    15   6 C        2.911    -0.045    29.130     8.850
    16   6 C        3.060     0.048    26.871     8.501
    17   7 N        1.862    -0.259    27.577     7.784
    18   6 C        2.896     0.146    24.819     8.168
    19   7 N        2.805    -0.037    21.951     6.959
    20   6 C        3.060     0.048    26.871     8.501
    21   6 C        2.911    -0.045    29.130     8.850
    22   6 C        2.924    -0.032    28.804     8.801
    23   6 C        2.920    -0.038    28.946     8.823
    24   6 C        2.913    -0.032    28.801     8.800
    25   6 C        3.064    -0.012    28.243     8.715
    26   6 C        3.064    -0.013    28.262     8.718
    27   6 C        2.913    -0.032    28.807     8.801
    28   6 C        2.920    -0.037    28.930     8.820
    29   6 C        2.925    -0.031    28.772     8.796
    30   6 C        2.910    -0.045    29.123     8.849
    31   6 C        3.064     0.052    26.776     8.485
    32   6 C        2.883     0.044    27.019     8.522
    33  17 Cl       0.948    -0.150   103.853    15.591
    34   6 C        2.979     0.066    26.526     8.448
    35   7 N        2.804    -0.041    22.032     6.971
    36   6 C        3.070     0.051    26.797     8.488
    37   6 C        2.910    -0.047    29.158     8.854
    38   6 C        2.924    -0.032    28.799     8.801
    39   6 C        2.920    -0.039    28.975     8.827
    40   6 C        2.913    -0.032    28.809     8.801
    41   6 C        3.066    -0.014    28.301     8.723
    42   6 C        3.066    -0.014    28.301     8.723
    43   6 C        2.913    -0.032    28.809     8.801
    44   6 C        2.920    -0.039    28.975     8.827
    45   6 C        2.924    -0.032    28.799     8.801
    46   6 C        2.910    -0.047    29.158     8.854
    47   6 C        3.070     0.051    26.797     8.488
    48   1 H        0.926     0.040     2.449     2.447
    49   1 H        0.926     0.041     2.432     2.439
    50   1 H        0.926     0.041     2.438     2.442
    51   1 H        0.926     0.043     2.409     2.427
    52   1 H        0.926     0.044     2.402     2.424
    53   1 H        0.926     0.040     2.455     2.450
    54   1 H        0.926     0.038     2.473     2.459
    55   1 H        0.926     0.024     2.675     2.558
    56   1 H        0.926     0.024     2.675     2.558
    57   1 H        0.926     0.038     2.473     2.459
    58   1 H        0.926     0.040     2.455     2.450
    59   1 H        0.926     0.044     2.402     2.424
    60   1 H        0.926     0.043     2.409     2.427
    61   1 H        0.926     0.041     2.438     2.442
    62   1 H        0.926     0.041     2.432     2.439
    63   1 H        0.926     0.040     2.449     2.447
    64   1 H        0.926     0.020     2.732     2.585
    65   1 H        0.926     0.038     2.476     2.461
    66   1 H        0.926     0.038     2.473     2.459
    67   1 H        0.926     0.041     2.440     2.443
    68   1 H        0.926     0.041     2.440     2.443
    69   1 H        0.926     0.038     2.473     2.459
    70   1 H        0.926     0.038     2.476     2.461
    71   1 H        0.926     0.020     2.732     2.585

molecular dipole:
                 x           y           z       tot (Debye)
 q only:        0.922      -0.000       0.000
   full:        0.177      -0.000      -0.000       0.450

 projected vibrational frequencies (cm⁻¹)
eigval :       -0.00    -0.00    -0.00    -0.00     0.00     0.00
eigval :       19.84    20.29    26.20    26.57    27.87    28.88
eigval :       52.66    53.72    68.64    95.24    98.45   106.50
eigval :      110.31   114.77   133.48   135.94   143.10   150.70
eigval :      154.09   160.73   174.09   175.30   189.64   222.48
eigval :      224.21   268.20   271.51   273.39   274.15   280.32
eigval :      287.00   293.29   321.11   327.49   351.42   387.46
eigval :      395.81   397.75   398.76   420.76   421.92   423.58
eigval :      432.27   436.62   438.69   490.54   490.65   514.65
eigval :      516.44   517.02   520.91   525.24   526.65   540.74
eigval :      542.00   542.18   543.56   562.29   581.94   587.68
eigval :      589.57   592.78   630.48   633.92   648.10   659.77
eigval :      665.51   672.44   674.86   675.47   680.31   701.16
eigval :      707.22   710.24   710.41   749.87   754.72   755.60
eigval :      768.36   770.02   771.01   771.62   780.11   781.53
eigval :      782.67   807.12   868.26   869.31   872.00   872.58
eigval :      875.29   876.35   892.18   893.87   902.03   902.04
eigval :      902.75   903.30   904.28   904.47   905.21   905.59
eigval :      921.26   921.64   922.43   922.49   923.40   923.53
eigval :     1011.21  1011.85  1013.75  1045.02  1053.50  1062.11
eigval :     1066.87  1068.44  1068.77  1070.97  1073.53  1074.97
eigval :     1125.34  1146.35  1147.54  1149.07  1152.52  1153.34
eigval :     1175.07  1176.27  1176.50  1178.00  1178.92  1180.27
eigval :     1205.61  1222.33  1223.80  1227.63  1229.53  1233.39
eigval :     1251.23  1265.28  1279.80  1280.80  1289.71  1292.42
eigval :     1295.84  1297.30  1305.25  1308.13  1352.67  1352.77
eigval :     1354.80  1356.17  1356.95  1359.16  1399.27  1400.21
eigval :     1405.56  1418.83  1421.88  1423.20  1426.29  1428.57
eigval :     1464.57  1470.04  1472.23  1472.44  1482.61  1482.94
eigval :     1484.49  1491.44  1496.39  1575.41  1576.46  1576.59
eigval :     1589.82  1590.08  1591.48  1597.88  1598.10  1599.72
eigval :     1608.72  1609.05  1611.84  3075.15  3075.47  3079.01
eigval :     3079.01  3079.78  3079.78  3080.94  3081.40  3085.97
eigval :     3085.98  3087.31  3087.32  3087.89  3088.83  3094.29
eigval :     3094.31  3096.48  3096.53  3096.58  3098.59  3100.31
eigval :     3100.37  3108.03  3108.34

   temp. (K)  partition function   enthalpy   heat capacity  entropy
                                   cal/mol     cal/K/mol   cal/K/mol   J/K/mol
 298.15  VIB  0.231E+16            21010.432    134.576    128.230
         ROT  0.323E+08              888.752      2.981     37.339
         INT  0.746E+23            21899.185    137.557    165.570
         TR   0.158E+29             1481.254      4.968     45.247
         TOT                       23380.4385   142.5251   210.8168   882.0573

       T/K    H(0)-H(T)+PV         H(T)/Eh          T*S/Eh         G(T)/Eh
   ------------------------------------------------------------------------
    298.15    0.372591E-01    0.558644E+00    0.100166E+00    0.458478E+00
   ------------------------------------------------------------------------

         :::::::::::::::::::::::::::::::::::::::::::::::::::::
         ::                  THERMODYNAMIC                  ::
         :::::::::::::::::::::::::::::::::::::::::::::::::::::
         :: total free energy        -120.546596380564 Eh   ::
         ::.................................................::
         :: total energy             -121.005074103152 Eh   ::
         :: zero point energy           0.521384467582 Eh   ::
         :: G(RRHO) w/o ZPVE           -0.062906744995 Eh   ::
         :: G(RRHO) contrib.            0.458477722587 Eh   ::
         :::::::::::::::::::::::::::::::::::::::::::::::::::::

           -------------------------------------------------
          | TOTAL ENERGY             -121.005074103152 Eh   |
          | TOTAL ENTHALPY           -120.446430535163 Eh   |
          | TOTAL FREE ENERGY        -120.546596380564 Eh   |
          | GRADIENT NORM               0.000028974169 Eh/α |
          | HOMO-LUMO GAP               2.475180650288 eV   |
           -------------------------------------------------

 * finished run on 2025/08/25 at 03:26:21.370
