   * xtb version 6.7.1 (edcfbbe) compiled by 'albert@albert-system' on 2024-07-22

   ID    Z sym.   atoms
    1    6 C      1-9, 11-21, 23, 27, 29-35
    2    7 N      10, 22, 24, 26, 28
    3    8 O      25
    4    1 H      36-54

          program call               : xtb data2507/gas/ANOP-DMAC/ANOP-DMAC_gas_S0_finalOpt.xtbopt.xyz --gfn 2 --spinpol --tblite --uhf 2 --ohess vtight --parallel 40 --molden --ceasefiles --namespace data2507/gas/ANOP-DMAC/ANOP-DMAC_gas_T1_preOpt
 * total energy  :   -90.4014915 Eh     change       -0.1400279E-07 Eh
 * total energy  :   -90.4064705 Eh     change       -0.4978925E-02 Eh
 * total energy  :   -90.4085303 Eh     change       -0.2059823E-02 Eh
 * total energy  :   -90.4087203 Eh     change       -0.1900018E-03 Eh
 * total energy  :   -90.4088199 Eh     change       -0.9963330E-04 Eh
 * total energy  :   -90.4088290 Eh     change       -0.9060856E-05 Eh
 * total energy  :   -90.4088364 Eh     change       -0.7407233E-05 Eh
 * total energy  :   -90.4088418 Eh     change       -0.5413397E-05 Eh
 * total energy  :   -90.4088483 Eh     change       -0.6455653E-05 Eh
 * total energy  :   -90.4088545 Eh     change       -0.6253437E-05 Eh
 * total energy  :   -90.4089760 Eh     change       -0.7657270E-06 Eh
 * total energy  :   -90.4089768 Eh     change       -0.7866940E-06 Eh
 * total energy  :   -90.4089776 Eh     change       -0.7891313E-06 Eh
 * total energy  :   -90.4089783 Eh     change       -0.7228181E-06 Eh
 * total energy  :   -90.4089790 Eh     change       -0.7018075E-06 Eh
 * total energy  :   -90.4089796 Eh     change       -0.6350995E-06 Eh
 * total energy  :   -90.4089803 Eh     change       -0.6867235E-06 Eh
 * total energy  :   -90.4089810 Eh     change       -0.6783136E-06 Eh
 * total energy  :   -90.4089810 Eh     change       -0.2391928E-07 Eh
   *** GEOMETRY OPTIMIZATION CONVERGED AFTER 68 ITERATIONS ***

 final structure:
================
54
 xtb: 6.7.1 (edcfbbe)
C           -6.02884823435708        0.25039250995894       -1.17951422425435
C           -5.02530120867082       -0.02187756583022       -0.04369012283332
C           -5.77199522110429       -0.41355091139204        1.24507351774984
C           -4.23474185763945        1.24297918179084        0.22486686167722
C           -4.90169312287842        2.39354616222582        0.62391298449616
C           -4.23094611720134        3.56616553523112        0.91649643417204
C           -2.84965774866197        3.59696130667790        0.83047598968404
C           -2.16195048436593        2.47076446558123        0.43392044467694
C           -2.84064246841092        1.29193636479747        0.10590723167643
N           -2.12447114501268        0.17923900008913       -0.30695561655778
C           -0.71369156369785        0.26359913918649       -0.41883606258940
C           -0.14122766886159        0.94473324065393       -1.47462808999170
C            1.24773485051152        1.06684987167695       -1.64762213245257
C            2.07140492144989        0.47684069062890       -0.71916038448805
C            1.48172338387687       -0.22010441897794        0.36365467266861
C            2.46181314156893       -0.76666941034318        1.22653340833331
C            2.04904929459474       -1.47175083049058        2.33009319979235
C            0.66510834404121       -1.61123147221854        2.55015848294685
C           -0.28491731027722       -1.08166917879374        1.71054179267089
C            0.11094897331561       -0.35604238170408        0.56268246457379
C            3.74238620986203       -0.39817592496708        0.65890891939810
N            4.96222905869734       -0.66284252986552        1.08284499335059
C            5.97116888720887       -0.20101480747376        0.37157096805171
N            7.25795189949189       -0.28651170669280        0.51584290692597
O            7.82104952597088        0.38538845763810       -0.52673950574949
N            6.88053465453903        0.91421302661340       -1.35898004339186
C            5.72061308308345        0.59523947973163       -0.87161657696400
N            4.48898835337941        0.84323813185810       -1.26808240556953
C            3.50148115526335        0.36607997349967       -0.53431329912360
C           -2.74452862094761       -1.02715836343877       -0.59289665215304
C           -1.97802449761136       -2.10768289078141       -1.04397527548524
C           -2.56289816566417       -3.32469485036506       -1.31778643740092
C           -3.92871193730630       -3.48421957895174       -1.15774140045715
C           -4.69257024809903       -2.40933798545283       -0.74323990913444
C           -4.13035119531798       -1.17174003291845       -0.46002433277531
H           -6.62860825208121       -0.63133535305896       -1.38632835126504
H           -5.49515631924343        0.52336721234231       -2.08791245385042
H           -6.69918499394748        1.06403850464798       -0.91775218771379
H           -5.05868141761807       -0.59724297134707        2.04647666442210
H           -6.44358540284142        0.37973900198171        1.56041807215626
H           -6.35856354707148       -1.31531187412999        1.09464669608035
H           -5.97711312718197        2.37912389249700        0.71298222410200
H           -4.78103745488969        4.44346941018008        1.21964548448512
H           -2.30546330128156        4.49649640783098        1.07462088614642
H           -1.08474755509846        2.49843721643249        0.38200125238092
H           -0.79721807590477        1.40456842294120       -2.20016968205506
H            1.64236651689832        1.60676321192377       -2.49377706022613
H            2.75643268334410       -1.90993404223784        3.01665293999407
H            0.34261939491069       -2.16256270078952        3.42131369952136
H           -1.33498406738455       -1.21916014725949        1.92189137971335
H           -0.91523978763200       -1.98746250987639       -1.18485124958486
H           -1.95159086503748       -4.14581426103937       -1.65972648242285
H           -4.39755636362820       -4.43363896521362       -1.36498457101775
H           -5.75852186811254       -2.54349468864375       -0.64104446280900

 projected vibrational frequencies (cm⁻¹)
eigval :       -0.00    -0.00    -0.00     0.00     0.00     0.00
eigval :       15.88    19.37    20.62    48.63    68.97    90.75
eigval :       95.63   101.33   123.44   126.69   143.31   154.08
eigval :      173.81   189.57   195.57   201.10   217.71   236.32
eigval :      267.45   298.81   304.55   327.43   330.19   336.69
eigval :      348.30   359.58   377.40   385.92   405.16   410.05
eigval :      415.79   445.53   450.84   473.78   480.82   500.39
eigval :      510.83   529.14   535.11   544.01   547.19   554.38
eigval :      567.30   573.36   584.58   588.66   625.13   640.63
eigval :      653.88   665.20   673.01   684.08   693.59   696.16
eigval :      701.68   726.95   741.91   775.22   776.67   785.81
eigval :      793.61   815.36   824.72   838.13   852.64   867.62
eigval :      868.22   872.64   890.60   908.92   914.01   914.78
eigval :      916.37   921.95   922.15   924.19   929.99   938.21
eigval :      946.36   957.49  1013.13  1022.98  1037.53  1067.05
eigval :     1076.24  1092.09  1110.87  1113.54  1117.01  1127.13
eigval :     1139.94  1156.85  1164.89  1183.85  1185.15  1186.00
eigval :     1188.90  1198.51  1209.27  1218.52  1242.06  1246.92
eigval :     1247.22  1265.00  1294.13  1297.72  1300.84  1320.37
eigval :     1332.19  1333.66  1335.44  1351.81  1386.53  1397.26
eigval :     1402.39  1419.75  1427.22  1434.12  1434.47  1438.87
eigval :     1466.91  1476.12  1485.85  1486.11  1488.42  1489.07
eigval :     1498.44  1501.05  1567.13  1574.97  1581.76  1585.66
eigval :     1586.44  1596.16  1604.20  1608.76  1614.45  3027.32
eigval :     3030.09  3043.31  3045.78  3052.02  3055.79  3081.94
eigval :     3084.05  3085.26  3085.44  3089.68  3089.86  3092.77
eigval :     3099.48  3099.93  3104.52  3105.39  3105.91  3106.23

   temp. (K)  partition function   enthalpy   heat capacity  entropy
                                   cal/mol     cal/K/mol   cal/K/mol   J/K/mol
 298.15  VIB  0.233E+11            14965.939     99.598     89.948
         ROT  0.275E+08              888.752      2.981     37.025
         INT  0.642E+18            15854.691    102.579    126.973
         TR   0.934E+28             1481.254      4.968     44.204
         TOT                       17335.9449   107.5474   171.1770   716.2047

       T/K    H(0)-H(T)+PV         H(T)/Eh          T*S/Eh         G(T)/Eh
   ------------------------------------------------------------------------
    298.15    0.276266E-01    0.429832E+00    0.813317E-01    0.348500E+00
   ------------------------------------------------------------------------

         :::::::::::::::::::::::::::::::::::::::::::::::::::::
         ::                  THERMODYNAMIC                  ::
         :::::::::::::::::::::::::::::::::::::::::::::::::::::
         :: total free energy         -90.060481115554 Eh   ::
         ::.................................................::
         :: total energy              -90.408981022411 Eh   ::
         :: zero point energy           0.402205048057 Eh   ::
         :: G(RRHO) w/o ZPVE           -0.053705141200 Eh   ::
         :: G(RRHO) contrib.            0.348499906857 Eh   ::
         :::::::::::::::::::::::::::::::::::::::::::::::::::::

           -------------------------------------------------
          | TOTAL ENERGY              -90.408981022411 Eh   |
          | TOTAL ENTHALPY            -89.979149387595 Eh   |
          | TOTAL FREE ENERGY         -90.060481115554 Eh   |
          | GRADIENT NORM               0.000099742060 Eh/α |
           -------------------------------------------------

 * finished run on 2025/09/08 at 11:40:17.214
