   * xtb version 6.7.1 (edcfbbe) compiled by 'albert@albert-system' on 2024-07-22

   ID    Z sym.   atoms
    1    6 C      1-9, 11-21, 23, 27, 29-35
    2    7 N      10, 22, 24, 26, 28
    3    8 O      25
    4    1 H      36-54

          program call               : xtb data2507/gas/ANOP-DMAC/ANOP-DMAC.xyz --gfn 2 --ohess vtight --parallel 40 --molden --ceasefiles --namespace data2507/gas/ANOP-DMAC/ANOP-DMAC_gas_S0_preOpt
          :  Hamiltonian                  GFN2-xTB          :
 * total energy  :   -90.4096739 Eh     change       -0.1710367E-07 Eh
 * total energy  :   -90.4313039 Eh     change       -0.2163000E-01 Eh
 * total energy  :   -90.4380100 Eh     change       -0.6706038E-02 Eh
 * total energy  :   -90.4388083 Eh     change       -0.7982954E-03 Eh
 * total energy  :   -90.4391966 Eh     change       -0.3883464E-03 Eh
 * total energy  :   -90.4392565 Eh     change       -0.5985103E-04 Eh
 * total energy  :   -90.4392777 Eh     change       -0.2122512E-04 Eh
 * total energy  :   -90.4392880 Eh     change       -0.1027527E-04 Eh
 * total energy  :   -90.4392939 Eh     change       -0.5978211E-05 Eh
 * total energy  :   -90.4392998 Eh     change       -0.5843159E-05 Eh
 * total energy  :   -90.4393135 Eh     change       -0.3587522E-05 Eh
 * total energy  :   -90.4393173 Eh     change       -0.3721812E-05 Eh
 * total energy  :   -90.4393209 Eh     change       -0.3680181E-05 Eh
 * total energy  :   -90.4393240 Eh     change       -0.3106337E-05 Eh
 * total energy  :   -90.4393259 Eh     change       -0.1859000E-05 Eh
 * total energy  :   -90.4393267 Eh     change       -0.8379398E-06 Eh
 * total energy  :   -90.4393272 Eh     change       -0.4705362E-06 Eh
 * total energy  :   -90.4393275 Eh     change       -0.3227862E-06 Eh
 * total energy  :   -90.4393275 Eh     change       -0.4972961E-08 Eh
   *** GEOMETRY OPTIMIZATION CONVERGED AFTER 22 ITERATIONS ***

 final structure:
================
54
 xtb: 6.7.1 (edcfbbe)
C           -4.86658011637402        0.00006129886946        1.21953437323230
C           -3.87243187162369        0.00004619392263        0.04425187086768
C           -4.63120245917436       -0.00010912059431       -1.29538117612885
C           -3.02733304536913       -1.25756332414892        0.12496875590577
C           -3.63781051846585       -2.50139973060150        0.03915681056799
C           -2.91680916234252       -3.67932812385347        0.10557208828435
C           -1.54367468955452       -3.62596104436148        0.26151594999098
C           -0.91128016228149       -2.40388452792968        0.35335929384699
C           -1.64000462670932       -1.21357194760941        0.29009738966145
N           -0.97598929411042        0.00028091211407        0.39274912767032
C            0.43071660183859        0.00037814839147        0.56661878189153
C            0.97197028862601        0.00135476660106        1.83735612094409
C            2.35535173947461        0.00151279067811        2.07829683261526
C            3.20236070164328        0.00066629786354        0.99627802880799
C            2.65071445925434       -0.00028326576271       -0.30621885823710
C            3.64030761849046       -0.00095731854184       -1.31652674398693
C            3.24859839926089       -0.00182390631697       -2.63305154774690
C            1.87085728993586       -0.00203672245132       -2.91694876553655
C            0.90702376881465       -0.00140423963926       -1.93577687789806
C            1.27998743877071       -0.00048602950958       -0.57362646450131
C            4.91799831168061       -0.00050157269619       -0.62705435967125
N            6.10893026102456       -0.00086809486918       -1.14614039202866
C            7.07931817724733       -0.00023520013393       -0.20549961543575
N            8.38582072353780       -0.00031441616574       -0.35445209842532
O            8.89183475712529        0.00045795925107        0.87866694149047
N            7.96920053448595        0.00112538191231        1.84067823313730
C            6.80809559954893        0.00075661854074        1.22333786590745
N            5.56068275186704        0.00113086446211        1.74288533059324
C            4.64286739356160        0.00050605684077        0.82302014285334
C           -1.64018234762676        1.21402434437107        0.28992825129552
C           -0.91160269396959        2.40444709614299        0.35276161428308
C           -1.54416668312447        3.62641810639908        0.26067930401947
C           -2.91732322068882        3.67956545531571        0.10485602380717
C           -3.63816764596587        2.50152505762417        0.03872968717169
C           -3.02751781273858        1.25779010434705        0.12479566283365
H           -5.50204292395340        0.88083740049860        1.18930498745657
H           -4.32429990449117        0.00020913210109        2.16326278168141
H           -5.50187253097821       -0.88084300172610        1.18948138340192
H           -3.92391503622334       -0.00016452686274       -2.12285818102728
H           -5.26227171406473       -0.87971092908747       -1.38470783899115
H           -5.26233714702554        0.87942715300125       -1.38488720978900
H           -4.70888132213871       -2.55937022008071       -0.08148786775211
H           -3.42420291527140       -4.62918595652782        0.03612516000112
H           -0.96160052091578       -4.53372186186699        0.31355284736378
H            0.16081445677330       -2.36753450360110        0.47709639509652
H            0.29405357157617        0.00200861335941        2.67862839728825
H            2.73519082582389        0.00218621831079        3.08756724031386
H            3.97405909986044       -0.00236788471136       -3.43116238353063
H            1.56276710399969       -0.00270607305838       -3.95208676208872
H           -0.14024102591688       -0.00157290415843       -2.19927809474907
H            0.16051998646847        2.36826363814387        0.47630147450403
H           -0.96220153969417        4.53426698895826        0.31239863161718
H           -3.42484875135808        4.62933940670580        0.03522631804695
H           -4.70925017853931        2.55932344214014       -0.08189586092644

          :  Hamiltonian                  GFN2-xTB          :
         :: gradient norm              0.000045037068 Eh/a0 ::
         :: HOMO-LUMO gap              0.483869655440 eV    ::
         :: SCC energy               -91.923130756469 Eh    ::
         :: -> dispersion             -0.078246584210 Eh    ::
         :: repulsion energy           1.483803216701 Eh    ::

    * Orbital Energies and Occupations

         #    Occupation            Energy/Eh            Energy/eV
      -------------------------------------------------------------
         1        2.0000           -0.7947819             -21.6271
       ...           ...                  ...                  ...
        71        2.0000           -0.4449538             -12.1078
        72        2.0000           -0.4407548             -11.9935
        73        2.0000           -0.4366734             -11.8825
        74        2.0000           -0.4337966             -11.8042
        75        2.0000           -0.4333452             -11.7919
        76        2.0000           -0.4204434             -11.4408
        77        2.0000           -0.4156627             -11.3108
        78        2.0000           -0.4136887             -11.2570
        79        2.0000           -0.4115667             -11.1993
        80        2.0000           -0.4060414             -11.0489
        81        2.0000           -0.4007401             -10.9047
        82        2.0000           -0.3773571             -10.2684
        83        1.9998           -0.3561861              -9.6923 (HOMO)
        84        0.0002           -0.3384041              -9.2084 (LUMO)
        85                         -0.3212101              -8.7406
        86                         -0.2647724              -7.2048
        87                         -0.2593652              -7.0577
        88                         -0.2337525              -6.3607
        89                         -0.2321398              -6.3168
        90                         -0.2271942              -6.1823
        91                         -0.2262775              -6.1573
        92                         -0.2101926              -5.7196
        93                         -0.1985277              -5.4022
        94                         -0.1788777              -4.8675
       ...                                ...                  ...
       159                          0.6960497              18.9405
      -------------------------------------------------------------
                  HL-Gap            0.0177820 Eh            0.4839 eV

     #   Z          covCN         q      C6AA      α(0)
     1   6 C        3.761    -0.103    22.522     6.765
     2   6 C        3.909     0.022    20.155     6.381
     3   6 C        3.761    -0.103    22.521     6.765
     4   6 C        2.979    -0.014    28.346     8.733
     5   6 C        2.928    -0.035    28.881     8.813
     6   6 C        2.917    -0.044    29.081     8.843
     7   6 C        2.920    -0.032    28.801     8.801
     8   6 C        2.924    -0.059    29.461     8.901
     9   6 C        2.929     0.057    26.713     8.476
    10   7 N        2.755    -0.073    22.652     7.069
    11   6 C        2.926     0.078    26.270     8.405
    12   6 C        2.922    -0.036    28.900     8.816
    13   6 C        2.912    -0.014    28.371     8.734
    14   6 C        3.024    -0.004    28.109     8.697
    15   6 C        3.134    -0.001    27.823     8.634
    16   6 C        3.023    -0.001    28.026     8.684
    17   6 C        2.912    -0.012    28.319     8.726
    18   6 C        2.919    -0.024    28.594     8.769
    19   6 C        2.917    -0.018    28.463     8.749
    20   6 C        2.978     0.010    27.797     8.648
    21   6 C        3.098     0.097    25.743     8.315
    22   7 N        1.828    -0.225    26.744     7.663
    23   6 C        3.046     0.141    24.891     8.183
    24   7 N        1.915    -0.114    24.239     7.300
    25   8 O        1.940     0.002    14.438     5.132
    26   7 N        1.915    -0.114    24.242     7.300
    27   6 C        3.046     0.141    24.890     8.182
    28   7 N        1.828    -0.225    26.755     7.665
    29   6 C        3.098     0.097    25.738     8.314
    30   6 C        2.929     0.057    26.713     8.476
    31   6 C        2.924    -0.059    29.461     8.901
    32   6 C        2.920    -0.032    28.801     8.801
    33   6 C        2.917    -0.044    29.081     8.843
    34   6 C        2.928    -0.035    28.881     8.813
    35   6 C        2.979    -0.014    28.346     8.733
    36   1 H        0.925     0.040     2.443     2.444
    37   1 H        0.925     0.032     2.559     2.502
    38   1 H        0.925     0.040     2.443     2.444
    39   1 H        0.925     0.030     2.588     2.516
    40   1 H        0.925     0.041     2.441     2.443
    41   1 H        0.925     0.041     2.441     2.443
    42   1 H        0.926     0.032     2.553     2.498
    43   1 H        0.926     0.029     2.600     2.522
    44   1 H        0.926     0.029     2.597     2.520
    45   1 H        0.926     0.019     2.752     2.594
    46   1 H        0.926     0.057     2.232     2.336
    47   1 H        0.926     0.066     2.126     2.280
    48   1 H        0.926     0.064     2.155     2.296
    49   1 H        0.926     0.051     2.301     2.372
    50   1 H        0.926     0.052     2.301     2.372
    51   1 H        0.926     0.019     2.752     2.594
    52   1 H        0.926     0.029     2.597     2.520
    53   1 H        0.926     0.029     2.600     2.522
    54   1 H        0.926     0.032     2.553     2.498

molecular dipole:
                 x           y           z       tot (Debye)
 q only:       -2.460      -0.000      -0.528
   full:       -2.769      -0.000      -0.589       7.196

 projected vibrational frequencies (cm⁻¹)
eigval :       -0.00    -0.00    -0.00     0.00     0.00     0.00
eigval :      -22.61    18.53    20.20    42.37    68.46    82.55
eigval :       97.06    98.87   125.82   126.36   136.31   153.90
eigval :      165.24   181.36   190.49   201.59   218.34   234.51
eigval :      275.13   293.94   304.83   325.88   330.70   332.75
eigval :      347.27   359.01   378.13   390.23   405.24   410.15
eigval :      415.10   426.07   446.23   473.73   481.20   497.66
eigval :      514.98   530.73   545.85   549.15   560.91   563.11
eigval :      578.78   586.51   587.88   625.70   636.30   659.02
eigval :      663.64   674.69   680.46   692.39   717.13   717.30
eigval :      737.34   765.24   772.36   776.17   777.36   786.36
eigval :      801.78   812.53   823.87   840.72   864.54   865.16
eigval :      896.18   898.56   912.54   913.09   913.92   918.67
eigval :      921.53   921.57   927.98   928.07   938.74   950.41
eigval :      957.31   975.02  1014.14  1037.44  1060.17  1070.43
eigval :     1077.06  1092.99  1104.33  1112.62  1118.50  1135.38
eigval :     1140.80  1160.87  1166.17  1183.34  1186.29  1187.00
eigval :     1189.26  1218.39  1229.51  1244.31  1248.78  1257.62
eigval :     1268.31  1293.90  1299.16  1305.83  1325.13  1333.50
eigval :     1336.64  1336.72  1343.64  1353.91  1391.05  1403.27
eigval :     1421.37  1425.60  1433.10  1436.36  1440.84  1443.22
eigval :     1479.33  1481.39  1489.48  1490.40  1495.48  1500.58
eigval :     1505.08  1557.94  1571.74  1576.81  1579.67  1587.66
eigval :     1591.93  1593.27  1600.40  1602.20  1613.98  3025.71
eigval :     3028.75  3040.70  3044.07  3049.11  3054.34  3079.82
eigval :     3079.95  3083.96  3084.09  3085.42  3090.05  3091.18
eigval :     3091.69  3095.99  3099.73  3100.46  3108.91  3109.79

   temp. (K)  partition function   enthalpy   heat capacity  entropy
                                   cal/mol     cal/K/mol   cal/K/mol   J/K/mol
 298.15  VIB  0.233E+10            14332.554     97.446     85.252
         ROT  0.274E+08              888.752      2.981     37.013
         INT  0.638E+17            15221.306    100.426    122.265
         TR   0.934E+28             1481.254      4.968     44.204
         TOT                       16702.5601   105.3946   166.4692   696.5071

       T/K    H(0)-H(T)+PV         H(T)/Eh          T*S/Eh         G(T)/Eh
   ------------------------------------------------------------------------
    298.15    0.266172E-01    0.430593E+00    0.790949E-01    0.351498E+00
   ------------------------------------------------------------------------

         :::::::::::::::::::::::::::::::::::::::::::::::::::::
         ::                  THERMODYNAMIC                  ::
         :::::::::::::::::::::::::::::::::::::::::::::::::::::
         :: total free energy         -90.087829720091 Eh   ::
         ::.................................................::
         :: total energy              -90.439327539761 Eh   ::
         :: zero point energy           0.403975478750 Eh   ::
         :: G(RRHO) w/o ZPVE           -0.052477659080 Eh   ::
         :: G(RRHO) contrib.            0.351497819670 Eh   ::
         :::::::::::::::::::::::::::::::::::::::::::::::::::::

           -------------------------------------------------
          | TOTAL ENERGY              -90.439327539761 Eh   |
          | TOTAL ENTHALPY            -90.008734837198 Eh   |
          | TOTAL FREE ENERGY         -90.087829720091 Eh   |
          | GRADIENT NORM               0.000045010084 Eh/α |
          | HOMO-LUMO GAP               0.483872678039 eV   |
           -------------------------------------------------

 * finished run on 2025/09/08 at 11:38:31.589
