   * xtb version 6.7.1 (edcfbbe) compiled by 'albert@albert-system' on 2024-07-22

   ID    Z sym.   atoms
    1    6 C      1-9, 11-21, 23, 27, 29-35
    2    7 N      10, 22, 24, 26, 28
    3    8 O      25
    4    1 H      36-54

          program call               : xtb data2507/gas/ANOP-DMAC/ANOP-DMAC_gas_S0_crest.xyz --gfn 2 --ohess vtight --parallel 40 --molden --ceasefiles --namespace data2507/gas/ANOP-DMAC/ANOP-DMAC_gas_S0_finalOpt
          :  Hamiltonian                  GFN2-xTB          :
 * total energy  :   -90.4400955 Eh     change       -0.5508596E-08 Eh
 * total energy  :   -90.4400960 Eh     change       -0.4622915E-06 Eh
 * total energy  :   -90.4400964 Eh     change       -0.3724114E-06 Eh
 * total energy  :   -90.4400974 Eh     change       -0.1017784E-05 Eh
 * total energy  :   -90.4400978 Eh     change       -0.4181082E-06 Eh
 * total energy  :   -90.4400981 Eh     change       -0.2486222E-06 Eh
 * total energy  :   -90.4400982 Eh     change       -0.1401242E-06 Eh
 * total energy  :   -90.4400982 Eh     change        0.1187746E-07 Eh
 * total energy  :   -90.4400983 Eh     change       -0.9797775E-07 Eh
   *** GEOMETRY OPTIMIZATION CONVERGED AFTER 9 ITERATIONS ***

 final structure:
================
54
 xtb: 6.7.1 (edcfbbe)
C           -6.03562120788846        0.20314643486331       -1.15370302219810
C           -5.01340745969001       -0.01753113036440       -0.02373941467777
C           -5.73563276281599       -0.37618454426210        1.28794658441525
C           -4.23570969304857        1.26592643556032        0.19224371585001
C           -4.91916016266987        2.41895148120731        0.55681822199278
C           -4.26686888465799        3.60876210687365        0.81713013905265
C           -2.88658897044176        3.65173447913597        0.74048456980829
C           -2.18373601764568        2.52207878854229        0.37895309701993
C           -2.84409181259225        1.32886291311136        0.07217506914614
N           -2.11005627814102        0.20548642403423       -0.29860528939064
C           -0.70737645585468        0.29331203984217       -0.40388753230255
C           -0.12979716222303        1.05755750197504       -1.40436166886147
C            1.25550793572771        1.18699222788561       -1.56777952836304
C            2.07966839056641        0.52572993181565       -0.68688496813161
C            1.49552822524560       -0.25010303298961        0.34255875286874
C            2.46316705299654       -0.85758776490080        1.17627592439924
C            2.04601165379410       -1.63224753064174        2.23081743470587
C            0.66327295028068       -1.78063817336525        2.43734660157059
C           -0.27919276672814       -1.19408559798038        1.62508491204801
C            0.11930821784088       -0.39942159909447        0.52723771875449
C            3.75586791638040       -0.45852771227186        0.64952504424670
N            4.93427193479401       -0.77875885965578        1.09254399517311
C            5.92589668279476       -0.22549155065538        0.35910147518700
N            7.22818200514459       -0.32687276586389        0.50739237689728
O            7.76328779594749        0.40615686736526       -0.46966610984509
N            6.86202992630761        0.99034964032495       -1.26103456310998
C            5.68700561184467        0.63143475785319       -0.79174995052068
N            4.45280433250431        0.95351388976071       -1.23561453094358
C            3.51280295601878        0.41013009599878       -0.51843848985340
C           -2.72679201749052       -1.01369151891493       -0.56382039862501
C           -1.96201768947588       -2.08849250500879       -1.02772691731729
C           -2.53848831002311       -3.31590703197198       -1.27547782294912
C           -3.89693502262841       -3.49013349030153       -1.08094807438712
C           -4.66291367573897       -2.41559465570383       -0.67118886997480
C           -4.10796557257964       -1.16800301761116       -0.41611820813037
H           -6.63007662166149       -0.69059079988598       -1.32039074457198
H           -5.51720776199142        0.44785666016103       -2.07891379548263
H           -6.71073034067248        1.01931495325854       -0.91279384160665
H           -5.00843592223767       -0.51850984227613        2.08540900343635
H           -6.41738974186598        0.41564774940814        1.58492470588657
H           -6.30729501869248       -1.29337765327461        1.17738800248485
H           -5.99435248059271        2.39104246864996        0.64591775396870
H           -4.82961523818606        4.48727985419924        1.09246111730909
H           -2.35226420760583        4.56194970792388        0.96696159531861
H           -1.10623783817380        2.56371704784987        0.34375753323971
H           -0.78629779122493        1.57082561934623       -2.09248130568101
H            1.65817061047149        1.78321831409936       -2.37104758233598
H            2.75541283064069       -2.11156289127312        2.88668352761423
H            0.33184425410872       -2.38134271531435        3.27145531468755
H           -1.33051192954882       -1.33922800119039        1.82448416412075
H           -0.90547850856907       -1.95907946853336       -1.20446697450727
H           -1.92501013847932       -4.13189860444188       -1.62624538042344
H           -4.35955969567874       -4.44759937863617       -1.26407891144900
H           -5.72603995229460       -2.55690909366224       -0.55034987756297

          :  Hamiltonian                  GFN2-xTB          :
         :: gradient norm              0.000077562737 Eh/a0 ::
         :: HOMO-LUMO gap              0.732533382097 eV    ::
         :: SCC energy               -91.922831343631 Eh    ::
         :: -> dispersion             -0.078508404248 Eh    ::
         :: repulsion energy           1.482733052301 Eh    ::

    * Orbital Energies and Occupations

         #    Occupation            Energy/Eh            Energy/eV
      -------------------------------------------------------------
         1        2.0000           -0.7903403             -21.5063
       ...           ...                  ...                  ...
        71        2.0000           -0.4441487             -12.0859
        72        2.0000           -0.4384250             -11.9302
        73        2.0000           -0.4366833             -11.8828
        74        2.0000           -0.4319492             -11.7539
        75        2.0000           -0.4293477             -11.6831
        76        2.0000           -0.4224885             -11.4965
        77        2.0000           -0.4188965             -11.3988
        78        2.0000           -0.4155405             -11.3074
        79        2.0000           -0.4120151             -11.2115
        80        2.0000           -0.4092657             -11.1367
        81        2.0000           -0.4040496             -10.9948
        82        2.0000           -0.3731314             -10.1534
        83        2.0000           -0.3611151              -9.8264 (HOMO)
        84        0.0000           -0.3341949              -9.0939 (LUMO)
        85                         -0.3175162              -8.6401
        86                         -0.2611560              -7.1064
        87                         -0.2554019              -6.9498
        88                         -0.2363361              -6.4310
        89                         -0.2321428              -6.3169
        90                         -0.2300594              -6.2602
        91                         -0.2290720              -6.2334
        92                         -0.2101606              -5.7188
        93                         -0.1992812              -5.4227
        94                         -0.1748969              -4.7592
       ...                                ...                  ...
       159                          0.6987117              19.0129
      -------------------------------------------------------------
                  HL-Gap            0.0269202 Eh            0.7325 eV

     #   Z          covCN         q      C6AA      α(0)
     1   6 C        3.761    -0.104    22.537     6.767
     2   6 C        3.909     0.022    20.152     6.381
     3   6 C        3.761    -0.103    22.522     6.765
     4   6 C        2.980    -0.012    28.298     8.726
     5   6 C        2.928    -0.035    28.876     8.812
     6   6 C        2.917    -0.042    29.032     8.836
     7   6 C        2.920    -0.032    28.787     8.799
     8   6 C        2.924    -0.058    29.430     8.896
     9   6 C        2.926     0.057    26.733     8.479
    10   7 N        2.753    -0.063    22.454     7.038
    11   6 C        2.925     0.072    26.383     8.423
    12   6 C        2.922    -0.039    28.971     8.827
    13   6 C        2.911    -0.016    28.409     8.740
    14   6 C        3.025    -0.007    28.174     8.707
    15   6 C        3.133    -0.001    27.846     8.638
    16   6 C        3.025    -0.002    28.042     8.686
    17   6 C        2.912    -0.013    28.343     8.730
    18   6 C        2.920    -0.025    28.621     8.773
    19   6 C        2.917    -0.020    28.509     8.756
    20   6 C        2.977     0.008    27.838     8.655
    21   6 C        3.099     0.096    25.748     8.316
    22   7 N        1.828    -0.227    26.793     7.670
    23   6 C        3.046     0.141    24.896     8.183
    24   7 N        1.914    -0.116    24.283     7.306
    25   8 O        1.939    -0.002    14.480     5.139
    26   7 N        1.914    -0.117    24.311     7.310
    27   6 C        3.044     0.141    24.887     8.182
    28   7 N        1.829    -0.229    26.860     7.680
    29   6 C        3.097     0.095    25.776     8.321
    30   6 C        2.928     0.057    26.720     8.477
    31   6 C        2.924    -0.056    29.404     8.892
    32   6 C        2.920    -0.032    28.796     8.800
    33   6 C        2.917    -0.042    29.036     8.836
    34   6 C        2.928    -0.035    28.881     8.813
    35   6 C        2.980    -0.012    28.305     8.727
    36   1 H        0.925     0.041     2.431     2.438
    37   1 H        0.925     0.033     2.546     2.495
    38   1 H        0.925     0.042     2.429     2.437
    39   1 H        0.925     0.031     2.575     2.509
    40   1 H        0.925     0.041     2.430     2.438
    41   1 H        0.925     0.041     2.432     2.439
    42   1 H        0.926     0.034     2.531     2.488
    43   1 H        0.926     0.031     2.572     2.508
    44   1 H        0.926     0.032     2.561     2.503
    45   1 H        0.926     0.025     2.656     2.548
    46   1 H        0.926     0.054     2.265     2.353
    47   1 H        0.926     0.064     2.151     2.293
    48   1 H        0.926     0.062     2.170     2.304
    49   1 H        0.926     0.050     2.324     2.384
    50   1 H        0.926     0.049     2.338     2.391
    51   1 H        0.926     0.023     2.684     2.562
    52   1 H        0.926     0.031     2.571     2.507
    53   1 H        0.926     0.031     2.573     2.508
    54   1 H        0.926     0.034     2.531     2.488

molecular dipole:
                 x           y           z       tot (Debye)
 q only:       -2.950      -0.284       0.383
   full:       -3.276      -0.322       0.428       8.438

 projected vibrational frequencies (cm⁻¹)
eigval :       -0.00    -0.00     0.00     0.00     0.00     0.00
eigval :       16.74    20.65    25.88    50.45    70.68    84.27
eigval :       96.59   104.24   125.22   127.42   147.43   156.41
eigval :      171.78   185.32   189.19   204.97   218.85   238.29
eigval :      276.75   297.55   306.97   327.44   332.58   335.82
eigval :      349.29   359.93   376.48   392.87   405.38   411.44
eigval :      420.65   426.72   453.76   478.65   483.11   499.52
eigval :      514.11   529.13   543.82   547.84   560.34   571.31
eigval :      579.26   587.03   589.40   625.58   634.32   657.41
eigval :      661.18   676.28   683.44   694.56   716.60   717.45
eigval :      735.20   765.15   771.38   777.87   778.67   786.33
eigval :      801.38   812.00   825.52   844.30   869.56   870.78
eigval :      895.67   898.64   912.87   914.27   915.09   919.98
eigval :      922.74   923.83   926.73   927.93   938.59   950.16
eigval :      957.68   974.17  1014.49  1038.51  1059.12  1071.67
eigval :     1076.71  1093.34  1105.47  1114.97  1119.94  1135.95
eigval :     1141.22  1159.99  1168.31  1184.95  1187.42  1188.44
eigval :     1191.92  1218.58  1232.97  1245.21  1250.50  1259.72
eigval :     1268.16  1294.84  1296.82  1306.25  1318.89  1331.57
eigval :     1333.14  1338.11  1339.69  1355.77  1392.53  1403.72
eigval :     1421.72  1424.28  1430.92  1435.02  1437.64  1438.95
eigval :     1475.66  1476.90  1489.09  1490.29  1492.08  1500.12
eigval :     1504.43  1554.69  1566.55  1575.46  1576.98  1586.65
eigval :     1590.11  1592.24  1596.89  1600.86  1613.07  3025.93
eigval :     3029.41  3042.16  3044.90  3050.89  3054.87  3083.00
eigval :     3083.16  3084.90  3086.65  3087.34  3087.74  3095.63
eigval :     3097.19  3098.06  3103.11  3104.10  3109.08  3109.69

   temp. (K)  partition function   enthalpy   heat capacity  entropy
                                   cal/mol     cal/K/mol   cal/K/mol   J/K/mol
 298.15  VIB  0.144E+11            14806.732     98.545     88.949
         ROT  0.274E+08              888.752      2.981     37.017
         INT  0.395E+18            15695.484    101.526    125.966
         TR   0.934E+28             1481.254      4.968     44.204
         TOT                       17176.7382   106.4943   170.1700   711.9913

       T/K    H(0)-H(T)+PV         H(T)/Eh          T*S/Eh         G(T)/Eh
   ------------------------------------------------------------------------
    298.15    0.273729E-01    0.431661E+00    0.808533E-01    0.350808E+00
   ------------------------------------------------------------------------

         :::::::::::::::::::::::::::::::::::::::::::::::::::::
         ::                  THERMODYNAMIC                  ::
         :::::::::::::::::::::::::::::::::::::::::::::::::::::
         :: total free energy         -90.089290213997 Eh   ::
         ::.................................................::
         :: total energy              -90.440098291327 Eh   ::
         :: zero point energy           0.404288457582 Eh   ::
         :: G(RRHO) w/o ZPVE           -0.053480380251 Eh   ::
         :: G(RRHO) contrib.            0.350808077331 Eh   ::
         :::::::::::::::::::::::::::::::::::::::::::::::::::::

           -------------------------------------------------
          | TOTAL ENERGY              -90.440098291327 Eh   |
          | TOTAL ENTHALPY            -90.008436959083 Eh   |
          | TOTAL FREE ENERGY         -90.089290213997 Eh   |
          | GRADIENT NORM               0.000077586844 Eh/α |
          | HOMO-LUMO GAP               0.732537186934 eV   |
           -------------------------------------------------

 * finished run on 2025/09/08 at 11:40:10.667
