   * xtb version 6.7.1 (edcfbbe) compiled by 'albert@albert-system' on 2024-07-22

   ID    Z sym.   atoms
    1    6 C      1-9, 11-21, 23, 27, 29-35
    2    7 N      10, 22, 24, 26, 28
    3    8 O      25
    4    1 H      36-54

          program call               : xtb data2507/gas/ANOP-DMAC/ANOP-DMAC_gas_T1_crest.xyz --gfn 2 --spinpol --tblite --uhf 2 --ohess vtight --parallel 40 --molden --ceasefiles --namespace data2507/gas/ANOP-DMAC/ANOP-DMAC_gas_T1_finalOpt
 * total energy  :   -90.4089779 Eh     change       -0.5346486E-07 Eh
 * total energy  :   -90.4089885 Eh     change       -0.1064896E-04 Eh
 * total energy  :   -90.4089912 Eh     change       -0.2666540E-05 Eh
 * total energy  :   -90.4089920 Eh     change       -0.8321351E-06 Eh
 * total energy  :   -90.4089924 Eh     change       -0.3557759E-06 Eh
 * total energy  :   -90.4089930 Eh     change       -0.6325081E-06 Eh
 * total energy  :   -90.4089939 Eh     change       -0.8665998E-06 Eh
 * total energy  :   -90.4089948 Eh     change       -0.9255064E-06 Eh
 * total energy  :   -90.4089955 Eh     change       -0.6816999E-06 Eh
 * total energy  :   -90.4089960 Eh     change       -0.4838333E-06 Eh
 * total energy  :   -90.4089983 Eh     change       -0.8635978E-06 Eh
 * total energy  :   -90.4089993 Eh     change       -0.1053057E-05 Eh
 * total energy  :   -90.4090005 Eh     change       -0.1186983E-05 Eh
 * total energy  :   -90.4090017 Eh     change       -0.1141841E-05 Eh
 * total energy  :   -90.4090031 Eh     change       -0.1383709E-05 Eh
 * total energy  :   -90.4090043 Eh     change       -0.1200167E-05 Eh
 * total energy  :   -90.4090052 Eh     change       -0.8886138E-06 Eh
 * total energy  :   -90.4090057 Eh     change       -0.5386789E-06 Eh
 * total energy  :   -90.4090057 Eh     change       -0.1234682E-07 Eh
   *** GEOMETRY OPTIMIZATION CONVERGED AFTER 22 ITERATIONS ***

 final structure:
================
54
 xtb: 6.7.1 (edcfbbe)
C           -6.01291150733924       -0.12411299115060       -1.25900536052601
C           -5.03055841022955       -0.00904454657203       -0.07880265679327
C           -5.80326122959849        0.15333595973169        1.24352320233938
C           -4.16381137369530        1.21649502286833       -0.28957147001291
C           -4.75471965085325        2.47026329311586       -0.36797746303003
C           -4.01278453212939        3.61884691635547       -0.57232233233699
C           -2.63875555556769        3.52481144979939       -0.71358467136172
C           -2.02524713750128        2.29316315369709       -0.64279695119661
C           -2.77280869774817        1.13112792550099       -0.42213214110448
N           -2.12747902243100       -0.09177958699735       -0.35334254307417
C           -0.71341336246734       -0.12840906888968       -0.48074451798536
C           -0.13564858284397       -0.47458995382056       -1.68474924993126
C            1.25543647603382       -0.53412835202392       -1.87897126310094
C            2.07211391359197       -0.23297228618445       -0.81585877802666
C            1.47495552361221        0.12052839323767        0.41889088803132
C            2.44813739413615        0.39502690334452        1.40925004114524
C            2.02599757413913        0.74870213970417        2.66698691429227
C            0.64007696565260        0.81980938182661        2.90825206885378
C           -0.30329665579042        0.55448108138838        1.94526371982579
C            0.10280147651568        0.18866361495347        0.64078309421529
C            3.73322356606868        0.20753690053574        0.76697347400930
N            4.94951701060026        0.33890771207365        1.25795725320474
C            5.96360779476943        0.10389508545675        0.44882589270760
N            7.24934690451379        0.14459599766601        0.62023331588785
O            7.82019583277200       -0.19486368827692       -0.56896723379017
N            6.88609535263329       -0.45954333215045       -1.52509129080198
C            5.72245894569995       -0.29673027263005       -0.97323455754428
N            4.49379164339920       -0.42018173484884       -1.43323168841701
C            3.50123138083330       -0.17780857991659       -0.59785667805794
C           -2.81341019824319       -1.27354870232396       -0.13061398300583
C           -2.10221957334056       -2.47278608574361       -0.01385730617602
C           -2.75848452919804       -3.66579141828833        0.19697473185348
C           -4.13897876770439       -3.68345184398244        0.29995444734889
C           -4.84216665985425       -2.49698413047739        0.20404512808874
C           -4.20771307572691       -1.27993502121031       -0.00462516314709
H           -5.46169947817903       -0.23727330375377       -2.19061039290963
H           -6.63399126152558        0.76396779643459       -1.33387126706041
H           -6.66331566076899       -0.98577870972819       -1.13839183785828
H           -5.10481711336143        0.23478418642523        2.07439096243593
H           -6.41977161820314        1.04740065998203        1.22517117985008
H           -6.44977744941217       -0.70084590595486        1.42262721080179
H           -5.82573420950109        2.55930597691960       -0.26927542886575
H           -4.50443752734382        4.57778148277642       -0.62648524285948
H           -2.04364321836340        4.40930142573485       -0.88212815875851
H           -0.95507486985366        2.22396304129899       -0.76232451514352
H           -0.78693944160492       -0.71194989014615       -2.51388319551550
H            1.65620927275467       -0.80827988144903       -2.84198703466818
H            2.72763365580607        0.96742890405100        3.45670454961346
H            0.31114397375099        1.09651707092068        3.89927905771129
H           -1.35547811778507        0.62418070117530        2.17849955065612
H           -1.02564603808619       -2.46263522391884       -0.08601842868573
H           -2.19108158648539       -4.57995201933426        0.28220843151294
H           -4.66428985462583       -4.61213892062588        0.46050757208800
H           -5.91706999152109       -2.52618292377542        0.29609921547210

 projected vibrational frequencies (cm⁻¹)
eigval :       -0.00    -0.00    -0.00    -0.00     0.00     0.00
eigval :        4.98    18.24    20.20    46.31    68.23    90.64
eigval :       95.33    98.61   123.22   126.60   140.56   153.03
eigval :      171.74   190.13   195.13   199.60   217.74   235.31
eigval :      268.29   298.67   303.68   327.69   329.53   336.21
eigval :      347.57   359.53   377.53   385.83   405.05   409.68
eigval :      414.91   445.57   449.81   474.02   478.64   499.73
eigval :      510.60   529.15   535.83   544.09   547.85   556.11
eigval :      564.18   573.18   584.64   587.96   625.16   641.18
eigval :      653.57   665.77   673.17   683.78   694.42   695.93
eigval :      701.77   727.33   741.89   774.16   775.79   785.56
eigval :      793.17   815.48   824.12   836.62   853.28   865.95
eigval :      866.58   872.79   889.85   907.34   913.51   914.24
eigval :      916.23   921.14   921.30   923.83   929.38   938.22
eigval :      946.02   957.39  1013.30  1022.82  1037.76  1066.97
eigval :     1076.32  1092.02  1109.90  1113.39  1116.26  1126.74
eigval :     1139.76  1156.77  1164.76  1183.94  1184.76  1185.45
eigval :     1188.59  1198.63  1208.38  1218.89  1241.87  1246.41
eigval :     1247.93  1264.76  1293.89  1298.89  1300.81  1322.76
eigval :     1333.44  1334.20  1335.17  1351.37  1386.18  1395.41
eigval :     1402.18  1419.52  1428.83  1434.56  1434.82  1439.02
eigval :     1466.83  1476.68  1485.88  1486.28  1489.10  1489.87
eigval :     1499.21  1500.85  1566.75  1576.16  1581.70  1585.77
eigval :     1586.36  1596.01  1603.89  1608.09  1614.25  3027.42
eigval :     3030.12  3043.38  3046.09  3052.15  3056.20  3081.74
eigval :     3084.92  3085.07  3085.35  3089.21  3089.39  3092.41
eigval :     3098.33  3098.73  3104.15  3104.60  3104.75  3106.63

   temp. (K)  partition function   enthalpy   heat capacity  entropy
                                   cal/mol     cal/K/mol   cal/K/mol   J/K/mol
 298.15  VIB  0.880E+11            15005.836     99.565     91.344
         ROT  0.275E+08              888.752      2.981     37.023
         INT  0.242E+19            15894.589    102.546    128.367
         TR   0.934E+28             1481.254      4.968     44.204
         TOT                       17375.8424   107.5138   172.5712   722.0378

       T/K    H(0)-H(T)+PV         H(T)/Eh          T*S/Eh         G(T)/Eh
   ------------------------------------------------------------------------
    298.15    0.276902E-01    0.429784E+00    0.819941E-01    0.347790E+00
   ------------------------------------------------------------------------

         :::::::::::::::::::::::::::::::::::::::::::::::::::::
         ::                  THERMODYNAMIC                  ::
         :::::::::::::::::::::::::::::::::::::::::::::::::::::
         :: total free energy         -90.061215801059 Eh   ::
         ::.................................................::
         :: total energy              -90.409005700842 Eh   ::
         :: zero point energy           0.402093863419 Eh   ::
         :: G(RRHO) w/o ZPVE           -0.054303963636 Eh   ::
         :: G(RRHO) contrib.            0.347789899783 Eh   ::
         :::::::::::::::::::::::::::::::::::::::::::::::::::::

           -------------------------------------------------
          | TOTAL ENERGY              -90.409005700842 Eh   |
          | TOTAL ENTHALPY            -89.979221669967 Eh   |
          | TOTAL FREE ENERGY         -90.061215801059 Eh   |
          | GRADIENT NORM               0.000074627397 Eh/α |
           -------------------------------------------------

 * finished run on 2025/09/08 at 11:42:22.433
