   * xtb version 6.7.1 (edcfbbe) compiled by 'albert@albert-system' on 2024-07-22

   ID    Z sym.   atoms
    1    6 C      1-7, 9-20, 22-27, 29-40, 42-46, 48-55, 57-62, 64-71, 73-91,
                  93, 94
    2    8 O      8, 28, 56, 72
    3    7 N      21, 41, 47, 63, 92
    4    1 H      95-167

          program call               : xtb data2507/toluene/DVCz-2CzCN/DVCz-2CzCN.xyz --gfn 2 --gbsa toluene --ohess vtight --parallel 40 --molden --ceasefiles --namespace data2507/toluene/DVCz-2CzCN/DVCz-2CzCN_toluene_S0_preOpt
      * Solvation model:               GBSA
        Solvent                        toluene
        Solvent mass                       9.2140E+01 g/mol
          :  Hamiltonian                  GFN2-xTB          :
 * total energy  :  -250.2681787 Eh     change       -0.6306351E-08 Eh
 * total energy  :  -250.2947104 Eh     change       -0.2653169E-01 Eh
 * total energy  :  -250.3017680 Eh     change       -0.7057677E-02 Eh
 * total energy  :  -250.3033279 Eh     change       -0.1559810E-02 Eh
 * total energy  :  -250.3043217 Eh     change       -0.9938586E-03 Eh
 * total energy  :  -250.3048429 Eh     change       -0.5211990E-03 Eh
 * total energy  :  -250.3052576 Eh     change       -0.4146792E-03 Eh
 * total energy  :  -250.3057153 Eh     change       -0.4576922E-03 Eh
 * total energy  :  -250.3061419 Eh     change       -0.4265884E-03 Eh
 * total energy  :  -250.3065861 Eh     change       -0.4442707E-03 Eh
 * total energy  :  -250.3192538 Eh     change       -0.3072705E-05 Eh
 * total energy  :  -250.3192570 Eh     change       -0.3223595E-05 Eh
 * total energy  :  -250.3192601 Eh     change       -0.3122060E-05 Eh
 * total energy  :  -250.3192630 Eh     change       -0.2880791E-05 Eh
 * total energy  :  -250.3192654 Eh     change       -0.2350775E-05 Eh
 * total energy  :  -250.3192673 Eh     change       -0.1921314E-05 Eh
 * total energy  :  -250.3192689 Eh     change       -0.1643497E-05 Eh
 * total energy  :  -250.3192703 Eh     change       -0.1377674E-05 Eh
 * total energy  :  -250.3192703 Eh     change       -0.4958224E-08 Eh
   *** GEOMETRY OPTIMIZATION CONVERGED AFTER 460 ITERATIONS ***

 final structure:
================
167
 xtb: 6.7.1 (edcfbbe)
C          -15.65498171477692        7.68582340000234       -4.55413833181045
C          -15.12038987848104        6.91331285960103       -3.61546842863873
C          -15.21600811764740        5.46106968626879       -3.51931349653100
C          -14.71418876039044        4.82373813164081       -2.38325474294982
C          -14.78633373691775        3.45208983485595       -2.24111168505848
C          -15.34854376886185        2.67077576479840       -3.24143963899575
C          -15.44373425659711        1.17152810993490       -3.09292275596384
O          -14.49996337331467        0.61232550859271       -2.20416439309270
C          -13.18155814610191        0.59768683730210       -2.56226570002779
C          -12.65970206154721        1.11002762766250       -3.73960343295854
C          -11.29474939686054        1.02579773533690       -4.01034420240553
C          -10.40512973641689        0.44042674933568       -3.13495794756454
C          -10.91518956268832       -0.06775055050652       -1.94497998868625
C          -12.29606961513011        0.00574710818073       -1.65276057357349
C          -12.47673048787094       -0.60487679273124       -0.36841354656271
C          -13.58319911271562       -0.83351087874020        0.44043485369444
C          -13.39597525260517       -1.46937164273772        1.65182054856513
C          -12.12695978420811       -1.87676181564907        2.06010720533901
C          -11.01270652935396       -1.66191965831894        1.27187965368336
C          -11.19045243584651       -1.01886430099022        0.05394418244530
N          -10.26314051783527       -0.67378287438724       -0.90008833212797
C           -8.86366280756595       -1.00294742828221       -0.83535269215260
C           -8.58989964984444       -2.43625635930780       -1.30990156505525
C           -7.20168804835180       -2.90777829665014       -0.88578315529090
C           -6.93864961428732       -4.36074741137327       -1.28242351106134
C           -5.73416415632126       -4.96524859727077       -0.55685570450839
C           -5.97851813706035       -5.16222519539827        0.94487662601972
O           -5.85034541608497       -3.96892132262829        1.69992652588585
C           -4.61864917052696       -3.47963786359187        1.99996859305287
C           -3.40955814639387       -4.13534946107304        1.80984874570026
C           -2.21198581508246       -3.56265203317856        2.22622416908382
C           -2.15807232598046       -2.31313937618937        2.80888496944352
C           -3.35251067998788       -1.62139826782362        2.94679088518683
C           -4.58174092181490       -2.20324692653618        2.57968513928363
C           -5.60873171562876       -1.25659503061923        2.91468473396941
C           -6.99259283667917       -1.26308566034232        2.79405315306645
C           -7.69869205963035       -0.14349144092369        3.18803499060036
C           -7.04016563742298        0.97713784875655        3.68785252662572
C           -5.66517175017113        1.00001109574930        3.83378007231696
C           -4.95537988184729       -0.13293974527352        3.46522082408187
N           -3.58790809111366       -0.36588473627865        3.48398523996235
C           -2.63799516787448        0.49988503392666        4.02355774769531
C           -2.84805745780285        1.05554906363367        5.28287255765624
C           -1.92914131979702        1.93544913943192        5.82516382799920
C           -0.76644902587918        2.24903732157074        5.14306852857727
C           -0.51915448304956        1.69399778602020        3.89313451441267
N            0.67104389121402        1.98883261159489        3.22356080333711
C            1.16539957364621        3.25979558544145        2.98500629689626
C            0.56580807330229        4.49153709640031        3.19698430741620
C            1.27621073992037        5.62227232201132        2.83743460545448
C            2.54634292204008        5.53204343628322        2.27273087854470
C            3.13859253481837        4.30577422738087        2.04057854584384
C            2.44482955710157        3.15621606645174        2.39644749275379
C            2.73684857312779        1.75316953213865        2.30090248525490
C            3.86682768189360        1.04255952593365        1.87131508856664
O            4.91635960558293        1.78553760780237        1.43128377435410
C            6.15425346100877        1.15689490599297        1.14353528492562
C            6.20954228398448        0.56916344618505       -0.27024086052424
C            7.40522433248798       -0.36329057478873       -0.47404314264682
C            8.77184575858803        0.31682566585941       -0.35446950574357
C            9.12086420357958        1.22085105091927       -1.53883266605539
C            9.61600096965563        0.43887421702156       -2.76343877504688
N           10.90027262806112       -0.17053155981820       -2.53101240914607
C           12.09768485834042        0.50294252282271       -2.54832952119533
C           12.35882173537072        1.83337179054661       -2.85136064568406
C           13.67327027098820        2.25735807231008       -2.83133039850750
C           14.71402365611740        1.38138253940792       -2.52842364996833
C           14.46463399274787        0.05768502115734       -2.22632110198009
C           13.14769342440176       -0.38881647724139       -2.21946654215714
C           12.52838342143019       -1.66133995449577       -1.97458173995123
C           13.00776506252621       -2.92309986100299       -1.60999948102737
O           14.35015566409378       -3.15738144193007       -1.37424840675166
C           14.84279354783009       -2.59923345662283       -0.16207937637132
C           16.32273982864120       -2.34555247308716       -0.26100363446070
C           16.90759399319309       -1.30739136808991        0.45599681137116
C           18.26630593508668       -1.07681932198469        0.38104219679280
C           19.08630575583887       -1.87349539052534       -0.42044732761903
C           20.52545497971035       -1.67002059744468       -0.54114744976826
C           21.25315783329580       -0.73619653710944        0.06089991606454
C           18.48762089956239       -2.91095063730102       -1.13830816570342
C           17.12924524929340       -3.14652993142498       -1.05875434492272
C           12.11092601589343       -3.97445655179108       -1.51460370607128
C           10.75436497950589       -3.78372516499791       -1.76142604505174
C           10.24882164397607       -2.54256854580127       -2.08886861453256
C           11.13948527081563       -1.47995750646216       -2.19465457225289
C            3.82890341443058       -0.34282676851086        1.96211417139068
C            2.71729627761164       -0.99831783285758        2.48331119061414
C            1.60350614729259       -0.31541809642390        2.92562834176071
C            1.61834416195487        1.06709494567184        2.81310864275087
C           -1.47238326559924        0.83798255832556        3.31036641611457
C           -1.30029167859862        0.42622266515941        1.97230748064779
N           -1.18224824351288        0.16124131812246        0.86147341345084
C          -15.84667841678593        3.29449935878664       -4.37999420570916
C          -15.78515531655969        4.66631572419596       -4.51632253130043
H          -15.53012442725623        8.75529515434121       -4.53507792640920
H          -16.23762883260564        7.29479839529561       -5.37066663185067
H          -14.55644418364069        7.37761513737952       -2.81488993769248
H          -14.26689571195145        5.41511336091286       -1.59649893834255
H          -14.39693860654791        2.97750652738570       -1.35162265147057
H          -15.38094754069997        0.68563458384900       -4.07658691240102
H          -16.41309852704845        0.91264915147521       -2.64850035405719
H          -13.29939336294683        1.59242568435382       -4.46129689014461
H          -10.93097074832519        1.43611729793054       -4.94121742520772
H           -9.35448537708851        0.38451306179310       -3.37219819191760
H          -14.56325254513843       -0.51776885870265        0.11706915138891
H          -14.24323906163557       -1.65750995350898        2.29572431962972
H          -12.01330731797191       -2.37388634237633        3.01308350816820
H          -10.03767276602943       -1.98764479617495        1.59975539499113
H           -8.53364051181630       -0.89386466704128        0.20211679470597
H           -8.30396744411313       -0.28672137272422       -1.44052274573727
H           -9.34289664752797       -3.09389429778201       -0.86843813348479
H           -8.69768953302649       -2.49230127121427       -2.39510146288953
H           -7.12038294705763       -2.81588799578149        0.19655084791968
H           -6.43893871527055       -2.26205024735695       -1.32740260223536
H           -7.82192804556821       -4.96226181881804       -1.05394014119549
H           -6.77122441906154       -4.42002768862452       -2.36017754571381
H           -5.51235480062870       -5.94158234259642       -0.99174148217436
H           -4.86032203207298       -4.32510618159603       -0.69541087942305
H           -5.31527286082614       -5.93632306931196        1.34629875851382
H           -7.01175556902113       -5.47803730264848        1.11570680246693
H           -3.37571358625287       -5.10720519283252        1.34487124728341
H           -1.29658295607954       -4.11759344666077        2.08533581256114
H           -1.21732019167791       -1.89974913461453        3.13347697738620
H           -7.49133465993366       -2.13617102404408        2.40424850651591
H           -8.77533537223403       -0.12641195263675        3.10256241780106
H           -7.61533800577934        1.84674993936810        3.96934755684919
H           -5.16651085553352        1.87890243555288        4.21348051111928
H           -3.73160672207007        0.77758572534033        5.83559508699661
H           -2.10658943539194        2.35876871950850        6.80161404814763
H           -0.03152518339689        2.90833521184702        5.57791891218498
H           -0.42420219905450        4.56878895854792        3.62120317044134
H            0.83439535250853        6.59516966264487        2.99523699181451
H            3.06975673130100        6.43837183295495        2.00590508224684
H            4.11556251531778        4.22702849773592        1.59069061446417
H            6.88815874412500        1.96005928198654        1.25085235864897
H            6.37145076931613        0.38562717779737        1.89216108154709
H            5.29046457863984        0.00663053924020       -0.44942456092133
H            6.23000196635263        1.38773499523398       -0.99074228980206
H            7.31214665517077       -0.82415308825304       -1.45877393525470
H            7.35269081492005       -1.16513396987922        0.26660730071441
H            9.54017852971431       -0.45423771802405       -0.26448709925429
H            8.79872797971783        0.90342607448755        0.56409586763990
H            8.25132474636121        1.80993350862945       -1.83013975171754
H            9.90824461204791        1.91387344316759       -1.23672422824639
H            8.90492543488543       -0.34409735112174       -3.02931727982551
H            9.70669667609535        1.11734896685231       -3.61762334558779
H           11.56549961258236        2.52051739907865       -3.10299284448625
H           13.90105083448026        3.28791205058691       -3.06323243721152
H           15.73184848030817        1.74347608783354       -2.53539690192947
H           15.27820547084212       -0.61893328074376       -2.01370457573983
H           14.64691653898935       -3.31052742867383        0.65988817170353
H           14.31611694992296       -1.66578945296599        0.07193173973771
H           16.28869313274230       -0.67300265897398        1.07510018181508
H           18.69199852835932       -0.26346506897591        0.94777041831172
H           21.02125525632817       -2.37302208642482       -1.20041779717538
H           20.83012942412921       -0.00465673572184        0.72790362987847
H           22.31658572412746       -0.67041721197261       -0.09568290128133
H           19.09950313400837       -3.54169690049836       -1.76819177147153
H           16.67660693645682       -3.94658691789596       -1.62506977593851
H           12.48419029981952       -4.95171094502694       -1.24748081672801
H           10.08421580861943       -4.62670624954883       -1.68032123249498
H            9.19188805842690       -2.41382075462531       -2.25836733699135
H            4.66560401522766       -0.94008307584920        1.63883952075697
H            2.73623057528503       -2.07609261975807        2.54790654519008
H            0.76430813378243       -0.84160925529249        3.35167391822061
H          -16.28461683743137        2.69554621391126       -5.16661412776563
H          -16.17433879617142        5.12273091804739       -5.41310870655276

          :  Hamiltonian                  GFN2-xTB          :
         :: gradient norm              0.000085879533 Eh/a0 ::
         :: HOMO-LUMO gap              1.878484531197 eV    ::
         :: SCC energy              -254.611087620555 Eh    ::
         :: -> dispersion             -0.221802370604 Eh    ::
         :: -> Gsolv                  -0.106592391277 Eh    ::
         :: repulsion energy           4.291817321467 Eh    ::

    * Orbital Energies and Occupations

         #    Occupation            Energy/Eh            Energy/eV
      -------------------------------------------------------------
         1        2.0000           -0.7180355             -19.5387
       ...           ...                  ...                  ...
       219        2.0000           -0.3988754             -10.8540
       220        2.0000           -0.3964687             -10.7885
       221        2.0000           -0.3897284             -10.6050
       222        2.0000           -0.3827318             -10.4147
       223        2.0000           -0.3815321             -10.3820
       224        2.0000           -0.3790364             -10.3141
       225        2.0000           -0.3776011             -10.2750
       226        2.0000           -0.3756687             -10.2225
       227        2.0000           -0.3681226             -10.0171
       228        2.0000           -0.3670539              -9.9880
       229        2.0000           -0.3661733              -9.9641
       230        2.0000           -0.3612230              -9.8294
       231        2.0000           -0.3541315              -9.6364 (HOMO)
       232                         -0.2850984              -7.7579 (LUMO)
       233                         -0.2588898              -7.0447
       234                         -0.2522367              -6.8637
       235                         -0.2519132              -6.8549
       236                         -0.2468394              -6.7168
       237                         -0.2449721              -6.6660
       238                         -0.2441524              -6.6437
       239                         -0.2360831              -6.4241
       240                         -0.2244601              -6.1079
       241                         -0.2240119              -6.0957
       242                         -0.2231358              -6.0718
       ...                                ...                  ...
       449                          1.1528454              31.3705
      -------------------------------------------------------------
                  HL-Gap            0.0690331 Eh            1.8785 eV

     #   Z          covCN         q      C6AA      α(0)
     1   6 C        2.837    -0.086    30.156     8.999
     2   6 C        2.895    -0.031    28.771     8.794
     3   6 C        2.970     0.012    27.733     8.638
     4   6 C        2.928    -0.035    28.872     8.812
     5   6 C        2.920    -0.031    28.768     8.796
     6   6 C        2.968    -0.001    28.059     8.689
     7   6 C        3.697     0.080    19.407     6.301
     8   8 O        1.704    -0.289    18.809     5.855
     9   6 C        2.855     0.137    25.005     8.196
    10   6 C        2.917    -0.083    30.067     8.992
    11   6 C        2.925    -0.038    28.950     8.824
    12   6 C        2.908    -0.066    29.645     8.928
    13   6 C        3.081     0.045    26.908     8.504
    14   6 C        3.075    -0.043    28.990     8.828
    15   6 C        3.069    -0.015    28.304     8.724
    16   6 C        2.912    -0.036    28.905     8.816
    17   6 C        2.920    -0.046    29.130     8.851
    18   6 C        2.923    -0.038    28.946     8.823
    19   6 C        2.910    -0.055    29.358     8.885
    20   6 C        3.086     0.043    26.930     8.507
    21   7 N        2.799    -0.047    22.154     6.991
    22   6 C        3.741    -0.003    20.701     6.492
    23   6 C        3.802    -0.062    21.686     6.630
    24   6 C        3.803    -0.062    21.698     6.632
    25   6 C        3.802    -0.059    21.639     6.623
    26   6 C        3.799    -0.067    21.784     6.645
    27   6 C        3.688     0.075    19.514     6.323
    28   8 O        1.704    -0.280    18.649     5.831
    29   6 C        2.852     0.142    24.913     8.181
    30   6 C        2.918    -0.079    29.984     8.979
    31   6 C        2.926    -0.034    28.855     8.809
    32   6 C        2.909    -0.060    29.494     8.905
    33   6 C        3.067     0.048    26.861     8.498
    34   6 C        3.070    -0.039    28.885     8.812
    35   6 C        3.066    -0.008    28.162     8.702
    36   6 C        2.913    -0.034    28.846     8.807
    37   6 C        2.919    -0.040    29.001     8.831
    38   6 C        2.924    -0.034    28.857     8.809
    39   6 C        2.910    -0.052    29.283     8.873
    40   6 C        3.070     0.044    26.933     8.509
    41   7 N        2.803    -0.048    22.162     6.992
    42   6 C        2.914     0.074    26.350     8.418
    43   6 C        2.921    -0.046    29.147     8.853
    44   6 C        2.917    -0.019    28.485     8.752
    45   6 C        2.920    -0.046    29.130     8.851
    46   6 C        2.918     0.074    26.339     8.416
    47   7 N        2.805    -0.052    22.247     7.005
    48   6 C        3.073     0.045    26.912     8.506
    49   6 C        2.910    -0.052    29.303     8.876
    50   6 C        2.924    -0.035    28.866     8.811
    51   6 C        2.920    -0.041    29.007     8.832
    52   6 C        2.913    -0.034    28.845     8.807
    53   6 C        3.067    -0.009    28.177     8.704
    54   6 C        3.071    -0.039    28.897     8.814
    55   6 C        2.853     0.141    24.920     8.182
    56   8 O        1.704    -0.286    18.751     5.846
    57   6 C        3.689     0.076    19.489     6.318
    58   6 C        3.799    -0.067    21.784     6.645
    59   6 C        3.801    -0.060    21.659     6.626
    60   6 C        3.801    -0.063    21.712     6.634
    61   6 C        3.801    -0.066    21.763     6.642
    62   6 C        3.740    -0.004    20.737     6.497
    63   7 N        2.796    -0.042    22.042     6.973
    64   6 C        3.084     0.044    26.928     8.507
    65   6 C        2.910    -0.054    29.344     8.883
    66   6 C        2.923    -0.036    28.889     8.814
    67   6 C        2.919    -0.044    29.102     8.846
    68   6 C        2.912    -0.035    28.878     8.812
    69   6 C        3.066    -0.016    28.333     8.728
    70   6 C        3.067    -0.042    28.980     8.827
    71   6 C        2.865     0.130    25.148     8.220
    72   8 O        1.702    -0.333    19.580     5.974
    73   6 C        3.705     0.092    19.203     6.264
    74   6 C        2.968     0.003    27.946     8.671
    75   6 C        2.921    -0.040    28.982     8.828
    76   6 C        2.923    -0.033    28.831     8.805
    77   6 C        2.970     0.012    27.738     8.639
    78   6 C        2.895    -0.031    28.770     8.794
    79   6 C        2.837    -0.087    30.162     9.000
    80   6 C        2.928    -0.035    28.875     8.812
    81   6 C        2.920    -0.031    28.767     8.795
    82   6 C        2.918    -0.068    29.682     8.934
    83   6 C        2.922    -0.038    28.936     8.821
    84   6 C        2.909    -0.061    29.505     8.907
    85   6 C        3.079     0.044    26.920     8.506
    86   6 C        2.918    -0.081    30.032     8.987
    87   6 C        2.926    -0.036    28.884     8.814
    88   6 C        2.909    -0.062    29.532     8.911
    89   6 C        3.071     0.049    26.836     8.494
    90   6 C        2.974    -0.013    28.339     8.732
    91   6 C        1.910     0.133    27.859     8.524
    92   7 N        0.911    -0.277    27.155     7.537
    93   6 C        2.921    -0.041    29.019     8.834
    94   6 C        2.923    -0.033    28.828     8.805
    95   1 H        0.926     0.039     2.461     2.453
    96   1 H        0.926     0.041     2.430     2.438
    97   1 H        0.925     0.036     2.506     2.475
    98   1 H        0.926     0.035     2.516     2.481
    99   1 H        0.926     0.035     2.513     2.479
   100   1 H        0.923     0.037     2.495     2.470
   101   1 H        0.924     0.058     2.221     2.331
   102   1 H        0.926     0.027     2.623     2.532
   103   1 H        0.926     0.031     2.579     2.511
   104   1 H        0.926     0.031     2.574     2.509
   105   1 H        0.926     0.031     2.568     2.506
   106   1 H        0.926     0.022     2.701     2.570
   107   1 H        0.926     0.026     2.641     2.541
   108   1 H        0.926     0.032     2.552     2.498
   109   1 H        0.924     0.055     2.255     2.348
   110   1 H        0.924     0.050     2.316     2.380
   111   1 H        0.924     0.041     2.434     2.440
   112   1 H        0.924     0.038     2.480     2.463
   113   1 H        0.925     0.052     2.299     2.371
   114   1 H        0.924     0.030     2.587     2.515
   115   1 H        0.924     0.039     2.466     2.456
   116   1 H        0.924     0.037     2.487     2.466
   117   1 H        0.924     0.045     2.390     2.417
   118   1 H        0.924     0.046     2.370     2.407
   119   1 H        0.924     0.034     2.524     2.484
   120   1 H        0.924     0.059     2.212     2.326
   121   1 H        0.926     0.041     2.434     2.440
   122   1 H        0.926     0.038     2.470     2.457
   123   1 H        0.926     0.020     2.729     2.583
   124   1 H        0.926     0.042     2.423     2.434
   125   1 H        0.926     0.035     2.519     2.482
   126   1 H        0.926     0.035     2.512     2.478
   127   1 H        0.926     0.032     2.554     2.499
   128   1 H        0.926     0.062     2.179     2.309
   129   1 H        0.926     0.064     2.152     2.294
   130   1 H        0.926     0.060     2.199     2.319
   131   1 H        0.926     0.030     2.589     2.516
   132   1 H        0.926     0.035     2.519     2.482
   133   1 H        0.926     0.033     2.541     2.493
   134   1 H        0.926     0.043     2.405     2.425
   135   1 H        0.924     0.054     2.269     2.356
   136   1 H        0.924     0.036     2.503     2.474
   137   1 H        0.924     0.043     2.410     2.428
   138   1 H        0.924     0.047     2.363     2.404
   139   1 H        0.924     0.043     2.413     2.429
   140   1 H        0.924     0.034     2.524     2.484
   141   1 H        0.924     0.040     2.445     2.445
   142   1 H        0.924     0.037     2.485     2.465
   143   1 H        0.925     0.051     2.305     2.374
   144   1 H        0.924     0.044     2.395     2.420
   145   1 H        0.924     0.059     2.211     2.325
   146   1 H        0.924     0.052     2.297     2.370
   147   1 H        0.926     0.032     2.553     2.499
   148   1 H        0.926     0.028     2.609     2.526
   149   1 H        0.926     0.024     2.678     2.559
   150   1 H        0.926     0.029     2.601     2.522
   151   1 H        0.923     0.028     2.611     2.527
   152   1 H        0.924     0.032     2.555     2.500
   153   1 H        0.926     0.032     2.556     2.500
   154   1 H        0.926     0.042     2.423     2.434
   155   1 H        0.925     0.036     2.506     2.475
   156   1 H        0.926     0.041     2.434     2.440
   157   1 H        0.926     0.039     2.463     2.454
   158   1 H        0.926     0.036     2.505     2.475
   159   1 H        0.926     0.042     2.427     2.436
   160   1 H        0.926     0.035     2.518     2.481
   161   1 H        0.926     0.037     2.487     2.466
   162   1 H        0.926     0.040     2.453     2.449
   163   1 H        0.926     0.043     2.406     2.426
   164   1 H        0.926     0.038     2.477     2.461
   165   1 H        0.926     0.018     2.758     2.597
   166   1 H        0.925     0.032     2.559     2.502
   167   1 H        0.926     0.042     2.426     2.436

molecular dipole:
                 x           y           z       tot (Debye)
 q only:       -0.075       0.521       0.893
   full:       -0.083       0.431       1.242       3.348

 projected vibrational frequencies (cm⁻¹)
eigval :       -0.00    -0.00    -0.00     0.00     0.00     0.00
eigval :      -25.31     1.22     3.61     3.88     5.25     6.52
eigval :       10.29    11.14    13.05    13.55    15.58    17.16
eigval :       19.55    20.16    21.78    24.51    27.78    30.00
eigval :       30.36    32.99    34.85    38.50    43.21    46.49
eigval :       50.96    52.98    58.67    62.58    66.45    77.82
eigval :       78.14    82.25    93.04    98.53   101.82   102.87
eigval :      104.50   110.96   112.06   115.23   118.05   120.07
eigval :      121.29   126.51   128.40   137.95   142.17   150.34
eigval :      158.50   160.99   162.91   168.57   168.95   185.19
eigval :      191.95   200.54   206.04   207.33   213.83   219.30
eigval :      229.96   237.40   241.70   247.75   251.64   254.40
eigval :      257.15   272.38   273.51   275.78   278.95   282.14
eigval :      285.23   293.75   297.80   303.12   306.03   311.16
eigval :      320.32   325.97   330.92   334.40   336.15   344.58
eigval :      350.69   357.87   371.30   373.10   376.51   382.94
eigval :      395.94   402.76   406.18   409.16   409.40   410.04
eigval :      412.16   413.45   415.89   416.54   418.04   422.88
eigval :      427.06   434.66   435.48   446.53   447.83   459.99
eigval :      483.77   492.37   494.10   500.07   502.22   510.93
eigval :      513.92   517.84   521.12   521.67   527.05   528.00
eigval :      535.79   537.79   539.31   540.89   540.94   541.69
eigval :      543.84   544.92   559.27   563.08   565.02   574.17
eigval :      576.92   579.75   579.95   587.59   588.70   597.17
eigval :      602.27   606.49   606.59   612.49   613.07   617.26
eigval :      617.91   621.77   634.15   652.34   656.51   667.33
eigval :      668.51   670.89   675.12   687.52   689.37   690.74
eigval :      700.80   702.41   704.25   704.60   707.56   709.24
eigval :      712.85   738.16   738.83   747.94   752.10   759.94
eigval :      761.39   766.11   766.87   772.41   773.16   773.47
eigval :      775.06   775.91   779.15   780.92   786.28   786.50
eigval :      794.48   795.32   802.03   810.99   811.22   815.67
eigval :      826.05   833.95   837.29   842.46   845.38   853.34
eigval :      853.67   855.00   860.34   861.40   867.60   868.69
eigval :      869.28   869.56   870.06   871.55   874.32   888.36
eigval :      889.37   897.96   899.23   904.32   905.28   906.11
eigval :      906.61   907.44   908.02   908.49   909.06   909.66
eigval :      913.94   915.71   917.23   920.98   922.53   923.59
eigval :      926.55   926.83   928.17   929.69   930.61   931.42
eigval :      942.78   948.20   955.06   970.54   976.61   987.57
eigval :      988.53   994.39  1002.64  1004.72  1004.96  1006.38
eigval :     1008.41  1012.09  1015.66  1018.42  1023.94  1027.50
eigval :     1032.49  1035.43  1041.85  1047.82  1054.66  1061.64
eigval :     1068.15  1069.91  1071.32  1077.87  1079.76  1088.27
eigval :     1093.01  1096.19  1103.97  1105.71  1110.48  1111.92
eigval :     1116.66  1118.74  1121.69  1123.45  1127.15  1130.21
eigval :     1136.04  1143.28  1143.85  1145.08  1145.21  1148.38
eigval :     1156.75  1162.64  1166.76  1173.03  1175.06  1177.73
eigval :     1179.56  1180.96  1182.81  1183.51  1186.22  1191.52
eigval :     1191.86  1193.13  1194.78  1196.63  1197.34  1198.84
eigval :     1199.43  1202.14  1206.82  1208.26  1209.34  1212.36
eigval :     1214.77  1223.58  1227.54  1229.64  1231.52  1236.90
eigval :     1242.71  1245.44  1247.21  1249.75  1252.00  1255.98
eigval :     1256.18  1260.05  1262.54  1271.80  1273.56  1274.00
eigval :     1274.89  1283.51  1288.63  1289.24  1289.56  1292.30
eigval :     1293.48  1297.61  1298.23  1300.79  1302.86  1304.25
eigval :     1309.75  1318.23  1320.44  1321.27  1326.15  1326.74
eigval :     1328.23  1331.72  1338.34  1338.51  1340.60  1341.19
eigval :     1344.05  1350.73  1353.79  1354.37  1355.65  1356.44
eigval :     1358.14  1358.93  1359.23  1360.77  1363.83  1365.16
eigval :     1366.93  1372.04  1374.21  1376.52  1378.23  1404.62
eigval :     1409.27  1409.63  1410.19  1416.04  1416.30  1416.88
eigval :     1418.79  1421.49  1425.38  1437.74  1439.31  1444.66
eigval :     1445.97  1447.45  1456.19  1461.58  1464.25  1466.98
eigval :     1467.53  1468.22  1471.03  1475.29  1476.81  1480.96
eigval :     1482.69  1483.88  1489.12  1490.21  1490.57  1490.78
eigval :     1491.48  1491.99  1492.40  1493.50  1495.58  1496.68
eigval :     1496.86  1547.22  1561.09  1566.17  1571.34  1571.55
eigval :     1572.54  1574.34  1575.43  1584.87  1587.10  1587.89
eigval :     1588.77  1589.53  1590.44  1591.19  1592.92  1599.38
eigval :     1600.25  1604.64  1606.26  1609.13  1611.13  1673.27
eigval :     1674.02  2355.28  2811.07  2880.97  2907.97  2910.18
eigval :     2919.35  2919.78  2946.08  2953.89  2959.20  2960.36
eigval :     2961.35  2963.83  2965.41  2973.77  2975.70  2976.19
eigval :     2978.12  2981.83  2983.39  2983.51  2986.97  2988.91
eigval :     2989.28  2998.40  3000.06  3005.56  3007.90  3026.44
eigval :     3039.43  3040.70  3065.27  3066.14  3066.78  3066.92
eigval :     3068.04  3069.52  3074.25  3075.31  3075.80  3076.31
eigval :     3078.03  3079.07  3080.00  3082.30  3082.36  3082.93
eigval :     3084.69  3089.30  3089.67  3091.79  3091.97  3092.15
eigval :     3093.88  3094.29  3094.82  3095.72  3096.23  3096.82
eigval :     3097.53  3098.28  3101.93  3104.01  3104.84  3105.57
eigval :     3105.79  3106.37  3106.82  3107.08  3111.11  3111.64
eigval :     3113.95  3125.96  3126.38

   temp. (K)  partition function   enthalpy   heat capacity  entropy
                                   cal/mol     cal/K/mol   cal/K/mol   J/K/mol
 298.15  VIB  0.401E+47            49820.299    295.241    324.219
         ROT  0.143E+10              888.752      2.981     44.874
         INT  0.574E+56            50709.051    298.222    369.094
         TR   0.417E+29             1481.254      4.968     47.174
         TOT                       52190.3053   303.1904   416.2675  1741.6630

       T/K    H(0)-H(T)+PV         H(T)/Eh          T*S/Eh         G(T)/Eh
   ------------------------------------------------------------------------
    298.15    0.831705E-01    0.141404E+01    0.197782E+00    0.121626E+01
   ------------------------------------------------------------------------

         :::::::::::::::::::::::::::::::::::::::::::::::::::::
         ::                  THERMODYNAMIC                  ::
         :::::::::::::::::::::::::::::::::::::::::::::::::::::
         :: total free energy        -249.103011009648 Eh   ::
         ::.................................................::
         :: total energy             -250.319270298348 Eh   ::
         :: zero point energy           1.330870841832 Eh   ::
         :: G(RRHO) w/o ZPVE           -0.114611553132 Eh   ::
         :: G(RRHO) contrib.            1.216259288700 Eh   ::
         :::::::::::::::::::::::::::::::::::::::::::::::::::::

           -------------------------------------------------
          | TOTAL ENERGY             -250.319270298348 Eh   |
          | TOTAL ENTHALPY           -248.905228911018 Eh   |
          | TOTAL FREE ENERGY        -249.103011009648 Eh   |
          | GRADIENT NORM               0.000085801630 Eh/α |
          | HOMO-LUMO GAP               1.878485287870 eV   |
           -------------------------------------------------

 * finished run on 2025/08/27 at 23:43:29.186
