   * xtb version 6.7.1 (edcfbbe) compiled by 'albert@albert-system' on 2024-07-22

   ID    Z sym.   atoms
    1    6 C      1-7, 9-20, 22-27, 29-40, 42-46, 48-55, 57-62, 64-71, 73-91,
                  93, 94
    2    8 O      8, 28, 56, 72
    3    7 N      21, 41, 47, 63, 92
    4    1 H      95-167

          program call               : xtb data2507/toluene/DVCz-2CzCN/DVCz-2CzCN_toluene_S0_crest.xyz --gfn 2 --gbsa toluene --ohess vtight --parallel 40 --molden --ceasefiles --namespace data2507/toluene/DVCz-2CzCN/DVCz-2CzCN_toluene_S0_finalOpt
      * Solvation model:               GBSA
        Solvent                        toluene
        Solvent mass                       9.2140E+01 g/mol
          :  Hamiltonian                  GFN2-xTB          :
 * total energy  :  -250.3327191 Eh     change       -0.8212282E-08 Eh
 * total energy  :  -250.3330462 Eh     change       -0.3271472E-03 Eh
 * total energy  :  -250.3333418 Eh     change       -0.2955835E-03 Eh
 * total energy  :  -250.3334768 Eh     change       -0.1349365E-03 Eh
 * total energy  :  -250.3336690 Eh     change       -0.1922654E-03 Eh
 * total energy  :  -250.3338199 Eh     change       -0.1508374E-03 Eh
 * total energy  :  -250.3339110 Eh     change       -0.9113074E-04 Eh
 * total energy  :  -250.3339770 Eh     change       -0.6604155E-04 Eh
 * total energy  :  -250.3340490 Eh     change       -0.7196151E-04 Eh
 * total energy  :  -250.3341340 Eh     change       -0.8504073E-04 Eh
 * total energy  :  -250.3361127 Eh     change       -0.5237133E-06 Eh
 * total energy  :  -250.3361133 Eh     change       -0.5895267E-06 Eh
 * total energy  :  -250.3361140 Eh     change       -0.6494156E-06 Eh
 * total energy  :  -250.3361147 Eh     change       -0.6993352E-06 Eh
 * total energy  :  -250.3361153 Eh     change       -0.6330463E-06 Eh
 * total energy  :  -250.3361159 Eh     change       -0.5709815E-06 Eh
 * total energy  :  -250.3361164 Eh     change       -0.5571122E-06 Eh
 * total energy  :  -250.3361170 Eh     change       -0.5838070E-06 Eh
 * total energy  :  -250.3361170 Eh     change       -0.2473030E-08 Eh
   *** GEOMETRY OPTIMIZATION CONVERGED AFTER 340 ITERATIONS ***

 final structure:
================
167
 xtb: 6.7.1 (edcfbbe)
C           -1.87512295482449        3.33375070924120       -1.32233158900229
C           -1.08141371911040        4.01649100382009       -2.13909698310462
C            0.20764396459954        3.56277069117053       -2.65268168996964
C            0.57438666154719        2.21642614317720       -2.66476410274036
C            1.79940002538947        1.82298942400633       -3.16422443826856
C            2.69910784418596        2.75966714318377       -3.65974411615071
C            4.05430318502815        2.31284063681833       -4.13906958055656
O            4.90562121271022        2.30204809386522       -3.00146463314461
C            6.08600071117900        1.62182181793362       -3.05390927607357
C            6.62426211389475        1.01954442003027       -4.18003891642246
C            7.82526019263362        0.31449377801711       -4.10361662476696
C            8.52317974732540        0.17441747684064       -2.92315063573102
C            7.99785380351123        0.78298072310270       -1.78639876797634
C            6.79314335928110        1.51844974238500       -1.84840545707722
C            6.55223883337461        2.02657399508574       -0.53009175047650
C            5.56047620391352        2.82700732688928        0.02318168908965
C            5.64713187705970        3.15412533995209        1.36133540356523
C            6.70206799403503        2.69156553649326        2.14527675359010
C            7.69792193926435        1.89238313100381        1.61793560415157
C            7.62130167988208        1.56108021690544        0.27150067450604
N            8.48296178840207        0.81756102164904       -0.50174763417565
C            9.59431107339583        0.06272840409998        0.01624312379060
C            9.12723090220891       -1.23530038136953        0.68999547190843
C            8.59117069906324       -2.24777295790323       -0.32092343330699
C            7.86652788683337       -3.40641028106493        0.36219514285975
C            7.48808205069086       -4.53139321198037       -0.60245823971901
C            6.35461656012147       -4.17823918649997       -1.56887339390480
O            5.10953284747676       -4.11860853269729       -0.88716668029414
C            4.35399160372160       -2.99196719207894       -0.84410025106292
C            4.73852422310583       -1.71257716356211       -1.22387803645788
C            3.84912259571964       -0.64456130388486       -1.15570287021665
C            2.55322737345089       -0.79180287886662       -0.70422776582544
C            2.16757826969021       -2.05727760218794       -0.28421265798440
C            3.04703395641597       -3.15413133403214       -0.35507965284175
C            2.32246904314703       -4.29900701701647        0.12280597797337
C            2.66408828418137       -5.63088369159005        0.31661557242059
C            1.71794593267060       -6.48513869814922        0.84818940815223
C            0.45514528899372       -6.02190001324707        1.20725488202247
C            0.09546945593830       -4.69976081340683        1.02419736089844
C            1.02580895184792       -3.84641858416659        0.45325488497221
N            0.93852875681629       -2.48859429851036        0.19233829271177
C           -0.18046385230298       -1.67226076953517        0.34810840409909
C           -0.05257896348763       -0.44081733742738        0.98409250709209
C           -1.13498642804162        0.41293625579837        1.08218316961911
C           -2.37584637247199        0.03923174736405        0.59832413059298
C           -2.54636086882181       -1.20308086429618        0.00403534592223
N           -3.81552431337068       -1.59507434951520       -0.43027336871919
C           -4.50065354439385       -2.72394062000022       -0.01765863922328
C           -4.10870950244470       -3.72470428426849        0.85624916201367
C           -5.00954982742692       -4.73788617452364        1.12496186769652
C           -6.27653503416773       -4.75241487368132        0.54701039188636
C           -6.68263666506774       -3.74325707060525       -0.30407354999533
C           -5.79407460866836       -2.71360419848320       -0.58538942670451
C           -5.88398280590164       -1.51647962215622       -1.37409764219427
C           -6.90350132031350       -0.96438356093586       -2.16169619000709
O           -8.07404235099713       -1.65796344578996       -2.22479488334603
C           -9.25429884454770       -0.99230662876189       -2.64323487694887
C           -9.66845450093805        0.11806626705064       -1.67363697199049
C           -9.87482342479425       -0.42559509124583       -0.25607474242612
C           -9.57508753387747        0.60676890598263        0.83224644999080
C           -8.07559780363368        0.85348741255258        0.99553041969635
C           -7.77494086251600        1.75852246669519        2.19520287954785
N           -6.36054902505621        1.92250578994262        2.40574164492420
C           -5.55236771240451        1.00873854078979        3.03955701671937
C           -5.87406751576404       -0.21943214102714        3.60257078033338
C           -4.86054668684627       -0.94285280149231        4.20090355331052
C           -3.55430039341876       -0.45929822274026        4.25132577594597
C           -3.22491070486721        0.75984624765383        3.69435762146846
C           -4.22415993685407        1.49769230987078        3.07080553125865
C           -4.24877248183938        2.76036475836896        2.39064098195683
C           -3.25516358624582        3.69965157569740        2.08014255181254
O           -1.98500098531056        3.38257338423297        2.45243921289992
C           -0.90367178725619        4.21711032202699        2.05486771703229
C            0.35155756423056        3.45504935653388        2.38841955970760
C            1.19136297402059        2.97478409681133        1.39037306759422
C            2.27473274268020        2.17717647869512        1.70576033617882
C            2.54618506958643        1.83066871872889        3.03033102157034
C            3.63992142491017        0.94295223773913        3.40745196939675
C            4.33853826103792        0.16467459723667        2.58998782546587
C            1.71813820987271        2.34861078913606        4.02852515486238
C            0.63611538312925        3.14550411163772        3.71340479464877
C           -3.63519537366593        4.85581316034199        1.41617862110819
C           -4.96420038181093        5.06084943850854        1.04662396168136
C           -5.95311214376363        4.13810287326567        1.31430408153959
C           -5.58831507368205        2.98228139284617        1.99782869838981
C           -6.63287719256190        0.22688205300743       -2.82293153351792
C           -5.39616368598131        0.85362167425925       -2.69997878860489
C           -4.38772676326635        0.33753633949980       -1.91216413046609
C           -4.64854057073674       -0.85116324297273       -1.24522110735214
C           -1.43699415884702       -2.05452409861339       -0.16103024890061
C           -1.58100608582646       -3.21876771014460       -0.94280963778286
N           -1.70478564000209       -4.11866152827902       -1.64549652180484
C            2.34299184923341        4.10191867884317       -3.65160324915969
C            1.11093597940371        4.49529858939675       -3.16541238789721
H           -2.81717662541172        3.73130932106551       -0.98391657354325
H           -1.61329478429451        2.35908418119460       -0.94439043968531
H           -1.37450534423417        5.00996400382438       -2.45687872419293
H           -0.11148412288307        1.46778523734098       -2.29765309265155
H            2.06355488131849        0.77523263201907       -3.17220527017799
H            4.45408826450162        3.00029682249766       -4.89728311674906
H            3.98480724511314        1.30457676187853       -4.56701838553369
H            6.12682152933458        1.09056926659640       -5.13463435490025
H            8.21203280594028       -0.13943358903442       -5.00445528224961
H            9.44268657441185       -0.38839839262773       -2.89397957819220
H            4.74875948888319        3.18561083958067       -0.59157511807939
H            4.88682717964972        3.77499800142366        1.81211325714764
H            6.74088445578263        2.96551301285426        3.18969114781448
H            8.50851320177381        1.54464022440124        2.24038891754890
H           10.12625143072457        0.68551979678119        0.74172413472074
H           10.27747496074026       -0.16357530235435       -0.80475296429652
H            9.96251294496679       -1.67058734722240        1.24127218279398
H            8.34092506340743       -0.98943756567992        1.40647332432100
H            9.42019262103118       -2.63912049933507       -0.91561346896851
H            7.90701457090858       -1.73778287443294       -0.99941700888396
H            8.51770952351064       -3.82254943310849        1.13459838049029
H            6.96433485229474       -3.03651975015443        0.85487448555620
H            8.35995300242520       -4.81667123258406       -1.19398893279096
H            7.16894867863618       -5.40243452148889       -0.02646984742019
H            6.25222970448644       -4.98573379187108       -2.30581316720883
H            6.56743147115355       -3.25501161898359       -2.10851183070527
H            5.73360668393858       -1.50993914032990       -1.58608720140708
H            4.19219981791470        0.33087394226819       -1.46468234430837
H            1.87575424971976        0.04580440079869       -0.68593079803080
H            3.65252084182496       -5.97584079299731        0.05822714323059
H            1.96081681924579       -7.52621661987493        1.00145322592858
H           -0.25916824017995       -6.70613726483943        1.64086065436027
H           -0.88088634531914       -4.35218819447102        1.32587672106401
H            0.89859681224484       -0.16009419683152        1.40723322180135
H           -1.01914009091131        1.36849142362281        1.56606407319535
H           -3.22616777762916        0.69224029345269        0.70841097195323
H           -3.13533762176070       -3.71327243613137        1.32340496818343
H           -4.72399174200317       -5.53265128430887        1.79841053240688
H           -6.95088194298951       -5.56422907686705        0.77641153567103
H           -7.66664943744539       -3.74207963567995       -0.74619969081792
H           -9.14072315951308       -0.59990953488882       -3.66121061983166
H          -10.00985950349530       -1.78239174041870       -2.66004929785148
H           -8.88708684824806        0.87772105917581       -1.66175751088955
H          -10.58288163284495        0.58116695674798       -2.04626772087742
H           -9.21431559300419       -1.28291487371457       -0.10811697988244
H          -10.90237824358739       -0.77888089292154       -0.15060626574586
H           -9.97218216031093        0.23820446656772        1.78097206780721
H          -10.08391623030461        1.54532037144419        0.60188823014563
H           -7.56645295719650       -0.10239801380259        1.13838309430926
H           -7.65885044456647        1.31123659498338        0.09663470117433
H           -8.22116538851366        2.74390480271969        2.04424528996688
H           -8.21056299936397        1.32524357389081        3.10145649534806
H           -6.88138295300587       -0.60615127770737        3.57833705479939
H           -5.08572124582780       -1.90421107451981        4.64015037759622
H           -2.78994958656094       -1.05061892856976        4.73489878118790
H           -2.21647412486994        1.13939698012547        3.73827313019400
H           -0.94561424799630        5.16898893198924        2.60368318023498
H           -0.95476884846590        4.41717410713182        0.97723139927125
H            0.98919374177251        3.21895127867168        0.35683701582274
H            2.91987581566705        1.82103227927666        0.91816957940156
H            3.85582171793575        0.91957230640896        4.46907018135101
H            4.16502436986650        0.12320256259626        1.52831737090115
H            5.11922154723820       -0.47492034425910        2.96446795790442
H            1.91896329876622        2.10661069999382        5.06277087580661
H           -0.00894169148266        3.51895519353120        4.49554193195904
H           -2.90680034221172        5.61403136593563        1.17467321118872
H           -5.21768873315839        5.97293185401870        0.52579382836065
H           -6.96977001819354        4.31678456881195        1.00191769342335
H           -7.37600992519545        0.68090778880137       -3.45899611921914
H           -5.22631519489895        1.77381558925964       -3.23909576046450
H           -3.43629223547083        0.83668027290529       -1.82960231768859
H            3.03336504790544        4.84091936149861       -4.03211909043237
H            0.84502266147999        5.54301769246669       -3.17118516012504

          :  Hamiltonian                  GFN2-xTB          :
         :: gradient norm              0.000123382439 Eh/a0 ::
         :: HOMO-LUMO gap              2.103596238945 eV    ::
         :: SCC energy              -254.630799855231 Eh    ::
         :: -> dispersion             -0.256815159922 Eh    ::
         :: -> Gsolv                  -0.088229827320 Eh    ::
         :: repulsion energy           4.294682846221 Eh    ::

    * Orbital Energies and Occupations

         #    Occupation            Energy/Eh            Energy/eV
      -------------------------------------------------------------
         1        2.0000           -0.7156766             -19.4746
       ...           ...                  ...                  ...
       219        2.0000           -0.3959412             -10.7741
       220        2.0000           -0.3934578             -10.7065
       221        2.0000           -0.3923218             -10.6756
       222        2.0000           -0.3894853             -10.5984
       223        2.0000           -0.3843200             -10.4579
       224        2.0000           -0.3763740             -10.2417
       225        2.0000           -0.3748985             -10.2015
       226        2.0000           -0.3704944             -10.0817
       227        2.0000           -0.3694125             -10.0522
       228        2.0000           -0.3650167              -9.9326
       229        2.0000           -0.3627657              -9.8714
       230        2.0000           -0.3578673              -9.7381
       231        2.0000           -0.3570654              -9.7162 (HOMO)
       232                         -0.2797596              -7.6126 (LUMO)
       233                         -0.2572779              -7.0009
       234                         -0.2537697              -6.9054
       235                         -0.2530949              -6.8871
       236                         -0.2439974              -6.6395
       237                         -0.2413574              -6.5677
       238                         -0.2396442              -6.5211
       239                         -0.2386424              -6.4938
       240                         -0.2283745              -6.2144
       241                         -0.2249661              -6.1216
       242                         -0.2217607              -6.0344
       ...                                ...                  ...
       449                          1.1558955              31.4535
      -------------------------------------------------------------
                  HL-Gap            0.0773058 Eh            2.1036 eV

     #   Z          covCN         q      C6AA      α(0)
     1   6 C        2.838    -0.083    30.074     8.987
     2   6 C        2.895    -0.031    28.779     8.796
     3   6 C        2.971     0.015    27.684     8.631
     4   6 C        2.923    -0.032    28.791     8.799
     5   6 C        2.922    -0.032    28.807     8.802
     6   6 C        2.969     0.006    27.889     8.662
     7   6 C        3.694     0.085    19.337     6.291
     8   8 O        1.705    -0.293    18.874     5.866
     9   6 C        2.853     0.137    25.005     8.196
    10   6 C        2.917    -0.085    30.124     9.000
    11   6 C        2.924    -0.039    28.969     8.827
    12   6 C        2.908    -0.067    29.678     8.933
    13   6 C        3.079     0.046    26.894     8.502
    14   6 C        3.075    -0.042    28.948     8.821
    15   6 C        3.069    -0.013    28.274     8.719
    16   6 C        2.912    -0.034    28.853     8.808
    17   6 C        2.920    -0.042    29.037     8.837
    18   6 C        2.923    -0.036    28.893     8.815
    19   6 C        2.910    -0.054    29.335     8.881
    20   6 C        3.086     0.044    26.914     8.504
    21   7 N        2.799    -0.046    22.133     6.987
    22   6 C        3.740    -0.002    20.699     6.491
    23   6 C        3.802    -0.064    21.723     6.636
    24   6 C        3.802    -0.058    21.622     6.620
    25   6 C        3.802    -0.056    21.579     6.614
    26   6 C        3.800    -0.066    21.775     6.644
    27   6 C        3.683     0.077    19.485     6.321
    28   8 O        1.704    -0.284    18.717     5.841
    29   6 C        2.846     0.143    24.878     8.175
    30   6 C        2.918    -0.077    29.933     8.972
    31   6 C        2.925    -0.035    28.874     8.812
    32   6 C        2.909    -0.065    29.627     8.925
    33   6 C        3.071     0.047    26.866     8.499
    34   6 C        3.069    -0.038    28.879     8.812
    35   6 C        3.068    -0.009    28.179     8.704
    36   6 C        2.913    -0.035    28.864     8.810
    37   6 C        2.920    -0.040    29.001     8.831
    38   6 C        2.924    -0.034    28.853     8.809
    39   6 C        2.910    -0.047    29.166     8.856
    40   6 C        3.068     0.047    26.869     8.500
    41   7 N        2.803    -0.050    22.202     6.998
    42   6 C        2.914     0.074    26.345     8.417
    43   6 C        2.921    -0.047    29.172     8.857
    44   6 C        2.918    -0.020    28.512     8.756
    45   6 C        2.921    -0.043    29.071     8.842
    46   6 C        2.919     0.074    26.346     8.417
    47   7 N        2.805    -0.054    22.284     7.011
    48   6 C        3.073     0.049    26.818     8.491
    49   6 C        2.910    -0.048    29.180     8.858
    50   6 C        2.924    -0.034    28.849     8.808
    51   6 C        2.920    -0.041    29.021     8.834
    52   6 C        2.913    -0.035    28.861     8.809
    53   6 C        3.069    -0.010    28.197     8.707
    54   6 C        3.070    -0.038    28.871     8.810
    55   6 C        2.853     0.143    24.884     8.176
    56   8 O        1.704    -0.288    18.781     5.851
    57   6 C        3.691     0.077    19.472     6.315
    58   6 C        3.800    -0.070    21.835     6.653
    59   6 C        3.802    -0.060    21.652     6.625
    60   6 C        3.802    -0.060    21.651     6.625
    61   6 C        3.802    -0.059    21.637     6.622
    62   6 C        3.740    -0.002    20.690     6.490
    63   7 N        2.799    -0.049    22.178     6.994
    64   6 C        3.085     0.043    26.946     8.509
    65   6 C        2.910    -0.054    29.352     8.884
    66   6 C        2.923    -0.037    28.926     8.820
    67   6 C        2.920    -0.046    29.134     8.851
    68   6 C        2.912    -0.037    28.922     8.819
    69   6 C        3.068    -0.015    28.306     8.724
    70   6 C        3.074    -0.043    28.996     8.829
    71   6 C        2.852     0.138    24.991     8.193
    72   8 O        1.705    -0.289    18.807     5.855
    73   6 C        3.693     0.083    19.373     6.297
    74   6 C        2.969     0.003    27.947     8.671
    75   6 C        2.920    -0.035    28.870     8.811
    76   6 C        2.923    -0.032    28.802     8.801
    77   6 C        2.971     0.015    27.666     8.628
    78   6 C        2.895    -0.031    28.770     8.794
    79   6 C        2.837    -0.081    30.025     8.980
    80   6 C        2.927    -0.035    28.864     8.811
    81   6 C        2.921    -0.031    28.766     8.795
    82   6 C        2.916    -0.084    30.091     8.995
    83   6 C        2.924    -0.038    28.939     8.822
    84   6 C        2.908    -0.066    29.648     8.928
    85   6 C        3.079     0.044    26.922     8.507
    86   6 C        2.918    -0.079    29.973     8.978
    87   6 C        2.925    -0.036    28.895     8.815
    88   6 C        2.909    -0.064    29.603     8.922
    89   6 C        3.074     0.048    26.841     8.494
    90   6 C        2.974    -0.013    28.340     8.732
    91   6 C        1.910     0.133    27.852     8.523
    92   7 N        0.911    -0.283    27.308     7.558
    93   6 C        2.920    -0.032    28.804     8.801
    94   6 C        2.926    -0.034    28.857     8.810
    95   1 H        0.926     0.040     2.451     2.448
    96   1 H        0.926     0.038     2.474     2.460
    97   1 H        0.925     0.039     2.463     2.454
    98   1 H        0.926     0.034     2.525     2.485
    99   1 H        0.926     0.038     2.479     2.462
   100   1 H        0.923     0.031     2.573     2.508
   101   1 H        0.924     0.034     2.536     2.490
   102   1 H        0.926     0.025     2.659     2.550
   103   1 H        0.926     0.031     2.578     2.511
   104   1 H        0.926     0.032     2.559     2.501
   105   1 H        0.926     0.031     2.574     2.509
   106   1 H        0.926     0.022     2.702     2.570
   107   1 H        0.926     0.026     2.648     2.545
   108   1 H        0.926     0.030     2.593     2.518
   109   1 H        0.924     0.052     2.295     2.369
   110   1 H        0.924     0.056     2.247     2.344
   111   1 H        0.924     0.045     2.387     2.416
   112   1 H        0.924     0.044     2.398     2.422
   113   1 H        0.924     0.036     2.508     2.476
   114   1 H        0.925     0.033     2.538     2.491
   115   1 H        0.924     0.039     2.466     2.456
   116   1 H        0.924     0.035     2.511     2.478
   117   1 H        0.924     0.047     2.360     2.402
   118   1 H        0.924     0.050     2.320     2.382
   119   1 H        0.923     0.042     2.422     2.434
   120   1 H        0.924     0.040     2.444     2.445
   121   1 H        0.926     0.031     2.569     2.506
   122   1 H        0.926     0.043     2.413     2.429
   123   1 H        0.926     0.038     2.474     2.460
   124   1 H        0.926     0.046     2.376     2.410
   125   1 H        0.926     0.034     2.526     2.485
   126   1 H        0.926     0.033     2.543     2.494
   127   1 H        0.926     0.016     2.794     2.614
   128   1 H        0.926     0.060     2.194     2.316
   129   1 H        0.926     0.072     2.061     2.245
   130   1 H        0.926     0.058     2.227     2.334
   131   1 H        0.926     0.014     2.828     2.630
   132   1 H        0.926     0.033     2.550     2.497
   133   1 H        0.926     0.034     2.530     2.487
   134   1 H        0.926     0.044     2.398     2.421
   135   1 H        0.924     0.032     2.558     2.501
   136   1 H        0.924     0.054     2.268     2.355
   137   1 H        0.925     0.048     2.340     2.392
   138   1 H        0.924     0.043     2.405     2.425
   139   1 H        0.924     0.045     2.383     2.414
   140   1 H        0.924     0.038     2.482     2.464
   141   1 H        0.924     0.038     2.482     2.463
   142   1 H        0.924     0.039     2.460     2.453
   143   1 H        0.924     0.038     2.469     2.457
   144   1 H        0.924     0.037     2.495     2.470
   145   1 H        0.924     0.055     2.262     2.352
   146   1 H        0.924     0.051     2.308     2.376
   147   1 H        0.926     0.029     2.594     2.518
   148   1 H        0.926     0.025     2.659     2.550
   149   1 H        0.926     0.021     2.718     2.578
   150   1 H        0.926     0.035     2.514     2.480
   151   1 H        0.923     0.034     2.537     2.491
   152   1 H        0.924     0.037     2.493     2.469
   153   1 H        0.926     0.035     2.515     2.480
   154   1 H        0.926     0.045     2.379     2.412
   155   1 H        0.925     0.038     2.478     2.462
   156   1 H        0.926     0.039     2.462     2.454
   157   1 H        0.926     0.036     2.497     2.471
   158   1 H        0.926     0.038     2.479     2.462
   159   1 H        0.926     0.039     2.465     2.455
   160   1 H        0.926     0.029     2.604     2.523
   161   1 H        0.926     0.032     2.558     2.501
   162   1 H        0.926     0.031     2.570     2.507
   163   1 H        0.926     0.039     2.462     2.454
   164   1 H        0.926     0.039     2.467     2.456
   165   1 H        0.926     0.032     2.553     2.499
   166   1 H        0.926     0.039     2.467     2.456
   167   1 H        0.926     0.040     2.446     2.446

molecular dipole:
                 x           y           z       tot (Debye)
 q only:        0.401       1.660       0.454
   full:        0.528       2.260       0.284       5.943

 projected vibrational frequencies (cm⁻¹)
eigval :       -0.00    -0.00    -0.00    -0.00    -0.00     0.00
eigval :        9.01    12.26    13.79    14.24    17.56    20.00
eigval :       22.13    24.67    25.54    26.22    30.16    31.73
eigval :       32.87    34.30    35.50    41.51    42.58    44.96
eigval :       48.87    51.46    52.70    54.29    56.96    63.09
eigval :       66.96    68.21    77.36    81.22    82.48    90.03
eigval :       91.87    93.14    96.01    97.71   103.42   105.13
eigval :      110.58   117.96   120.00   122.74   125.65   128.03
eigval :      130.13   134.22   135.96   142.30   147.85   150.92
eigval :      155.51   160.57   164.36   169.61   194.16   197.38
eigval :      203.06   206.42   207.33   209.59   211.57   218.76
eigval :      221.73   223.97   227.10   232.61   236.83   240.25
eigval :      249.48   251.57   264.80   272.26   282.52   283.59
eigval :      292.81   293.32   297.61   300.71   302.07   303.13
eigval :      303.59   322.44   325.25   332.86   341.98   344.62
eigval :      349.34   353.49   361.80   366.55   373.78   374.27
eigval :      379.63   395.32   399.28   405.96   406.92   410.55
eigval :      412.06   413.80   414.28   416.11   418.38   423.69
eigval :      429.05   439.81   441.50   441.80   466.92   472.80
eigval :      479.59   482.05   498.22   501.97   506.22   512.54
eigval :      519.40   522.63   523.40   525.26   526.20   534.85
eigval :      535.36   537.94   538.91   540.37   540.98   542.17
eigval :      545.39   547.17   565.08   567.60   570.84   574.68
eigval :      575.24   579.40   580.39   584.04   590.33   598.00
eigval :      600.64   607.26   609.49   612.17   612.94   614.06
eigval :      620.21   626.36   638.26   656.59   661.47   669.63
eigval :      670.52   670.85   671.23   694.47   695.80   700.87
eigval :      703.49   707.00   707.05   707.57   709.11   715.42
eigval :      717.37   732.90   749.52   759.82   761.12   763.57
eigval :      765.80   766.71   768.58   769.91   770.75   772.10
eigval :      772.76   775.29   778.47   780.06   785.54   789.41
eigval :      790.42   800.71   806.90   816.92   819.67   826.08
eigval :      826.32   829.46   842.65   843.06   850.07   857.33
eigval :      860.39   861.32   862.82   867.29   868.19   870.64
eigval :      871.26   872.27   873.16   875.79   881.25   889.58
eigval :      893.67   896.40   900.20   902.80   903.18   903.24
eigval :      904.75   905.31   905.77   908.35   909.24   910.36
eigval :      913.55   916.76   918.68   919.62   922.18   922.65
eigval :      923.87   926.32   930.40   931.58   936.91   950.95
eigval :      952.09   956.39   962.27   979.53   984.69   986.54
eigval :      995.02   998.84  1003.67  1006.02  1006.34  1010.38
eigval :     1011.04  1011.37  1014.34  1019.82  1021.90  1022.78
eigval :     1034.49  1036.09  1040.90  1044.63  1050.62  1064.46
eigval :     1067.99  1072.10  1072.25  1074.32  1083.15  1093.28
eigval :     1099.57  1103.84  1104.99  1106.49  1110.91  1112.38
eigval :     1115.86  1122.95  1124.43  1127.52  1129.03  1130.05
eigval :     1131.67  1137.56  1138.19  1141.81  1145.56  1145.95
eigval :     1147.26  1158.00  1163.71  1168.44  1174.36  1177.14
eigval :     1179.27  1182.09  1182.89  1183.66  1185.78  1187.15
eigval :     1188.71  1190.34  1193.58  1196.13  1196.43  1197.69
eigval :     1198.03  1202.08  1206.92  1209.14  1211.64  1214.97
eigval :     1219.26  1223.77  1225.00  1225.89  1233.22  1240.61
eigval :     1246.11  1248.99  1250.12  1253.79  1254.94  1255.51
eigval :     1258.16  1260.12  1261.04  1274.79  1277.09  1277.89
eigval :     1281.41  1284.67  1286.24  1287.33  1290.48  1293.31
eigval :     1295.03  1295.96  1300.60  1303.63  1304.42  1307.19
eigval :     1308.36  1312.19  1318.95  1320.24  1321.33  1324.10
eigval :     1329.73  1331.37  1332.07  1332.84  1334.90  1335.65
eigval :     1340.59  1346.93  1350.92  1357.38  1358.05  1358.65
eigval :     1359.43  1359.60  1360.75  1363.54  1365.57  1366.43
eigval :     1371.74  1373.56  1376.10  1376.77  1377.64  1403.65
eigval :     1409.64  1410.31  1413.88  1417.40  1418.58  1419.13
eigval :     1420.50  1421.44  1422.64  1437.51  1438.74  1445.80
eigval :     1446.40  1458.82  1461.83  1464.24  1465.46  1466.13
eigval :     1467.07  1468.67  1473.17  1475.96  1476.90  1477.53
eigval :     1484.42  1484.95  1485.71  1488.42  1490.52  1490.74
eigval :     1490.81  1491.82  1491.98  1492.83  1494.92  1495.69
eigval :     1496.53  1548.13  1564.28  1570.25  1571.04  1571.61
eigval :     1573.65  1573.85  1574.56  1585.90  1586.00  1586.29
eigval :     1588.04  1589.06  1591.05  1591.30  1591.87  1598.01
eigval :     1599.89  1606.85  1608.42  1610.14  1611.40  1673.70
eigval :     1676.07  2353.08  2871.84  2881.48  2901.13  2902.44
eigval :     2905.04  2910.52  2941.95  2951.16  2962.12  2962.90
eigval :     2967.75  2968.23  2970.47  2974.08  2975.68  2979.84
eigval :     2980.15  2984.09  2984.39  2986.55  2986.72  2988.10
eigval :     2992.23  2993.49  2995.83  2996.12  3005.95  3011.00
eigval :     3040.65  3043.38  3067.00  3068.54  3068.63  3069.46
eigval :     3071.34  3073.39  3074.86  3074.90  3075.29  3075.45
eigval :     3076.51  3077.58  3078.98  3080.80  3080.93  3082.31
eigval :     3083.23  3086.49  3089.31  3089.39  3089.82  3091.41
eigval :     3093.40  3093.86  3095.14  3098.93  3100.92  3101.38
eigval :     3102.06  3102.14  3103.25  3104.58  3105.83  3106.30
eigval :     3107.79  3110.31  3111.01  3111.62  3116.44  3116.88
eigval :     3123.63  3131.43  3131.80

   temp. (K)  partition function   enthalpy   heat capacity  entropy
                                   cal/mol     cal/K/mol   cal/K/mol   J/K/mol
 298.15  VIB  0.199E+41            49739.500    300.681    314.645
         ROT  0.397E+09              888.752      2.981     42.330
         INT  0.792E+49            50628.252    303.662    356.975
         TR   0.417E+29             1481.254      4.968     47.174
         TOT                       52109.5058   308.6300   404.1487  1690.9582

       T/K    H(0)-H(T)+PV         H(T)/Eh          T*S/Eh         G(T)/Eh
   ------------------------------------------------------------------------
    298.15    0.830418E-01    0.141581E+01    0.192024E+00    0.122378E+01
   ------------------------------------------------------------------------

         :::::::::::::::::::::::::::::::::::::::::::::::::::::
         ::                  THERMODYNAMIC                  ::
         :::::::::::::::::::::::::::::::::::::::::::::::::::::
         :: total free energy        -249.112335700274 Eh   ::
         ::.................................................::
         :: total energy             -250.336117007602 Eh   ::
         :: zero point energy           1.332763617010 Eh   ::
         :: G(RRHO) w/o ZPVE           -0.108982309681 Eh   ::
         :: G(RRHO) contrib.            1.223781307329 Eh   ::
         :::::::::::::::::::::::::::::::::::::::::::::::::::::

           -------------------------------------------------
          | TOTAL ENERGY             -250.336117007602 Eh   |
          | TOTAL ENTHALPY           -248.920311607297 Eh   |
          | TOTAL FREE ENERGY        -249.112335700274 Eh   |
          | GRADIENT NORM               0.000123395820 Eh/α |
          | HOMO-LUMO GAP               2.103597340820 eV   |
           -------------------------------------------------

 * finished run on 2025/08/28 at 11:06:50.795
