   * xtb version 6.7.1 (edcfbbe) compiled by 'albert@albert-system' on 2024-07-22

   ID    Z sym.   atoms
    1    6 C      1-7, 9-20, 22-27, 29-40, 42-46, 48-55, 57-62, 64-71, 73-91,
                  93, 94
    2    8 O      8, 28, 56, 72
    3    7 N      21, 41, 47, 63, 92
    4    1 H      95-167

          program call               : xtb data2507/toluene/DVCz-2CzCN/DVCz-2CzCN_toluene_S0_finalOpt.xtbopt.xyz --gfn 2 --uhf 2 --gbsa toluene --ohess vtight --parallel 40 --molden --ceasefiles --namespace data2507/toluene/DVCz-2CzCN/DVCz-2CzCN_toluene_T1_preOpt
      * Solvation model:               GBSA
        Solvent                        toluene
        Solvent mass                       9.2140E+01 g/mol
          :  Hamiltonian                  GFN2-xTB          :
 * total energy  :  -250.2368052 Eh     change       -0.2247779E-07 Eh
 * total energy  :  -250.2391505 Eh     change       -0.2345333E-02 Eh
 * total energy  :  -250.2398901 Eh     change       -0.7395711E-03 Eh
 * total energy  :  -250.2399671 Eh     change       -0.7699899E-04 Eh
 * total energy  :  -250.2400201 Eh     change       -0.5295500E-04 Eh
 * total energy  :  -250.2400469 Eh     change       -0.2686700E-04 Eh
 * total energy  :  -250.2400744 Eh     change       -0.2745179E-04 Eh
 * total energy  :  -250.2400880 Eh     change       -0.1360296E-04 Eh
 * total energy  :  -250.2400997 Eh     change       -0.1168851E-04 Eh
 * total energy  :  -250.2401088 Eh     change       -0.9095150E-05 Eh
 * total energy  :  -250.2402109 Eh     change       -0.2004510E-06 Eh
 * total energy  :  -250.2402111 Eh     change       -0.1956350E-06 Eh
 * total energy  :  -250.2402114 Eh     change       -0.2601083E-06 Eh
 * total energy  :  -250.2402117 Eh     change       -0.2952912E-06 Eh
 * total energy  :  -250.2402120 Eh     change       -0.3664223E-06 Eh
 * total energy  :  -250.2402124 Eh     change       -0.3864880E-06 Eh
 * total energy  :  -250.2402128 Eh     change       -0.4109853E-06 Eh
 * total energy  :  -250.2402128 Eh     change        0.1148851E-07 Eh
 * total energy  :  -250.2402128 Eh     change       -0.1674448E-07 Eh
   *** GEOMETRY OPTIMIZATION CONVERGED AFTER 69 ITERATIONS ***

 final structure:
================
167
 xtb: 6.7.1 (edcfbbe)
C           -1.90127729665983        3.27101137496198       -1.30577715604981
C           -1.09670668492735        3.95007230346118       -2.12501533632692
C            0.17859987374843        3.49624903962432       -2.64888750597584
C            0.59719400598956        2.16207364688247       -2.56975126153224
C            1.81087621151444        1.77054952055744       -3.09003148720713
C            2.66093338685803        2.69223307270012       -3.69633974116970
C            4.01347698996994        2.24839921636657       -4.18095791757096
O            4.87588087849576        2.25752187162647       -3.04785760689896
C            6.05274592301600        1.58387396594828       -3.08668704158526
C            6.59724833176609        0.96002666070764       -4.20399207178551
C            7.79974327212733        0.26376943165827       -4.11536421675021
C            8.50067342660749        0.15056094965283       -2.93079463559905
C            7.97107821761273        0.77738572987482       -1.80618349929588
C            6.76258710550555        1.50489981809145       -1.88122488848890
C            6.51841780428167        2.03480428833114       -0.57101528626434
C            5.52134443197344        2.83619224578596       -0.03109680215806
C            5.60606201550184        3.18289323809501        1.30339633434114
C            6.66420399889758        2.73953302360757        2.09567769694961
C            7.66605961200042        1.94048551362727        1.58136100259997
C            7.59138553010695        1.58803798220999        0.23860434966896
N            8.45452139005937        0.83645484217197       -0.52100998045116
C            9.57403580852282        0.10266855142898        0.00849625398168
C            9.11751624767368       -1.18614714206696        0.70756600843379
C            8.60912710248935       -2.23184752032442       -0.28373929366371
C            7.88304797573102       -3.37582010163308        0.42279314986574
C            7.53404863228102       -4.53532348939989       -0.51153356350473
C            6.40924020400547       -4.22966403538525       -1.50415699884209
O            5.15053469426513       -4.18148676113070       -0.84502998083713
C            4.39056437729893       -3.06551478064398       -0.79585721194593
C            4.77203560916131       -1.77789413799181       -1.17407718254718
C            3.88069779137972       -0.71286344693288       -1.10872771752571
C            2.57992334948391       -0.86962018096901       -0.66121115522549
C            2.19776208878385       -2.13595237731657       -0.24193745453697
C            3.08386050258890       -3.23404900216264       -0.30900648176978
C            2.35920361016187       -4.37463524487407        0.16515847353624
C            2.69044187438733       -5.71000688170227        0.35512771847878
C            1.73887666757888       -6.55702412233648        0.88885013424809
C            0.47414912568127       -6.08782706544184        1.25034751919101
C            0.12081697377295       -4.76628770445873        1.06811100526394
C            1.05846683151801       -3.91190417854395        0.50090331331266
N            0.97413086889953       -2.56411503344599        0.24201488962555
C           -0.14853904527297       -1.74235717313537        0.39144643419360
C           -0.02275900492996       -0.52017541587175        1.01943039390854
C           -1.10156861874154        0.35353720230755        1.12298098276374
C           -2.34891029376518       -0.03173646991306        0.62693202357547
C           -2.52311507016508       -1.26019588777743        0.03521776334198
N           -3.80470915686589       -1.64434578112042       -0.39232058166730
C           -4.50569380640813       -2.74360577118977        0.04182907116577
C           -4.13185429982946       -3.72759760902768        0.94715803870295
C           -5.04638678741522       -4.72049814891683        1.23658706401613
C           -6.31027485638514       -4.73613515688115        0.64520480967306
C           -6.69826728693612       -3.75007724229719       -0.24214732146130
C           -5.79735381811380       -2.73775073031429       -0.54443622671812
C           -5.85921845876290       -1.56632639960623       -1.36935660811196
C           -6.86122989707861       -1.00884826702447       -2.17399769848007
O           -8.04953150603627       -1.66334994632119       -2.21926878760531
C           -9.20828379718376       -0.98013208149714       -2.67224030610564
C           -9.59797289480601        0.17087970000998       -1.74072322521086
C           -9.85084715418525       -0.32762070394271       -0.31449731051539
C           -9.57252431411259        0.73358092481798        0.75159487693670
C           -8.07584471480526        0.97415192931196        0.94800931737246
C           -7.79923957138581        1.88715339213414        2.14819429381559
N           -6.38883607269555        2.04477946177341        2.38573974721249
C           -5.59810163761857        1.12982264450066        3.03530009996329
C           -5.94014342547824       -0.08915279905730        3.60989923433463
C           -4.93927158096389       -0.81800487410646        4.22147250098713
C           -3.62677301658069       -0.34942891287423        4.27435964580375
C           -3.27687510924091        0.86040769702566        3.70711138060890
C           -4.26276298282840        1.60309268355794        3.07071109458314
C           -4.26709740450989        2.85766432786009        2.37423136211698
C           -3.25759762987661        3.77526687533544        2.05361265232929
O           -2.00041506723155        3.45807561257919        2.44321001366022
C           -0.90077241872110        4.24881689244438        2.00355780867522
C            0.34250599782879        3.47538505365389        2.35154830872397
C            1.18057530993244        2.97322135254538        1.36168949308836
C            2.25567203777477        2.17220287250861        1.68995873874450
C            2.52418005114083        1.83972546892515        3.02088291142658
C            3.60524235602316        0.94909811872285        3.41343071423338
C            4.35400750248611        0.20468554738679        2.60454563276807
C            1.69532621040676        2.37863159965402        4.00992739883399
C            0.62257644518307        3.18087011261824        3.68206548034867
C           -3.62264531417315        4.92744175801556        1.36261996385150
C           -4.94375444482017        5.14423586309426        0.98298247493960
C           -5.94846346767164        4.23831549444552        1.26389082044322
C           -5.60047221400896        3.09000188958922        1.96777338412570
C           -6.55441189732651        0.15936324618942       -2.87111665295274
C           -5.30342971175596        0.75800223283316       -2.76269097796409
C           -4.31238562984567        0.23876599906671       -1.95030160894186
C           -4.60632517431798       -0.92348730304328       -1.25024138476216
C           -1.41638776494999       -2.15244811378928       -0.15100934349324
C           -1.55498536103186       -3.28037775196234       -0.93324751290009
N           -1.69023036655552       -4.21742416988225       -1.61044694562983
C            2.25609297145995        4.02038341153293       -3.77999851482729
C            1.03271201162871        4.41108519088350       -3.27723633098480
H           -2.84057674663197        3.67923870202036       -0.97260697024511
H           -1.65215775427344        2.29436606559807       -0.92506531794830
H           -1.38930880689843        4.94592888181493       -2.43834128422379
H           -0.04271724939681        1.42412372626534       -2.10913105518413
H            2.10993286260253        0.73366078309057       -3.02972193577324
H            4.40491137546191        2.92859625610374       -4.94922410961430
H            3.94879000415921        1.23365814640382       -4.59376730007344
H            6.09717705166771        1.01237949503192       -5.15817808633968
H            8.18948252017550       -0.20492006355456       -5.00684330781665
H            9.42397672145624       -0.40475469244834       -2.89243030597821
H            4.70613891422218        3.17914505094971       -0.64980488315481
H            4.83993695248511        3.80295083447820        1.74460183987751
H            6.69854160004960        3.02884286273309        3.13568717660216
H            8.47828498560054        1.60730479830571        2.20894464115075
H           10.09977629292567        0.74372969297762        0.72195160532752
H           10.25805529139475       -0.13358235740671       -0.80860811905518
H            9.95279662151569       -1.59486499774313        1.27835884689408
H            8.31968824210301       -0.93531935143070        1.40927661610913
H            9.45206183882864       -2.63355000023279       -0.85094452168519
H            7.93258437124738       -1.74958193724758       -0.98955972562862
H            8.52433859781145       -3.76051704380941        1.21920730126993
H            6.96905300041244       -2.99991732002240        0.88852780426779
H            8.41791929198907       -4.82586409575519       -1.08204597287938
H            7.21938662323386       -5.39282608239887        0.08650970696164
H            6.33229710839172       -5.05867195131606       -2.21901713562425
H            6.60948202674795       -3.31677343274809       -2.06564109443354
H            5.76838412214672       -1.57435028658447       -1.53122495238970
H            4.21802256043800        0.26430575673720       -1.41792787035453
H            1.89440666663132       -0.03843750338700       -0.64324832466907
H            3.67430973162023       -6.06420612862340        0.09150315893642
H            1.97499699453325       -7.59982687313747        1.04118872479970
H           -0.24146167812591       -6.77132803890622        1.68225306130278
H           -0.85445149376283       -4.41008749677595        1.36021235043983
H            0.92492940901973       -0.24778312602008        1.45935868626313
H           -0.98470690568649        1.30275657972113        1.61430020319693
H           -3.20104595168517        0.61967987399261        0.74785874721226
H           -3.15827879536568       -3.71133379725969        1.41256119465690
H           -4.77840437418967       -5.50022881416449        1.93412085074656
H           -6.99540006789518       -5.53380314069554        0.89177093206240
H           -7.67664806674126       -3.75648779679217       -0.69672565150416
H           -9.07400816013517       -0.62404396192960       -3.70051910441861
H           -9.98477502988798       -1.74956397978380       -2.67089262749298
H           -8.78793723296649        0.90000544760363       -1.73385579954162
H          -10.48754250231897        0.65760288431521       -2.14202222391528
H           -9.20492029184818       -1.18718907986464       -0.12229412937449
H          -10.88502414388538       -0.66659337999704       -0.22931535107699
H           -9.99745801287648        0.39382873950432        1.69879718758209
H          -10.06789043342280        1.66844023940263        0.48132629571611
H           -7.57466799966047        0.01727494076300        1.11057047096104
H           -7.63564596755398        1.42381348785296        0.05632462723292
H           -8.23747907550208        2.87307085138466        1.98029341344995
H           -8.25464015114308        1.46106489552229        3.04757239617154
H           -6.95168915424664       -0.46355493560422        3.58182340153751
H           -5.17746190496595       -1.77210201511942        4.66873247180752
H           -2.87208948790289       -0.94616062749008        4.76560830791637
H           -2.26285486190622        1.22418302623532        3.74697268732478
H           -0.91704772484669        5.22170333940630        2.51623564357988
H           -0.95916494276877        4.40639510901482        0.91942664025000
H            0.97901762324538        3.20105119612088        0.32416427439799
H            2.89490401125723        1.79670121909970        0.90657025299513
H            3.77317150258941        0.88962289245175        4.48257192982783
H            4.23311679717140        0.19894576212193        1.53508223128616
H            5.12079571108380       -0.44080539844374        2.99708207378112
H            1.89095610126485        2.14738819778817        5.04788514055259
H           -0.02166304424863        3.56973022084301        4.45769045491296
H           -2.88049487604281        5.66802698831611        1.10939355331417
H           -5.18296423533395        6.04923932149459        0.44415222052753
H           -6.96065622193217        4.42534449744400        0.94311604450615
H           -7.28255695146700        0.61004614088323       -3.52638171769124
H           -5.10487911211902        1.65460535390277       -3.33037826134367
H           -3.34778947518718        0.71316713457555       -1.87273784557285
H            2.90464174360354        4.74873939574805       -4.24625026326318
H            0.72878349284810        5.44577193329247       -3.35728056419106

          :  Hamiltonian                  GFN2-xTB          :
         :: gradient norm              0.000151313832 Eh/a0 ::
         :: HOMO-LUMO gap              0.087348908300 eV    ::
         :: SCC energy              -254.511351764903 Eh    ::
         :: -> dispersion             -0.255969998564 Eh    ::
         :: -> Gsolv                  -0.095140393228 Eh    ::
         :: repulsion energy           4.271138941155 Eh    ::

    * Orbital Energies and Occupations

         #    Occupation            Energy/Eh            Energy/eV
      -------------------------------------------------------------
         1        2.0000           -0.7207406             -19.6124
       ...           ...                  ...                  ...
       220        2.0000           -0.3919538             -10.6656
       221        2.0000           -0.3882986             -10.5661
       222        2.0000           -0.3801510             -10.3444
       223        2.0000           -0.3798606             -10.3365
       224        2.0000           -0.3762241             -10.2376
       225        2.0000           -0.3756277             -10.2214
       226        2.0000           -0.3751675             -10.2088
       227        2.0000           -0.3748956             -10.2014
       228        1.8663           -0.3636062              -9.8942
       229        1.8521           -0.3634945              -9.8912
       230        1.7980           -0.3631366              -9.8814
       231        1.4836           -0.3617688              -9.8442
       232        0.8140           -0.2547102              -6.9310 (HOMO)
       233        0.1299           -0.2515009              -6.8437 (LUMO)
       234        0.0544           -0.2505952              -6.8190
       235        0.0013           -0.2470288              -6.7220
       236        0.0002           -0.2450674              -6.6686
       237        0.0001           -0.2445096              -6.6534
       238        0.0001           -0.2443164              -6.6482
       239                         -0.2264450              -6.1619
       240                         -0.2241430              -6.0992
       241                         -0.2240812              -6.0976
       242                         -0.2225614              -6.0562
       243                         -0.2222693              -6.0483
       ...                                ...                  ...
       449                          1.1674082              31.7668
      -------------------------------------------------------------
                  HL-Gap            0.0032093 Eh            0.0873 eV

     #   Z          covCN         q      C6AA      α(0)
     1   6 C        2.837    -0.090    30.259     9.015
     2   6 C        2.895    -0.038    28.935     8.819
     3   6 C        2.970     0.007    27.868     8.659
     4   6 C        2.922    -0.035    28.864     8.810
     5   6 C        2.921    -0.035    28.870     8.811
     6   6 C        2.969    -0.005    28.134     8.700
     7   6 C        3.693     0.084    19.359     6.295
     8   8 O        1.705    -0.285    18.726     5.843
     9   6 C        2.851     0.143    24.878     8.175
    10   6 C        2.916    -0.079    29.973     8.978
    11   6 C        2.923    -0.036    28.900     8.816
    12   6 C        2.908    -0.061    29.528     8.910
    13   6 C        3.078     0.045    26.908     8.504
    14   6 C        3.074    -0.041    28.925     8.818
    15   6 C        3.069    -0.009    28.171     8.703
    16   6 C        2.911    -0.031    28.782     8.797
    17   6 C        2.920    -0.035    28.881     8.813
    18   6 C        2.923    -0.033    28.816     8.803
    19   6 C        2.909    -0.050    29.236     8.866
    20   6 C        3.085     0.045    26.895     8.501
    21   7 N        2.799    -0.030    21.813     6.937
    22   6 C        3.740    -0.006    20.764     6.501
    23   6 C        3.803    -0.065    21.737     6.638
    24   6 C        3.802    -0.060    21.651     6.625
    25   6 C        3.802    -0.057    21.595     6.616
    26   6 C        3.800    -0.067    21.790     6.646
    27   6 C        3.683     0.075    19.532     6.328
    28   8 O        1.705    -0.269    18.467     5.802
    29   6 C        2.845     0.148    24.771     8.157
    30   6 C        2.917    -0.071    29.779     8.949
    31   6 C        2.923    -0.037    28.908     8.817
    32   6 C        2.908    -0.051    29.255     8.869
    33   6 C        3.080     0.048    26.842     8.494
    34   6 C        3.066    -0.042    28.966     8.825
    35   6 C        3.068    -0.007    28.135     8.698
    36   6 C        2.911    -0.035    28.874     8.811
    37   6 C        2.920    -0.034    28.845     8.807
    38   6 C        2.922    -0.035    28.874     8.812
    39   6 C        2.909    -0.037    28.930     8.820
    40   6 C        3.076     0.053    26.728     8.476
    41   7 N        2.801    -0.027    21.769     6.930
    42   6 C        2.909     0.043    27.042     8.527
    43   6 C        2.916    -0.046    29.152     8.854
    44   6 C        2.915    -0.062    29.534     8.912
    45   6 C        2.916    -0.043    29.068     8.841
    46   6 C        2.913     0.045    26.987     8.519
    47   7 N        2.805    -0.035    21.915     6.953
    48   6 C        3.081     0.055    26.687     8.469
    49   6 C        2.909    -0.040    28.998     8.830
    50   6 C        2.923    -0.035    28.862     8.810
    51   6 C        2.920    -0.036    28.897     8.815
    52   6 C        2.911    -0.035    28.863     8.809
    53   6 C        3.069    -0.009    28.164     8.702
    54   6 C        3.068    -0.041    28.944     8.822
    55   6 C        2.852     0.147    24.803     8.163
    56   8 O        1.704    -0.277    18.595     5.822
    57   6 C        3.691     0.075    19.510     6.321
    58   6 C        3.800    -0.070    21.843     6.654
    59   6 C        3.802    -0.061    21.667     6.627
    60   6 C        3.802    -0.061    21.667     6.627
    61   6 C        3.802    -0.059    21.640     6.623
    62   6 C        3.740    -0.005    20.749     6.499
    63   7 N        2.799    -0.033    21.886     6.948
    64   6 C        3.084     0.044    26.912     8.504
    65   6 C        2.909    -0.051    29.272     8.872
    66   6 C        2.923    -0.035    28.863     8.810
    67   6 C        2.920    -0.039    28.960     8.825
    68   6 C        2.911    -0.031    28.782     8.797
    69   6 C        3.069    -0.008    28.152     8.700
    70   6 C        3.072    -0.040    28.917     8.817
    71   6 C        2.852     0.146    24.831     8.167
    72   8 O        1.705    -0.278    18.620     5.826
    73   6 C        3.694     0.083    19.365     6.296
    74   6 C        2.969     0.000    28.017     8.682
    75   6 C        2.920    -0.033    28.833     8.806
    76   6 C        2.922    -0.032    28.803     8.801
    77   6 C        2.970     0.012    27.753     8.641
    78   6 C        2.896    -0.033    28.832     8.804
    79   6 C        2.837    -0.086    30.152     8.999
    80   6 C        2.927    -0.037    28.909     8.818
    81   6 C        2.920    -0.032    28.799     8.800
    82   6 C        2.916    -0.077    29.910     8.968
    83   6 C        2.923    -0.035    28.874     8.812
    84   6 C        2.908    -0.060    29.487     8.904
    85   6 C        3.078     0.045    26.917     8.506
    86   6 C        2.917    -0.073    29.833     8.957
    87   6 C        2.923    -0.037    28.916     8.818
    88   6 C        2.908    -0.053    29.313     8.878
    89   6 C        3.082     0.050    26.792     8.485
    90   6 C        2.963    -0.045    29.115     8.850
    91   6 C        1.907     0.103    28.551     8.629
    92   7 N        0.911    -0.396    30.245     7.954
    93   6 C        2.919    -0.036    28.903     8.816
    94   6 C        2.926    -0.039    28.969     8.827
    95   1 H        0.926     0.027     2.628     2.535
    96   1 H        0.926     0.029     2.603     2.523
    97   1 H        0.925     0.028     2.613     2.528
    98   1 H        0.926     0.026     2.638     2.540
    99   1 H        0.926     0.030     2.583     2.513
   100   1 H        0.923     0.032     2.557     2.501
   101   1 H        0.924     0.034     2.534     2.489
   102   1 H        0.926     0.032     2.561     2.503
   103   1 H        0.926     0.038     2.471     2.458
   104   1 H        0.926     0.041     2.433     2.439
   105   1 H        0.926     0.035     2.510     2.478
   106   1 H        0.926     0.028     2.620     2.531
   107   1 H        0.926     0.032     2.563     2.503
   108   1 H        0.926     0.037     2.488     2.466
   109   1 H        0.924     0.058     2.228     2.334
   110   1 H        0.924     0.061     2.184     2.311
   111   1 H        0.924     0.049     2.337     2.391
   112   1 H        0.924     0.046     2.370     2.408
   113   1 H        0.924     0.039     2.465     2.455
   114   1 H        0.925     0.034     2.529     2.487
   115   1 H        0.924     0.041     2.438     2.442
   116   1 H        0.924     0.036     2.508     2.477
   117   1 H        0.924     0.050     2.315     2.379
   118   1 H        0.924     0.052     2.294     2.369
   119   1 H        0.924     0.049     2.334     2.389
   120   1 H        0.924     0.045     2.387     2.416
   121   1 H        0.926     0.040     2.443     2.444
   122   1 H        0.926     0.046     2.371     2.408
   123   1 H        0.926     0.045     2.379     2.412
   124   1 H        0.926     0.049     2.335     2.390
   125   1 H        0.926     0.039     2.458     2.452
   126   1 H        0.926     0.036     2.506     2.475
   127   1 H        0.926     0.024     2.669     2.555
   128   1 H        0.926     0.034     2.537     2.491
   129   1 H        0.926     0.035     2.516     2.480
   130   1 H        0.926     0.029     2.602     2.522
   131   1 H        0.926     0.021     2.713     2.576
   132   1 H        0.926     0.035     2.511     2.478
   133   1 H        0.926     0.039     2.469     2.457
   134   1 H        0.926     0.047     2.361     2.403
   135   1 H        0.924     0.036     2.505     2.475
   136   1 H        0.924     0.058     2.221     2.330
   137   1 H        0.925     0.050     2.326     2.385
   138   1 H        0.924     0.046     2.369     2.407
   139   1 H        0.924     0.046     2.376     2.411
   140   1 H        0.924     0.040     2.452     2.449
   141   1 H        0.924     0.040     2.447     2.446
   142   1 H        0.924     0.042     2.428     2.437
   143   1 H        0.924     0.040     2.447     2.446
   144   1 H        0.924     0.038     2.476     2.461
   145   1 H        0.924     0.060     2.199     2.319
   146   1 H        0.924     0.057     2.232     2.337
   147   1 H        0.926     0.037     2.490     2.467
   148   1 H        0.926     0.032     2.563     2.503
   149   1 H        0.926     0.027     2.624     2.533
   150   1 H        0.926     0.040     2.450     2.448
   151   1 H        0.923     0.035     2.521     2.483
   152   1 H        0.924     0.038     2.475     2.460
   153   1 H        0.926     0.031     2.571     2.507
   154   1 H        0.926     0.040     2.452     2.449
   155   1 H        0.925     0.034     2.535     2.490
   156   1 H        0.926     0.033     2.543     2.494
   157   1 H        0.926     0.033     2.545     2.495
   158   1 H        0.925     0.034     2.529     2.487
   159   1 H        0.926     0.035     2.513     2.479
   160   1 H        0.926     0.035     2.512     2.479
   161   1 H        0.926     0.040     2.453     2.449
   162   1 H        0.926     0.041     2.441     2.443
   163   1 H        0.926     0.046     2.372     2.408
   164   1 H        0.926     0.042     2.420     2.433
   165   1 H        0.926     0.037     2.485     2.465
   166   1 H        0.926     0.032     2.564     2.504
   167   1 H        0.925     0.032     2.562     2.503

molecular dipole:
                 x           y           z       tot (Debye)
 q only:        1.144       1.850       0.901
   full:        1.256       2.479       0.677       7.270

 projected vibrational frequencies (cm⁻¹)
eigval :       -0.00    -0.00    -0.00     0.00     0.00     0.00
eigval :        7.72    10.58    11.62    13.50    16.94    19.44
eigval :       21.62    23.92    24.67    27.09    29.06    30.35
eigval :       32.25    32.32    34.02    39.45    41.82    45.46
eigval :       48.41    50.88    52.27    55.64    58.88    62.98
eigval :       65.52    68.63    76.81    79.43    82.03    89.23
eigval :       91.01    93.55    94.56    97.00   103.66   104.86
eigval :      110.00   116.23   117.85   122.26   123.33   126.19
eigval :      127.39   132.06   136.25   140.50   143.74   149.58
eigval :      153.07   160.47   165.55   170.74   188.80   196.44
eigval :      202.43   205.11   206.79   208.79   213.72   216.34
eigval :      221.90   222.82   226.47   232.50   237.41   238.80
eigval :      245.42   253.31   264.45   272.89   282.40   282.96
eigval :      292.95   293.71   294.28   295.78   299.64   300.72
eigval :      301.63   322.57   326.67   333.04   343.54   345.18
eigval :      349.72   351.96   362.02   368.17   374.55   374.79
eigval :      379.56   395.64   398.15   400.58   404.61   407.63
eigval :      409.40   412.05   412.51   413.90   415.35   421.91
eigval :      426.28   437.47   438.38   440.48   464.16   466.20
eigval :      474.40   476.60   478.90   483.22   495.32   504.62
eigval :      511.22   511.63   515.21   519.68   521.54   525.45
eigval :      529.35   531.01   531.38   532.53   533.86   537.43
eigval :      538.15   539.68   559.44   562.02   566.09   572.13
eigval :      572.41   576.00   581.14   584.41   587.12   591.66
eigval :      598.33   604.04   606.16   609.14   610.15   611.64
eigval :      612.07   621.55   625.88   636.61   648.41   664.39
eigval :      666.16   668.46   670.26   671.06   692.72   696.55
eigval :      700.70   703.65   706.37   707.07   708.91   709.01
eigval :      715.27   726.37   748.42   756.39   757.67   760.25
eigval :      761.85   762.46   763.40   764.97   765.95   766.66
eigval :      766.81   769.11   772.38   774.06   776.37   777.53
eigval :      778.68   782.45   798.79   804.76   814.10   817.42
eigval :      821.09   824.80   838.24   844.06   846.08   852.71
eigval :      856.06   858.53   860.28   862.59   863.33   865.42
eigval :      867.64   868.41   869.75   871.23   874.31   875.16
eigval :      877.61   881.55   892.77   894.73   895.55   898.15
eigval :      899.13   901.38   903.36   905.27   906.63   906.84
eigval :      906.89   907.43   909.98   911.81   915.37   917.11
eigval :      921.06   923.54   923.93   924.61   925.08   930.85
eigval :      948.51   954.38   958.90   975.49   980.89   982.13
eigval :      993.72   997.21   999.11  1000.19  1001.40  1003.90
eigval :     1006.03  1006.86  1007.90  1009.96  1017.44  1020.81
eigval :     1030.65  1035.27  1038.05  1039.62  1045.48  1059.87
eigval :     1061.08  1066.78  1069.17  1070.15  1076.62  1088.55
eigval :     1090.74  1092.17  1097.59  1100.52  1101.92  1105.53
eigval :     1106.64  1114.36  1120.56  1122.56  1123.76  1125.01
eigval :     1126.52  1128.15  1131.52  1135.37  1136.79  1143.67
eigval :     1146.47  1149.70  1155.50  1160.21  1163.69  1165.84
eigval :     1169.49  1179.60  1181.40  1181.86  1182.70  1183.63
eigval :     1184.64  1185.36  1187.98  1189.01  1191.01  1194.86
eigval :     1195.90  1198.29  1202.89  1209.73  1209.74  1213.61
eigval :     1216.19  1221.99  1223.16  1223.96  1229.30  1237.18
eigval :     1241.07  1242.38  1244.49  1248.39  1248.60  1253.14
eigval :     1256.76  1256.81  1258.56  1261.21  1272.93  1274.73
eigval :     1276.54  1278.42  1279.50  1280.97  1283.56  1286.08
eigval :     1287.28  1288.35  1291.58  1294.03  1295.14  1305.38
eigval :     1309.40  1310.56  1314.16  1316.87  1319.67  1320.97
eigval :     1323.70  1324.19  1325.07  1327.50  1328.82  1333.46
eigval :     1334.22  1339.00  1340.54  1340.94  1342.81  1346.16
eigval :     1347.90  1350.53  1357.66  1357.96  1359.17  1361.39
eigval :     1363.41  1364.69  1365.66  1368.59  1372.89  1373.61
eigval :     1375.67  1397.10  1400.95  1401.65  1406.77  1407.42
eigval :     1408.81  1409.89  1417.14  1419.99  1420.70  1428.34
eigval :     1428.56  1454.54  1455.72  1457.85  1460.17  1460.60
eigval :     1461.19  1462.99  1464.13  1465.27  1465.71  1470.76
eigval :     1472.03  1474.16  1475.53  1476.04  1478.19  1482.09
eigval :     1483.54  1483.99  1486.79  1487.21  1488.62  1488.90
eigval :     1491.49  1494.27  1498.09  1519.08  1530.50  1535.70
eigval :     1537.49  1543.87  1550.04  1556.24  1556.74  1559.16
eigval :     1561.75  1566.66  1568.36  1570.34  1573.45  1578.50
eigval :     1579.38  1580.80  1588.41  1594.04  1598.41  1631.89
eigval :     1649.90  2207.47  2867.59  2887.30  2906.00  2907.50
eigval :     2911.33  2911.67  2948.34  2956.39  2963.57  2965.57
eigval :     2970.09  2970.40  2971.96  2976.71  2977.58  2982.89
eigval :     2983.15  2985.05  2986.56  2987.85  2989.29  2990.92
eigval :     2993.11  2994.42  2997.03  2997.82  3005.33  3010.12
eigval :     3032.77  3037.99  3061.23  3064.73  3070.03  3070.92
eigval :     3072.85  3073.85  3075.97  3076.24  3078.21  3079.44
eigval :     3080.88  3081.86  3082.43  3082.82  3083.54  3085.31
eigval :     3086.00  3086.44  3087.70  3091.49  3091.66  3092.69
eigval :     3093.40  3097.60  3098.04  3098.59  3099.13  3100.98
eigval :     3101.17  3101.73  3102.36  3104.52  3104.90  3105.05
eigval :     3105.79  3108.79  3109.22  3110.88  3111.09  3117.09
eigval :     3122.19  3131.04  3144.56

   temp. (K)  partition function   enthalpy   heat capacity  entropy
                                   cal/mol     cal/K/mol   cal/K/mol   J/K/mol
 298.15  VIB  0.720E+41            50078.371    302.750    317.175
         ROT  0.400E+09              888.752      2.981     42.342
         INT  0.288E+50            50967.123    305.731    359.518
         TR   0.417E+29             1481.254      4.968     47.174
         TOT                       52448.3773   310.6995   406.6911  1701.5957

       T/K    H(0)-H(T)+PV         H(T)/Eh          T*S/Eh         G(T)/Eh
   ------------------------------------------------------------------------
    298.15    0.835818E-01    0.140999E+01    0.193232E+00    0.121676E+01
   ------------------------------------------------------------------------

         :::::::::::::::::::::::::::::::::::::::::::::::::::::
         ::                  THERMODYNAMIC                  ::
         :::::::::::::::::::::::::::::::::::::::::::::::::::::
         :: total free energy        -249.023454390878 Eh   ::
         ::.................................................::
         :: total energy             -250.240212824051 Eh   ::
         :: zero point energy           1.326408700982 Eh   ::
         :: G(RRHO) w/o ZPVE           -0.109650267809 Eh   ::
         :: G(RRHO) contrib.            1.216758433173 Eh   ::
         :::::::::::::::::::::::::::::::::::::::::::::::::::::

           -------------------------------------------------
          | TOTAL ENERGY             -250.240212824051 Eh   |
          | TOTAL ENTHALPY           -248.830222313555 Eh   |
          | TOTAL FREE ENERGY        -249.023454390878 Eh   |
          | GRADIENT NORM               0.000150363035 Eh/α |
          | HOMO-LUMO GAP               0.087330166845 eV   |
           -------------------------------------------------

 * finished run on 2025/08/28 at 11:07:49.454
