   * xtb version 6.7.1 (edcfbbe) compiled by 'albert@albert-system' on 2024-07-22

   ID    Z sym.   atoms
    1    6 C      1-7, 9-20, 22-27, 29-40, 42-46, 48-55, 57-62, 64-71, 73-91,
                  93, 94
    2    8 O      8, 28, 56, 72
    3    7 N      21, 41, 47, 63, 92
    4    1 H      95-167

          program call               : xtb data2507/toluene/DVCz-2CzCN/DVCz-2CzCN_toluene_T1_crest.xyz --gfn 2 --uhf 2 --gbsa toluene --ohess vtight --parallel 40 --molden --ceasefiles --namespace data2507/toluene/DVCz-2CzCN/DVCz-2CzCN_toluene_T1_finalOpt
      * Solvation model:               GBSA
        Solvent                        toluene
        Solvent mass                       9.2140E+01 g/mol
          :  Hamiltonian                  GFN2-xTB          :
 * total energy  :  -250.2426634 Eh     change       -0.3910714E-08 Eh
 * total energy  :  -250.2431114 Eh     change       -0.4480476E-03 Eh
 * total energy  :  -250.2434493 Eh     change       -0.3378785E-03 Eh
 * total energy  :  -250.2435947 Eh     change       -0.1454069E-03 Eh
 * total energy  :  -250.2437882 Eh     change       -0.1934624E-03 Eh
 * total energy  :  -250.2439353 Eh     change       -0.1471489E-03 Eh
 * total energy  :  -250.2440161 Eh     change       -0.8075444E-04 Eh
 * total energy  :  -250.2440608 Eh     change       -0.4475060E-04 Eh
 * total energy  :  -250.2440996 Eh     change       -0.3879717E-04 Eh
 * total energy  :  -250.2441371 Eh     change       -0.3748159E-04 Eh
 * total energy  :  -250.2445200 Eh     change       -0.1126427E-05 Eh
 * total energy  :  -250.2445210 Eh     change       -0.1000027E-05 Eh
 * total energy  :  -250.2445217 Eh     change       -0.6508983E-06 Eh
 * total energy  :  -250.2445221 Eh     change       -0.4686322E-06 Eh
 * total energy  :  -250.2445226 Eh     change       -0.5129740E-06 Eh
 * total energy  :  -250.2445232 Eh     change       -0.6066728E-06 Eh
 * total energy  :  -250.2445237 Eh     change       -0.5027782E-06 Eh
 * total energy  :  -250.2445242 Eh     change       -0.4633118E-06 Eh
 * total energy  :  -250.2445242 Eh     change       -0.9692911E-08 Eh
   *** GEOMETRY OPTIMIZATION CONVERGED AFTER 68 ITERATIONS ***

 final structure:
================
167
 xtb: 6.7.1 (edcfbbe)
C           -1.76862335790927        6.71881323046254       -0.45739151375808
C           -0.68736000361512        6.24204927090707        0.16101554750259
C            0.35814382130326        5.41640343073251       -0.41566606121323
C            0.35400013573287        4.99186261004234       -1.75097263571577
C            1.37446354062799        4.21403604986660       -2.25185679954255
C            2.44615324918491        3.83284853002936       -1.44605116555171
C            3.56653967184460        3.02807785060912       -2.05151719742096
O            4.39238186396179        2.47526915838064       -1.04738422333666
C            5.51829190649931        1.81724737490254       -1.43335939183289
C            5.90722066380480        1.61276856137830       -2.75321740186955
C            7.08408688240115        0.93615800561896       -3.05935770640759
C            7.90446625865846        0.41451937913346       -2.08111630804629
C            7.51444457969780        0.58685339575940       -0.75581868935131
C            6.34313996389452        1.30559767756797       -0.42186149285116
C            6.27151698051570        1.31993860014086        1.01210803018823
C            5.38652163403010        1.87638936836762        1.92516159230977
C            5.62092626265542        1.69073007603834        3.27332215813697
C            6.72141696091338        0.96028848297600        3.71770165558976
C            7.61752464964865        0.39817202934845        2.83039450387475
C            7.39168415992994        0.58394425579071        1.47142764079376
N            8.13088528774708        0.15798947550022        0.39522380593582
C            9.23961282221582       -0.75785061290033        0.47598872700507
C            8.75820279181142       -2.21287987682692        0.59018374016229
C            8.11824099687373       -2.69704209860229       -0.71003678125822
C            7.33214172916835       -3.99521940508746       -0.53920213068265
C            6.84280812399441       -4.56906988837220       -1.87181120879461
C            5.98545289310012       -3.59557062801408       -2.67969514030364
O            4.84730633946284       -3.24164278690156       -1.90975601643571
C            3.98479547241416       -2.31709677232316       -2.39068720548174
C            4.15463728285648       -1.59239022124991       -3.56991406176966
C            3.20779621660723       -0.66230216289992       -3.98676159177136
C            2.06224812270919       -0.40427428989203       -3.25689065296060
C            1.88703709824779       -1.11452642990977       -2.07604853503577
C            2.82681913261175       -2.07446799222288       -1.64022510380376
C            2.29914415827526       -2.64642969522017       -0.43481625001553
C            2.74601911405569       -3.62361282708110        0.44199396319047
C            1.97138418313238       -3.92138496036325        1.54677380268408
C            0.77763912900815       -3.24482921560146        1.79723218696527
C            0.31113363871307       -2.27169844571125        0.93816120496007
C            1.06392947277340       -1.99500744704924       -0.19515637307055
N            0.83040853529092       -1.07911022966670       -1.19213791123762
C           -0.32832114079964       -0.29922561375791       -1.32163698121405
C           -0.24452805669753        1.06432496801680       -1.45903479674386
C           -1.40053803438398        1.84916649366557       -1.52176371444668
C           -2.64950928955814        1.23899979661226       -1.42959526383482
C           -2.77599954858586       -0.13181644054887       -1.34958855641536
N           -4.04808397628598       -0.71061425456008       -1.33532566737152
C           -4.50284368050900       -1.71330184051154       -0.50702854740350
C           -3.85586945167848       -2.38155629740742        0.52341738736911
C           -4.55125014897049       -3.36577910446092        1.19701783022992
C           -5.87514147579209       -3.66866975689672        0.87854532537597
C           -6.54202080512012       -2.98501935836554       -0.11927613821783
C           -5.85973224130990       -1.99624191876862       -0.81591877003002
C           -6.23084328583484       -1.10468427739173       -1.87214132170409
C           -7.43393093381596       -0.87516178909572       -2.55225716908808
O           -8.50688944096334       -1.63660350026120       -2.20267203215484
C           -9.80582480117780       -1.07807943624223       -2.33267434514770
C          -10.00764865833431        0.06014688545297       -1.32899700241509
C           -9.99155127262014       -0.46764022010162        0.11106741705431
C           -9.35614304611324        0.49643293842797        1.11498812582374
C           -7.82924396132282        0.47003438078225        1.04613062197766
C           -7.19468375147281        1.28645801898956        2.17838712558834
N           -5.77778162862061        1.05632367831008        2.28104790522548
C           -5.20854933701590       -0.02793247818572        2.90031575581274
C           -5.81174680462736       -1.09028206894511        3.56367352213431
C           -4.99199658522983       -2.02706068014973        4.15999505828935
C           -3.60209541070641       -1.92645350106296        4.09587151406251
C           -2.99311808951233       -0.88282554751436        3.42729194864542
C           -3.79745582424482        0.07709048706500        2.82791524794857
C           -3.52412217997753        1.29616917251436        2.12563859607146
C           -2.33360729855920        1.95534016320833        1.79535448571760
O           -1.18060093571497        1.31926673123169        2.11086388301771
C            0.06109673026391        1.96801718705637        1.88092380496848
C            1.15491678044357        0.98597860946976        2.20120031992781
C            2.16191262347348        0.70634658751423        1.28753520100068
C            3.14486556320277       -0.21697578597710        1.57866598880853
C            3.15614027732887       -0.89085068274197        2.80013241797210
C            4.17290620575467       -1.86615135906727        3.15970858897002
C            5.21956278223649       -2.22659261025331        2.42549922378023
C            2.14114019533603       -0.60007465162593        3.71499088725879
C            1.15802621793608        0.32147791260734        3.42266591718810
C           -2.43177751721372        3.20335363982130        1.18601738680756
C           -3.67234781930509        3.74724059378409        0.87235324818507
C           -4.85824121402753        3.09783760887888        1.16057905245305
C           -4.77580336205448        1.87023975066124        1.80927109885152
C           -7.43618913839288        0.09450979755371       -3.55300737830689
C           -6.27611251676607        0.78450367653065       -3.88924415992325
C           -5.08309273327918        0.58033852880973       -3.21799909428729
C           -5.07956921878322       -0.34306580939372       -2.18162387421012
C           -1.60226200800264       -0.96290533554764       -1.33345893741555
C           -1.66526055225542       -2.33078441209744       -1.49091267871330
N           -1.69549260747371       -3.48350527964065       -1.65285084318024
C            2.46418348182783        4.25118074642783       -0.12161079749823
C            1.43671317514932        5.02051956219538        0.38388779706968
H           -2.48302780063976        7.33135035872753        0.06579025817964
H           -1.98201714130011        6.52539428730017       -1.49473136712376
H           -0.54317109734789        6.48305978796417        1.20831352475941
H           -0.45590189388848        5.27936002837371       -2.40392652804416
H            1.34847042985133        3.89735829893711       -3.28566469007053
H            4.16117788157706        3.69159457883739       -2.70051308609203
H            3.15064357216148        2.22310858333747       -2.67788621619151
H            5.30147730291189        1.97509439294107       -3.56730531005344
H            7.35310578474091        0.81558443382502       -4.09831437117736
H            8.80946493273325       -0.10844995532203       -2.34500844785480
H            4.53010493448294        2.43207594208454        1.58042304808521
H            4.93923217751557        2.11419466961425        3.99612095092050
H            6.87446468882268        0.83019440629137        4.77895534104084
H            8.46391611321726       -0.16606947543732        3.19007425152175
H            9.83825839869919       -0.49447760305643        1.35180628237544
H            9.86179231259315       -0.63600663173003       -0.41288442456720
H            9.60669780176729       -2.84801983404585        0.84934522845027
H            8.02919650931413       -2.27243411806527        1.39993642498404
H            8.89552227591941       -2.83802955040757       -1.46523323638232
H            7.43431766421692       -1.92651656251878       -1.06499586655358
H            7.95964401868382       -4.74502326676124       -0.05238387255372
H            6.46966748561126       -3.80871169816249        0.10217707600272
H            7.69688228115823       -4.84659018608690       -2.49247227795653
H            6.25633723576875       -5.46846203695631       -1.67610218834478
H            5.66158031137219       -4.07471857644467       -3.61420423655197
H            6.56496083863153       -2.70022258496918       -2.93120732938751
H            5.02222790582171       -1.75121132165154       -4.18887702940033
H            3.37464313266615       -0.13655261825745       -4.91529485041089
H            1.32009444740713        0.29995663777229       -3.60037298318877
H            3.67876539435952       -4.13156172497326        0.25683210754650
H            2.29879807922598       -4.68305476021426        2.23857100405301
H            0.20774969590389       -3.48752500871039        2.68161286113426
H           -0.60006975063565       -1.73094028463795        1.14420444091304
H            0.72504979273194        1.54045139845612       -1.47790685987334
H           -1.32032050709791        2.92050710564819       -1.59224361941976
H           -3.53726557541483        1.85151780664389       -1.38857640453929
H           -2.83836943206525       -2.14983467531531        0.79147494672960
H           -4.05657742113155       -3.91180197892254        1.98488568051495
H           -6.38305466327999       -4.44895589423988        1.42575180532420
H           -7.56592021227604       -3.21264975043975       -0.37168525869252
H           -9.99238007218457       -0.73916175502420       -3.35727708568506
H          -10.48285781224571       -1.90794302981285       -2.11545024692942
H           -9.20070205700218        0.78106340197952       -1.47326047732429
H          -10.95061752407041        0.56349992642678       -1.54449433572881
H           -9.42681155578793       -1.40161729362782        0.13573791234427
H          -11.01420973075900       -0.69130619541258        0.41989929068518
H           -9.66213374405109        0.20031557547253        2.12095248271684
H           -9.72292898045341        1.51018795182421        0.94220521306325
H           -7.48290253781128       -0.56285814775067        1.12794453150032
H           -7.47954988646534        0.85231788077927        0.08548823665279
H           -7.36609885492584        2.35318115116348        2.02164671987827
H           -7.65503757488968        1.00486108059944        3.13094473382728
H           -6.88461332113417       -1.18554081498678        3.62023390358910
H           -5.43570828320529       -2.85766653582107        4.68884792548005
H           -2.99587692564847       -2.67961703332071        4.57792105741599
H           -1.91877256666550       -0.79895532070848        3.36950009682320
H            0.13466313578044        2.85284564098753        2.53200451024512
H            0.13806167496103        2.29337344963199        0.83766739594221
H            2.18498736371557        1.22597455915760        0.34111948883969
H            3.90802061228348       -0.41594808595351        0.84389142329919
H            4.03453235759267       -2.32175241806175        4.13299205488232
H            5.41162895219961       -1.80938870388780        1.45282158143676
H            5.92072371397588       -2.96230230758739        2.78136669478958
H            2.12840449577108       -1.10750258139761        4.66953636557107
H            0.37692448579637        0.53100083575192        4.13934213995672
H           -1.54588759838685        3.76482677265374        0.93846059341880
H           -3.69673923219418        4.71124151086441        0.38648935260586
H           -5.80526298608279        3.54204720300943        0.89841073568567
H           -8.33804558787837        0.30772843321292       -4.10435598048667
H           -6.31238635446285        1.49893105652561       -4.69761992393190
H           -4.19026921016349        1.11441820144486       -3.50059860516021
H            3.29217849134055        3.97077119902708        0.51043253948197
H            1.47107823187127        5.33432445654988        1.41822980933860

          :  Hamiltonian                  GFN2-xTB          :
         :: gradient norm              0.000067782280 Eh/a0 ::
         :: HOMO-LUMO gap              0.097445124477 eV    ::
         :: SCC energy              -254.520836400965 Eh    ::
         :: -> dispersion             -0.278378482761 Eh    ::
         :: -> Gsolv                  -0.084889975985 Eh    ::
         :: repulsion energy           4.276312179401 Eh    ::

    * Orbital Energies and Occupations

         #    Occupation            Energy/Eh            Energy/eV
      -------------------------------------------------------------
         1        2.0000           -0.7210757             -19.6215
       ...           ...                  ...                  ...
       220        2.0000           -0.3917014             -10.6587
       221        2.0000           -0.3878377             -10.5536
       222        2.0000           -0.3806646             -10.3584
       223        2.0000           -0.3793763             -10.3234
       224        2.0000           -0.3754989             -10.2178
       225        2.0000           -0.3751709             -10.2089
       226        2.0000           -0.3749462             -10.2028
       227        2.0000           -0.3739460             -10.1756
       228        1.9170           -0.3637314              -9.8976
       229        1.8564           -0.3631454              -9.8817
       230        1.6877           -0.3621991              -9.8559
       231        1.5389           -0.3615970              -9.8396
       232        0.8518           -0.2553927              -6.9496 (HOMO)
       233        0.1169           -0.2518106              -6.8521 (LUMO)
       234        0.0304           -0.2504407              -6.8148
       235        0.0008           -0.2469428              -6.7197
       236        0.0001           -0.2446957              -6.6585
       237        0.0000           -0.2440302              -6.6404
       238        0.0000           -0.2438717              -6.6361
       239                         -0.2270204              -6.1775
       240                         -0.2243426              -6.1047
       241                         -0.2235716              -6.0837
       242                         -0.2229107              -6.0657
       243                         -0.2224405              -6.0529
       ...                                ...                  ...
       449                          1.1675791              31.7714
      -------------------------------------------------------------
                  HL-Gap            0.0035820 Eh            0.0975 eV

     #   Z          covCN         q      C6AA      α(0)
     1   6 C        2.837    -0.093    30.319     9.024
     2   6 C        2.895    -0.036    28.886     8.812
     3   6 C        2.968     0.005    27.901     8.664
     4   6 C        2.922    -0.035    28.872     8.812
     5   6 C        2.921    -0.042    29.035     8.836
     6   6 C        2.968    -0.007    28.190     8.709
     7   6 C        3.700     0.090    19.239     6.273
     8   8 O        1.705    -0.281    18.667     5.833
     9   6 C        2.858     0.140    24.945     8.186
    10   6 C        2.917    -0.080    29.991     8.980
    11   6 C        2.923    -0.037    28.910     8.817
    12   6 C        2.908    -0.061    29.523     8.909
    13   6 C        3.082     0.046    26.880     8.499
    14   6 C        3.068    -0.040    28.930     8.820
    15   6 C        3.069    -0.009    28.163     8.702
    16   6 C        2.912    -0.030    28.757     8.793
    17   6 C        2.920    -0.038    28.940     8.822
    18   6 C        2.923    -0.033    28.834     8.806
    19   6 C        2.910    -0.050    29.231     8.866
    20   6 C        3.084     0.046    26.875     8.498
    21   7 N        2.797    -0.030    21.823     6.938
    22   6 C        3.740    -0.006    20.767     6.502
    23   6 C        3.802    -0.066    21.756     6.641
    24   6 C        3.803    -0.061    21.673     6.628
    25   6 C        3.801    -0.059    21.629     6.621
    26   6 C        3.800    -0.064    21.727     6.636
    27   6 C        3.691     0.081    19.413     6.305
    28   8 O        1.705    -0.269    18.458     5.801
    29   6 C        2.854     0.143    24.884     8.176
    30   6 C        2.917    -0.078    29.939     8.973
    31   6 C        2.923    -0.037    28.914     8.818
    32   6 C        2.908    -0.057    29.409     8.892
    33   6 C        3.082     0.051    26.761     8.481
    34   6 C        3.069    -0.039    28.886     8.813
    35   6 C        3.069    -0.007    28.112     8.694
    36   6 C        2.912    -0.033    28.813     8.802
    37   6 C        2.921    -0.035    28.862     8.810
    38   6 C        2.924    -0.033    28.820     8.804
    39   6 C        2.910    -0.037    28.930     8.820
    40   6 C        3.085     0.061    26.548     8.446
    41   7 N        2.805    -0.036    21.935     6.956
    42   6 C        2.914     0.049    26.906     8.506
    43   6 C        2.915    -0.047    29.176     8.857
    44   6 C        2.914    -0.066    29.649     8.929
    45   6 C        2.916    -0.047    29.176     8.857
    46   6 C        2.909     0.043    27.026     8.524
    47   7 N        2.801    -0.031    21.838     6.941
    48   6 C        3.073     0.054    26.713     8.474
    49   6 C        2.910    -0.035    28.867     8.810
    50   6 C        2.923    -0.035    28.862     8.810
    51   6 C        2.920    -0.035    28.867     8.811
    52   6 C        2.911    -0.036    28.894     8.814
    53   6 C        3.069    -0.009    28.176     8.704
    54   6 C        3.065    -0.040    28.915     8.818
    55   6 C        2.854     0.144    24.854     8.171
    56   8 O        1.704    -0.283    18.706     5.839
    57   6 C        3.693     0.075    19.496     6.318
    58   6 C        3.799    -0.068    21.796     6.647
    59   6 C        3.802    -0.062    21.697     6.632
    60   6 C        3.801    -0.060    21.654     6.625
    61   6 C        3.802    -0.060    21.645     6.624
    62   6 C        3.740    -0.006    20.762     6.501
    63   7 N        2.800    -0.032    21.863     6.945
    64   6 C        3.085     0.045    26.900     8.502
    65   6 C        2.909    -0.050    29.249     8.868
    66   6 C        2.923    -0.033    28.824     8.804
    67   6 C        2.920    -0.037    28.909     8.817
    68   6 C        2.911    -0.032    28.808     8.801
    69   6 C        3.071    -0.009    28.167     8.702
    70   6 C        3.074    -0.041    28.933     8.819
    71   6 C        2.854     0.145    24.832     8.168
    72   8 O        1.705    -0.278    18.609     5.824
    73   6 C        3.696     0.087    19.305     6.285
    74   6 C        2.969    -0.000    28.028     8.684
    75   6 C        2.922    -0.034    28.836     8.806
    76   6 C        2.924    -0.028    28.689     8.784
    77   6 C        2.971     0.012    27.744     8.640
    78   6 C        2.896    -0.032    28.791     8.798
    79   6 C        2.837    -0.085    30.116     8.993
    80   6 C        2.928    -0.036    28.894     8.815
    81   6 C        2.921    -0.032    28.795     8.800
    82   6 C        2.917    -0.074    29.838     8.957
    83   6 C        2.923    -0.034    28.837     8.806
    84   6 C        2.908    -0.059    29.457     8.900
    85   6 C        3.080     0.044    26.919     8.506
    86   6 C        2.917    -0.071    29.781     8.949
    87   6 C        2.922    -0.040    28.984     8.829
    88   6 C        2.908    -0.053    29.320     8.879
    89   6 C        3.077     0.046    26.891     8.502
    90   6 C        2.964    -0.043    29.067     8.843
    91   6 C        1.907     0.104    28.521     8.625
    92   7 N        0.911    -0.399    30.331     7.965
    93   6 C        2.919    -0.034    28.846     8.807
    94   6 C        2.927    -0.040    29.005     8.832
    95   1 H        0.926     0.030     2.581     2.512
    96   1 H        0.926     0.031     2.566     2.505
    97   1 H        0.925     0.027     2.633     2.538
    98   1 H        0.926     0.035     2.521     2.483
    99   1 H        0.925     0.025     2.659     2.550
   100   1 H        0.923     0.036     2.508     2.477
   101   1 H        0.923     0.031     2.575     2.509
   102   1 H        0.926     0.032     2.564     2.504
   103   1 H        0.926     0.038     2.474     2.460
   104   1 H        0.926     0.043     2.414     2.430
   105   1 H        0.926     0.032     2.554     2.499
   106   1 H        0.926     0.026     2.642     2.542
   107   1 H        0.926     0.034     2.536     2.490
   108   1 H        0.926     0.039     2.465     2.455
   109   1 H        0.924     0.059     2.217     2.328
   110   1 H        0.924     0.060     2.197     2.318
   111   1 H        0.924     0.049     2.338     2.391
   112   1 H        0.924     0.050     2.325     2.384
   113   1 H        0.924     0.036     2.499     2.472
   114   1 H        0.925     0.038     2.482     2.464
   115   1 H        0.924     0.041     2.436     2.441
   116   1 H        0.924     0.045     2.387     2.416
   117   1 H        0.924     0.049     2.330     2.387
   118   1 H        0.924     0.050     2.318     2.381
   119   1 H        0.923     0.033     2.546     2.495
   120   1 H        0.924     0.040     2.443     2.444
   121   1 H        0.926     0.043     2.413     2.429
   122   1 H        0.926     0.041     2.441     2.443
   123   1 H        0.926     0.033     2.539     2.492
   124   1 H        0.926     0.049     2.327     2.386
   125   1 H        0.926     0.041     2.440     2.443
   126   1 H        0.926     0.036     2.499     2.472
   127   1 H        0.926     0.023     2.694     2.567
   128   1 H        0.926     0.024     2.676     2.558
   129   1 H        0.926     0.026     2.651     2.546
   130   1 H        0.926     0.031     2.578     2.511
   131   1 H        0.926     0.023     2.687     2.564
   132   1 H        0.926     0.034     2.524     2.484
   133   1 H        0.926     0.039     2.459     2.452
   134   1 H        0.926     0.047     2.354     2.399
   135   1 H        0.924     0.035     2.517     2.481
   136   1 H        0.924     0.057     2.230     2.335
   137   1 H        0.924     0.046     2.377     2.411
   138   1 H        0.924     0.045     2.386     2.416
   139   1 H        0.924     0.048     2.341     2.393
   140   1 H        0.924     0.040     2.443     2.444
   141   1 H        0.924     0.040     2.446     2.446
   142   1 H        0.924     0.041     2.437     2.442
   143   1 H        0.924     0.044     2.396     2.421
   144   1 H        0.924     0.035     2.513     2.479
   145   1 H        0.924     0.059     2.208     2.324
   146   1 H        0.924     0.059     2.209     2.324
   147   1 H        0.926     0.041     2.441     2.443
   148   1 H        0.926     0.037     2.486     2.466
   149   1 H        0.926     0.032     2.564     2.504
   150   1 H        0.926     0.036     2.508     2.477
   151   1 H        0.923     0.037     2.495     2.470
   152   1 H        0.924     0.034     2.525     2.485
   153   1 H        0.926     0.027     2.627     2.535
   154   1 H        0.926     0.033     2.540     2.492
   155   1 H        0.925     0.037     2.486     2.466
   156   1 H        0.926     0.037     2.488     2.467
   157   1 H        0.926     0.042     2.428     2.437
   158   1 H        0.926     0.039     2.466     2.456
   159   1 H        0.926     0.039     2.465     2.455
   160   1 H        0.926     0.037     2.484     2.465
   161   1 H        0.926     0.043     2.409     2.427
   162   1 H        0.926     0.041     2.433     2.439
   163   1 H        0.926     0.044     2.396     2.421
   164   1 H        0.926     0.042     2.417     2.431
   165   1 H        0.926     0.039     2.460     2.453
   166   1 H        0.926     0.036     2.498     2.472
   167   1 H        0.925     0.028     2.619     2.531

molecular dipole:
                 x           y           z       tot (Debye)
 q only:        0.991       0.841       1.160
   full:        1.085       1.664       0.568       5.252

 projected vibrational frequencies (cm⁻¹)
eigval :       -0.00    -0.00    -0.00     0.00     0.00     0.00
eigval :        9.78    10.45    12.25    13.13    15.83    17.72
eigval :       18.95    23.99    25.17    29.06    30.73    33.92
eigval :       38.03    39.62    42.75    43.60    47.22    49.62
eigval :       50.05    57.72    61.46    62.88    65.24    67.18
eigval :       71.97    73.68    79.04    83.76    87.91    88.80
eigval :       91.48    92.30    95.16    97.58   100.62   110.03
eigval :      111.25   118.91   120.48   124.23   126.00   128.22
eigval :      130.94   136.79   141.95   144.09   146.84   148.00
eigval :      152.91   157.21   162.87   171.02   180.54   190.73
eigval :      196.78   200.31   209.79   213.08   216.06   217.37
eigval :      219.70   222.07   224.93   228.48   236.39   237.63
eigval :      246.43   260.57   263.50   270.05   272.99   286.11
eigval :      287.81   292.50   293.48   295.26   296.54   299.77
eigval :      300.18   304.13   306.92   323.85   341.81   344.87
eigval :      350.74   359.42   365.47   372.05   378.70   380.46
eigval :      385.64   396.79   398.47   401.07   402.14   407.98
eigval :      409.32   412.21   412.91   418.97   421.88   422.95
eigval :      429.19   433.13   435.61   438.62   448.57   458.20
eigval :      467.00   476.53   482.77   493.55   496.87   502.44
eigval :      512.05   513.59   514.13   520.13   521.58   524.09
eigval :      530.34   530.89   531.78   532.43   533.89   535.67
eigval :      536.03   541.65   556.93   566.82   572.25   572.63
eigval :      574.49   575.99   579.82   587.97   589.16   591.38
eigval :      599.39   603.10   604.18   607.42   608.10   610.30
eigval :      610.98   611.76   620.30   637.06   647.76   663.62
eigval :      666.33   667.64   668.95   670.73   688.16   697.90
eigval :      698.92   700.98   704.53   707.45   708.21   708.65
eigval :      712.81   734.90   745.52   748.12   758.01   759.34
eigval :      761.62   762.77   763.31   765.11   765.72   767.80
eigval :      768.28   768.69   769.61   775.28   776.47   777.01
eigval :      778.07   783.03   801.70   802.38   810.54   812.22
eigval :      821.09   823.70   845.52   847.68   848.47   850.05
eigval :      854.68   857.35   859.09   861.20   861.61   863.67
eigval :      864.18   865.04   865.74   866.58   871.11   874.69
eigval :      879.60   894.56   896.15   896.88   898.36   899.44
eigval :      900.09   901.22   902.36   903.88   905.27   908.98
eigval :      910.01   911.03   911.91   914.29   914.79   915.49
eigval :      919.33   921.28   921.81   922.43   925.82   927.24
eigval :      952.24   956.82   961.21   977.97   984.83   986.08
eigval :      996.21   996.44   998.42  1002.08  1004.50  1006.10
eigval :     1006.67  1007.43  1010.73  1014.42  1022.78  1024.75
eigval :     1032.80  1036.12  1041.63  1046.44  1060.14  1062.26
eigval :     1063.96  1067.24  1069.04  1069.81  1075.59  1085.53
eigval :     1088.53  1091.83  1095.42  1102.20  1102.35  1106.66
eigval :     1109.24  1118.03  1121.62  1123.29  1125.55  1126.97
eigval :     1128.68  1130.92  1133.29  1135.52  1137.97  1143.39
eigval :     1146.52  1153.87  1155.87  1159.67  1163.23  1166.85
eigval :     1169.88  1177.85  1180.23  1180.83  1181.45  1184.26
eigval :     1185.02  1186.79  1190.18  1190.77  1195.84  1197.71
eigval :     1198.51  1202.64  1204.47  1208.11  1211.11  1212.69
eigval :     1218.59  1221.61  1221.92  1224.19  1228.74  1237.22
eigval :     1241.77  1241.84  1244.90  1246.92  1250.41  1252.68
eigval :     1254.57  1256.49  1257.38  1257.56  1266.12  1273.94
eigval :     1274.42  1274.76  1280.38  1281.48  1283.49  1285.82
eigval :     1287.40  1287.81  1290.73  1297.95  1301.45  1304.00
eigval :     1305.41  1305.69  1314.77  1319.27  1323.29  1324.52
eigval :     1324.71  1325.42  1328.71  1329.20  1331.23  1334.55
eigval :     1335.16  1337.74  1339.88  1343.19  1344.45  1347.73
eigval :     1348.87  1349.04  1356.09  1357.18  1359.09  1361.88
eigval :     1363.88  1365.45  1365.84  1368.43  1371.16  1372.48
eigval :     1378.55  1396.16  1399.11  1402.59  1406.74  1407.82
eigval :     1408.94  1410.30  1415.82  1417.41  1420.97  1427.83
eigval :     1427.97  1455.56  1456.80  1458.06  1459.53  1460.51
eigval :     1462.83  1465.07  1466.16  1468.61  1472.20  1473.72
eigval :     1474.62  1475.98  1477.76  1478.81  1480.76  1482.97
eigval :     1484.70  1486.48  1486.84  1487.57  1489.30  1489.46
eigval :     1496.95  1498.14  1499.78  1524.83  1532.79  1540.78
eigval :     1544.19  1545.44  1553.75  1555.53  1559.41  1563.33
eigval :     1564.62  1569.30  1569.84  1572.49  1574.77  1579.79
eigval :     1580.59  1585.79  1591.09  1594.68  1598.86  1633.41
eigval :     1657.29  2201.86  2829.74  2853.76  2864.41  2879.42
eigval :     2920.24  2921.60  2935.81  2944.67  2963.29  2965.47
eigval :     2965.83  2971.19  2972.14  2975.00  2976.61  2979.06
eigval :     2982.76  2983.97  2985.74  2988.12  2988.59  2990.15
eigval :     2993.20  2996.34  2999.14  2999.31  3004.89  3010.61
eigval :     3033.55  3041.12  3062.60  3063.54  3065.89  3073.72
eigval :     3075.30  3077.96  3078.46  3079.90  3080.08  3080.44
eigval :     3081.79  3082.72  3083.24  3083.44  3084.59  3084.85
eigval :     3087.18  3089.86  3090.91  3093.29  3093.39  3093.74
eigval :     3095.88  3096.77  3096.87  3098.81  3101.66  3101.95
eigval :     3102.26  3103.14  3104.96  3105.79  3108.41  3108.62
eigval :     3109.36  3113.23  3114.63  3115.00  3115.51  3116.09
eigval :     3118.33  3125.33  3133.71

   temp. (K)  partition function   enthalpy   heat capacity  entropy
                                   cal/mol     cal/K/mol   cal/K/mol   J/K/mol
 298.15  VIB  0.113E+41            49971.130    304.242    316.212
         ROT  0.339E+09              888.752      2.981     42.015
         INT  0.383E+49            50859.882    307.223    358.227
         TR   0.417E+29             1481.254      4.968     47.174
         TOT                       52341.1362   312.1907   405.4004  1696.1954

       T/K    H(0)-H(T)+PV         H(T)/Eh          T*S/Eh         G(T)/Eh
   ------------------------------------------------------------------------
    298.15    0.834109E-01    0.141015E+01    0.192619E+00    0.121753E+01
   ------------------------------------------------------------------------

         :::::::::::::::::::::::::::::::::::::::::::::::::::::
         ::                  THERMODYNAMIC                  ::
         :::::::::::::::::::::::::::::::::::::::::::::::::::::
         :: total free energy        -249.026994961045 Eh   ::
         ::.................................................::
         :: total energy             -250.244524224004 Eh   ::
         :: zero point energy           1.326737175316 Eh   ::
         :: G(RRHO) w/o ZPVE           -0.109207912358 Eh   ::
         :: G(RRHO) contrib.            1.217529262958 Eh   ::
         :::::::::::::::::::::::::::::::::::::::::::::::::::::

           -------------------------------------------------
          | TOTAL ENERGY             -250.244524224004 Eh   |
          | TOTAL ENTHALPY           -248.834376138850 Eh   |
          | TOTAL FREE ENERGY        -249.026994961045 Eh   |
          | GRADIENT NORM               0.000066620646 Eh/α |
          | HOMO-LUMO GAP               0.097472487575 eV   |
           -------------------------------------------------

 * finished run on 2025/08/29 at 11:21:05.167
