   * xtb version 6.7.1 (edcfbbe) compiled by 'albert@albert-system' on 2024-07-22

   ID    Z sym.   atoms
    1    6 C      1-15, 17-31, 33, 37-52
    2    7 N      16, 32, 34, 36
    3   16 S      35
    4    1 H      53-84

          program call               : xtb data2507/toluene/IABTCN/IABTCN_toluene_S0_finalOpt.xtbopt.xyz --gfn 2 --uhf 2 --gbsa toluene --ohess vtight --parallel 40 --molden --ceasefiles --namespace data2507/toluene/IABTCN/IABTCN_toluene_T1_preOpt
      * Solvation model:               GBSA
        Solvent                        toluene
        Solvent mass                       9.2140E+01 g/mol
          :  Hamiltonian                  GFN2-xTB          :
 * total energy  :  -131.9183223 Eh     change       -0.2104969E-08 Eh
 * total energy  :  -131.9216705 Eh     change       -0.3348213E-02 Eh
 * total energy  :  -131.9228595 Eh     change       -0.1188977E-02 Eh
 * total energy  :  -131.9230048 Eh     change       -0.1452454E-03 Eh
 * total energy  :  -131.9230980 Eh     change       -0.9319297E-04 Eh
 * total energy  :  -131.9230742 Eh     change        0.2378398E-04 Eh
 * total energy  :  -131.9231852 Eh     change       -0.1110367E-03 Eh
 * total energy  :  -131.9232202 Eh     change       -0.3497719E-04 Eh
 * total energy  :  -131.9232686 Eh     change       -0.4843643E-04 Eh
 * total energy  :  -131.9232981 Eh     change       -0.2943103E-04 Eh
 * total energy  :  -131.9235272 Eh     change       -0.4410001E-06 Eh
 * total energy  :  -131.9235277 Eh     change       -0.5200583E-06 Eh
 * total energy  :  -131.9235285 Eh     change       -0.8221961E-06 Eh
 * total energy  :  -131.9235297 Eh     change       -0.1159775E-05 Eh
 * total energy  :  -131.9235306 Eh     change       -0.9900137E-06 Eh
 * total energy  :  -131.9235312 Eh     change       -0.5783827E-06 Eh
 * total energy  :  -131.9235317 Eh     change       -0.4332634E-06 Eh
 * total energy  :  -131.9235319 Eh     change       -0.2877123E-06 Eh
 * total energy  :  -131.9235320 Eh     change       -0.1914668E-07 Eh
   *** GEOMETRY OPTIMIZATION CONVERGED AFTER 44 ITERATIONS ***

 final structure:
================
84
 xtb: 6.7.1 (edcfbbe)
C           -6.44992695305964       -1.72581574650010       -0.08645204283765
C           -5.76936871155330       -0.78875780321229       -1.09089510451308
C           -5.85271180740682       -1.37005599009873       -2.50650704745489
C           -6.36102172450954        0.60276504232185       -1.03239278980044
C           -7.64928622197257        1.00847715285334       -1.30529834127767
C           -7.96582378211364        2.35684405360972       -1.19132342904201
C           -7.00755583395578        3.28556947594733       -0.80714541489737
C           -5.71133172287041        2.88959184659900       -0.52698513076329
C           -5.39113243535992        1.54313521924712       -0.64081118959003
C           -4.14205341459473        0.84868706532936       -0.42429154234353
C           -2.90268706366495        1.31235587889895       -0.00520302300159
C           -1.84301728083641        0.43022534568956        0.11565389714711
C           -2.02599011402155       -0.92959081122123       -0.20967746369756
C           -3.29509172212838       -1.40306153896614       -0.58965959872632
C           -4.33642538517171       -0.52052162745772       -0.69255013121939
N           -0.95035750217122       -1.78751949517961       -0.19885718930583
C           -1.18225407855521       -3.18987099883850       -0.33492879177471
C           -1.40523679696942       -3.94307995061446        0.80945699423820
C           -1.63913279539787       -5.30308826204554        0.69524324317671
C           -1.65094572655183       -5.90546162575122       -0.55210234444116
C           -1.42706065669912       -5.14913547402927       -1.69169521351304
C           -1.19259823686485       -3.78905024690780       -1.58867834161967
C            0.33550834620806       -1.31490691499942       -0.19071185749427
C            1.42155171682883       -2.14671997951909       -0.52062968276542
C            2.68974813365332       -1.64509061376714       -0.61360035870415
C            2.96104241312713       -0.27405089674929       -0.39183964584067
C            4.27875018447118        0.26845435232514       -0.54028858644635
C            4.48961868327325        1.67350529912779       -0.64510837537802
C            5.72348369311571        2.24340829934847       -0.77882384129217
C            6.90308955971634        1.46030354421574       -0.80918057498168
C            8.15484844912829        2.05619569677230       -0.92637619831819
N            9.17951151369579        2.58015340192363       -1.02426869866397
C            6.75906019068762        0.06025833690779       -0.72325060428326
N            7.74805605381552       -0.82473905180112       -0.73890355248782
S            7.10124720883566       -2.32478573108407       -0.61619518144562
N            5.51884356592430       -1.86418794582209       -0.53460879812313
C            5.44855220969562       -0.54037683316871       -0.60497521766837
C            1.86997203394277        0.52921017788924        0.00869088341122
C            0.59260646611899        0.03719725620014        0.12259506788094
C           -0.52502676600920        0.86644445549272        0.71736481885370
C           -0.28342558363102        2.34407064881379        0.44720200498705
C           -0.11846778362647        3.27998737632314        1.45736156141442
C            0.10831058915117        4.61208639255304        1.14803423527099
C            0.16975554748619        5.02324985426733       -0.17145995530484
C            0.00429309700069        4.09370109699824       -1.18641660139588
C           -0.21965784418959        2.76522538983749       -0.87890474887325
C           -0.57614449490179        0.57046224341463        2.22809359171060
C            0.58228920029337        0.26239554071705        2.93285730183440
C            0.53777036210737        0.01141084654806        4.29358252242267
C           -0.66520178931365        0.06203756079990        4.97608526589072
C           -1.82222194853423        0.37604663238957        4.28486393100531
C           -1.77849066159537        0.62785047086393        2.92438180540486
H           -7.49847197191292       -1.85260371917318       -0.34326792866038
H           -5.96813411951075       -2.70038439732777       -0.09542023041121
H           -6.38556823018224       -1.31393617846833        0.91860629994603
H           -5.36382078814955       -2.34032983451344       -2.54455444276130
H           -6.89181389135231       -1.49244383055289       -2.80102126957210
H           -5.36650516341441       -0.70520504025483       -3.21754897601877
H           -8.40566684577995        0.29862727941542       -1.60567970979008
H           -8.97148754388385        2.68817240301981       -1.40555811086598
H           -7.27870788676816        4.32827091017214       -0.72704612163379
H           -4.96532399665848        3.61138865329680       -0.22935593434815
H           -2.76293938374339        2.35435526144624        0.23775252580662
H           -3.43081826767203       -2.44902216367835       -0.81205288197246
H           -1.39236930198212       -3.46140162514862        1.77593066525379
H           -1.81150599201952       -5.89112867066303        1.58371582263059
H           -1.83359653314889       -6.96584309332412       -0.63685737280880
H           -1.43466007392537       -5.61745037796148       -2.66424440064041
H           -1.01731068417250       -3.18933512018119       -2.46962296857321
H            1.24887627144290       -3.19258139632276       -0.71972710637943
H            3.50992883034742       -2.29336633690447       -0.87300003446501
H            3.63156564364675        2.32661979521299       -0.65779744834268
H            5.82360158898909        3.31571548821413       -0.86781496015815
H            2.04113572060001        1.55822468303115        0.28116192170664
H           -0.16205638686268        2.97472761139533        2.49205847703821
H            0.23829466733103        5.32918093341511        1.94563410811255
H            0.34812206968105        6.06155867047318       -0.40987515176138
H            0.05305135865261        4.40511287914106       -2.21977629803315
H           -0.34352559008198        2.04223834290918       -1.67292215181855
H            1.53463672398173        0.22184598510385        2.42621004642186
H            1.45200749032366       -0.22432843088043        4.81882372107190
H           -0.69895696645936       -0.13716964314874        6.03698629968725
H           -2.76773223056465        0.42761896458280        4.80469752212182
H           -2.69350814616374        0.87815388094353        2.41010183152562

          :  Hamiltonian                  GFN2-xTB          :
         :: gradient norm              0.000096739509 Eh/a0 ::
         :: HOMO-LUMO gap              1.023768584143 eV    ::
         :: SCC energy              -134.307456729968 Eh    ::
         :: -> dispersion             -0.128932633471 Eh    ::
         :: -> Gsolv                  -0.072986325411 Eh    ::
         :: repulsion energy           2.383924766131 Eh    ::

    * Orbital Energies and Occupations

         #    Occupation            Energy/Eh            Energy/eV
      -------------------------------------------------------------
         1        2.0000           -0.7315613             -19.9068
       ...           ...                  ...                  ...
       112        2.0000           -0.4144150             -11.2768
       113        2.0000           -0.4125668             -11.2265
       114        2.0000           -0.4107515             -11.1771
       115        2.0000           -0.4079936             -11.1021
       116        2.0000           -0.4063248             -11.0567
       117        2.0000           -0.4030483             -10.9675
       118        2.0000           -0.4023271             -10.9479
       119        2.0000           -0.3979328             -10.8283
       120        2.0000           -0.3931557             -10.6983
       121        2.0000           -0.3897592             -10.6059
       122        2.0000           -0.3823615             -10.4046
       123        1.0000           -0.3625602              -9.8658
       124        1.0000           -0.3036962              -8.2640 (HOMO)
       125                         -0.2660732              -7.2402 (LUMO)
       126                         -0.2493383              -6.7848
       127                         -0.2477033              -6.7403
       128                         -0.2451916              -6.6720
       129                         -0.2415854              -6.5739
       130                         -0.2368701              -6.4456
       131                         -0.2318224              -6.3082
       132                         -0.2306392              -6.2760
       133                         -0.2298654              -6.2550
       134                         -0.2289478              -6.2300
       135                         -0.2282726              -6.2116
       ...                                ...                  ...
       245                          1.1695336              31.8246
      -------------------------------------------------------------
                  HL-Gap            0.0376230 Eh            1.0238 eV

     #   Z          covCN         q      C6AA      α(0)
     1   6 C        3.758    -0.103    22.520     6.766
     2   6 C        3.934     0.021    20.151     6.379
     3   6 C        3.758    -0.103    22.523     6.766
     4   6 C        3.057     0.004    27.871     8.658
     5   6 C        2.914    -0.032    28.786     8.798
     6   6 C        2.922    -0.027    28.687     8.783
     7   6 C        2.920    -0.031    28.767     8.795
     8   6 C        2.913    -0.031    28.771     8.796
     9   6 C        3.036     0.003    27.917     8.666
    10   6 C        3.035     0.005    27.872     8.659
    11   6 C        2.915    -0.035    28.872     8.811
    12   6 C        2.985     0.001    28.003     8.680
    13   6 C        2.935     0.055    26.771     8.486
    14   6 C        2.916    -0.050    29.238     8.867
    15   6 C        3.053     0.007    27.819     8.650
    16   7 N        2.755     0.001    21.252     6.847
    17   6 C        2.931     0.058    26.707     8.475
    18   6 C        2.921    -0.033    28.818     8.803
    19   6 C        2.920    -0.022    28.566     8.765
    20   6 C        2.919    -0.025    28.617     8.772
    21   6 C        2.920    -0.024    28.592     8.769
    22   6 C        2.920    -0.034    28.850     8.808
    23   6 C        2.933     0.056    26.753     8.483
    24   6 C        2.914    -0.044    29.087     8.844
    25   6 C        2.920    -0.037    28.921     8.819
    26   6 C        2.968     0.021    27.541     8.608
    27   6 C        2.962    -0.029    28.711     8.789
    28   6 C        2.916    -0.045    29.128     8.850
    29   6 C        2.916    -0.043    29.076     8.842
    30   6 C        2.961    -0.026    28.649     8.779
    31   6 C        1.909     0.117    28.222     8.580
    32   7 N        0.911    -0.322    28.269     7.690
    33   6 C        3.320     0.099    23.831     7.772
    34   7 N        1.847    -0.321    29.182     8.006
    35  16 S        2.590     0.161   134.667    19.531
    36   7 N        1.852    -0.305    28.747     7.947
    37   6 C        3.275     0.082    24.881     8.036
    38   6 C        2.925    -0.041    29.022     8.835
    39   6 C        2.981     0.003    27.947     8.672
    40   6 C        3.922     0.011    20.328     6.408
    41   6 C        2.977     0.013    27.711     8.635
    42   6 C        2.922    -0.036    28.889     8.814
    43   6 C        2.920    -0.030    28.744     8.792
    44   6 C        2.919    -0.031    28.780     8.797
    45   6 C        2.919    -0.030    28.745     8.792
    46   6 C        2.925    -0.033    28.828     8.805
    47   6 C        2.978     0.013    27.709     8.635
    48   6 C        2.923    -0.036    28.889     8.814
    49   6 C        2.920    -0.029    28.722     8.789
    50   6 C        2.919    -0.030    28.757     8.794
    51   6 C        2.920    -0.029    28.735     8.791
    52   6 C        2.924    -0.037    28.909     8.817
    53   1 H        0.925     0.050     2.321     2.383
    54   1 H        0.925     0.049     2.328     2.386
    55   1 H        0.925     0.039     2.459     2.452
    56   1 H        0.925     0.049     2.329     2.387
    57   1 H        0.925     0.050     2.324     2.384
    58   1 H        0.925     0.039     2.468     2.457
    59   1 H        0.926     0.039     2.458     2.452
    60   1 H        0.926     0.037     2.483     2.464
    61   1 H        0.926     0.035     2.511     2.478
    62   1 H        0.926     0.037     2.488     2.467
    63   1 H        0.926     0.048     2.344     2.394
    64   1 H        0.926     0.052     2.289     2.366
    65   1 H        0.926     0.049     2.330     2.387
    66   1 H        0.926     0.053     2.287     2.365
    67   1 H        0.926     0.051     2.306     2.375
    68   1 H        0.926     0.053     2.288     2.366
    69   1 H        0.926     0.051     2.303     2.373
    70   1 H        0.926     0.051     2.309     2.376
    71   1 H        0.926     0.068     2.105     2.269
    72   1 H        0.926     0.039     2.460     2.453
    73   1 H        0.926     0.025     2.656     2.548
    74   1 H        0.926     0.044     2.396     2.421
    75   1 H        0.926     0.035     2.522     2.483
    76   1 H        0.926     0.033     2.541     2.493
    77   1 H        0.926     0.033     2.547     2.496
    78   1 H        0.926     0.034     2.535     2.490
    79   1 H        0.926     0.031     2.574     2.509
    80   1 H        0.926     0.031     2.568     2.506
    81   1 H        0.926     0.032     2.554     2.499
    82   1 H        0.926     0.036     2.508     2.476
    83   1 H        0.926     0.038     2.477     2.461
    84   1 H        0.926     0.040     2.454     2.450

molecular dipole:
                 x           y           z       tot (Debye)
 q only:      -10.475      -2.349       0.515
   full:      -10.642      -1.973       0.564      27.548

 projected vibrational frequencies (cm⁻¹)
eigval :       -0.00    -0.00    -0.00     0.00     0.00     0.00
eigval :        6.27    10.99    19.82    22.05    23.78    31.80
eigval :       33.53    37.83    44.80    53.08    55.57    60.27
eigval :       64.49    73.82    86.16   101.10   104.80   108.09
eigval :      118.28   129.73   146.46   155.47   162.80   184.92
eigval :      188.37   198.53   203.25   210.14   215.08   230.75
eigval :      233.55   240.34   247.78   254.63   264.45   272.67
eigval :      285.18   297.75   310.17   318.18   324.96   340.57
eigval :      370.50   371.96   373.30   378.73   388.44   398.99
eigval :      402.36   408.17   429.61   436.51   439.89   461.22
eigval :      464.24   472.21   482.01   504.48   507.89   518.31
eigval :      520.17   531.68   540.50   542.81   563.35   565.43
eigval :      575.07   585.21   588.74   591.26   591.72   593.33
eigval :      599.36   607.99   617.92   622.29   650.89   662.28
eigval :      665.87   668.73   672.31   678.57   686.88   695.21
eigval :      701.64   714.85   723.92   725.46   737.69   754.85
eigval :      756.43   769.32   777.68   785.44   786.23   794.63
eigval :      816.08   823.04   830.92   858.69   862.34   876.44
eigval :      877.83   878.36   878.90   880.96   886.69   894.60
eigval :      902.63   903.40   906.29   908.67   911.96   913.72
eigval :      913.84   928.54   929.86   931.46   932.38   933.77
eigval :      934.48   936.80   941.64   949.14   966.88   977.52
eigval :      982.04   994.77   997.50  1005.91  1012.54  1050.27
eigval :     1067.85  1074.09  1077.49  1086.75  1092.37  1111.44
eigval :     1113.06  1122.56  1126.53  1130.81  1133.58  1147.48
eigval :     1159.75  1171.84  1174.98  1178.93  1180.16  1180.43
eigval :     1180.80  1184.27  1192.88  1197.70  1203.52  1212.88
eigval :     1214.17  1217.48  1229.73  1234.00  1238.17  1251.93
eigval :     1265.56  1268.34  1271.17  1275.34  1286.12  1287.86
eigval :     1291.23  1307.48  1313.93  1315.62  1317.28  1318.41
eigval :     1330.40  1336.81  1345.18  1358.16  1375.14  1392.51
eigval :     1404.09  1409.43  1417.38  1425.25  1428.33  1429.39
eigval :     1431.66  1436.12  1443.33  1451.55  1454.77  1459.42
eigval :     1464.51  1468.89  1469.54  1473.18  1480.31  1484.35
eigval :     1487.67  1491.42  1497.51  1534.97  1541.12  1569.89
eigval :     1581.01  1581.32  1583.84  1584.37  1586.61  1587.85
eigval :     1594.81  1599.08  1601.02  2291.13  3029.57  3032.73
eigval :     3035.73  3037.65  3042.21  3045.09  3069.78  3072.88
eigval :     3073.03  3073.05  3075.64  3076.51  3077.91  3079.33
eigval :     3083.99  3084.55  3085.82  3087.74  3088.22  3091.17
eigval :     3091.38  3094.92  3095.83  3095.98  3098.63  3100.06
eigval :     3101.23  3103.76  3104.56  3110.70  3114.23  3125.56

   temp. (K)  partition function   enthalpy   heat capacity  entropy
                                   cal/mol     cal/K/mol   cal/K/mol   J/K/mol
 298.15  VIB  0.159E+21            25237.219    156.106    158.105
         ROT  0.948E+08              888.752      2.981     39.482
         INT  0.151E+29            26125.971    159.087    197.587
         TR   0.173E+29             1481.254      4.968     45.433
         TOT                       27607.2254   164.0548   243.0194  1016.7933

       T/K    H(0)-H(T)+PV         H(T)/Eh          T*S/Eh         G(T)/Eh
   ------------------------------------------------------------------------
    298.15    0.439949E-01    0.681714E+00    0.115466E+00    0.566248E+00
   ------------------------------------------------------------------------

         :::::::::::::::::::::::::::::::::::::::::::::::::::::
         ::                  THERMODYNAMIC                  ::
         :::::::::::::::::::::::::::::::::::::::::::::::::::::
         :: total free energy        -131.357284415725 Eh   ::
         ::.................................................::
         :: total energy             -131.923531960693 Eh   ::
         :: zero point energy           0.637719000507 Eh   ::
         :: G(RRHO) w/o ZPVE           -0.071471455540 Eh   ::
         :: G(RRHO) contrib.            0.566247544968 Eh   ::
         :::::::::::::::::::::::::::::::::::::::::::::::::::::

           -------------------------------------------------
          | TOTAL ENERGY             -131.923531960693 Eh   |
          | TOTAL ENTHALPY           -131.241818046147 Eh   |
          | TOTAL FREE ENERGY        -131.357284415725 Eh   |
          | GRADIENT NORM               0.000096917493 Eh/α |
          | HOMO-LUMO GAP               1.023773539642 eV   |
           -------------------------------------------------

 * finished run on 2025/07/20 at 01:26:31.897
