   * xtb version 6.7.1 (edcfbbe) compiled by 'albert@albert-system' on 2024-07-22

   ID    Z sym.   atoms
    1    6 C      1-15, 17-31, 33, 37-52
    2    7 N      16, 32, 34, 36
    3   16 S      35
    4    1 H      53-84

          program call               : xtb data2507/toluene/IABTCN/IABTCN.xyz --gfn 2 --gbsa toluene --ohess vtight --parallel 40 --molden --ceasefiles --namespace data2507/toluene/IABTCN/IABTCN_toluene_S0_preOpt
      * Solvation model:               GBSA
        Solvent                        toluene
        Solvent mass                       9.2140E+01 g/mol
          :  Hamiltonian                  GFN2-xTB          :
 * total energy  :  -131.9161191 Eh     change       -0.7146667E-08 Eh
 * total energy  :  -131.9389167 Eh     change       -0.2279756E-01 Eh
 * total energy  :  -131.9481725 Eh     change       -0.9255816E-02 Eh
 * total energy  :  -131.9514622 Eh     change       -0.3289693E-02 Eh
 * total energy  :  -131.9530353 Eh     change       -0.1573142E-02 Eh
 * total energy  :  -131.9524028 Eh     change        0.6325689E-03 Eh
 * total energy  :  -131.9538227 Eh     change       -0.1419943E-02 Eh
 * total energy  :  -131.9540708 Eh     change       -0.2480946E-03 Eh
 * total energy  :  -131.9543800 Eh     change       -0.3091995E-03 Eh
 * total energy  :  -131.9547228 Eh     change       -0.3427732E-03 Eh
 * total energy  :  -131.9563709 Eh     change       -0.4069108E-06 Eh
 * total energy  :  -131.9563712 Eh     change       -0.2965839E-06 Eh
 * total energy  :  -131.9563714 Eh     change       -0.2727982E-06 Eh
 * total energy  :  -131.9563717 Eh     change       -0.2661697E-06 Eh
 * total energy  :  -131.9563719 Eh     change       -0.1790623E-06 Eh
 * total energy  :  -131.9563721 Eh     change       -0.1617838E-06 Eh
 * total energy  :  -131.9563722 Eh     change       -0.1724591E-06 Eh
 * total energy  :  -131.9563724 Eh     change       -0.1356228E-06 Eh
 * total energy  :  -131.9563724 Eh     change       -0.5833283E-07 Eh
   *** GEOMETRY OPTIMIZATION CONVERGED AFTER 87 ITERATIONS ***

 final structure:
================
84
 xtb: 6.7.1 (edcfbbe)
C           -5.61510918797994       -0.51093093594318       -0.53952152084323
C           -4.59817333138632        0.22995997772770       -1.41457446096637
C           -4.60684363376604       -0.33572679310845       -2.83884357013897
C           -4.85636436852697        1.72125359365672       -1.41844125220887
C           -5.96976249823578        2.40531369867484       -1.85616090908079
C           -5.98690841399453        3.79131869601770       -1.76081387401363
C           -4.90414091321995        4.47947296006992       -1.23522329958542
C           -3.78023100517971        3.80024246721514       -0.79236446535608
C           -3.76029531069053        2.41790899839136       -0.88611139928930
C           -2.74574786040081        1.45224334443645       -0.50065102094652
C           -1.51434597709224        1.63121914739273        0.11185998169992
C           -0.75454532166060        0.51787567946180        0.42660085029641
C           -1.15478566258059       -0.74820190866108       -0.04184897290457
C           -2.41395225033268       -0.93422031836309       -0.61056478927323
C           -3.21434307211249        0.16722394437976       -0.80879865093086
N           -0.20491649464634       -1.77313905546900       -0.02564064442413
C           -0.62111971093276       -3.11678095091858       -0.24026136476178
C           -0.92121866721100       -3.89645533412186        0.86834047708481
C           -1.33550681753489       -5.20611637245965        0.69572082629803
C           -1.44950210728854       -5.73763410068250       -0.57839628110071
C           -1.15530496975433       -4.95675133717949       -1.68447397385069
C           -0.74335881442594       -3.64559559430262       -1.52024774852391
C            1.10160499282146       -1.38816359432271       -0.24817521843976
C            2.02233508580690       -2.16458995478720       -0.95139120302639
C            3.22432510468098       -1.62038427989165       -1.34426633592728
C            3.51598166939933       -0.27337459487286       -1.10353571756296
C            4.71789250304708        0.34884562721104       -1.63675939826869
C            4.76774235694426        1.70185553086082       -1.94303819827107
C            5.89967325704128        2.32820055135420       -2.46263722541297
C            7.07254834867825        1.63405537360871       -2.70937201272423
C            8.21003832252433        2.26868426319259       -3.23654736868376
N            9.13126958037085        2.80286815038650       -3.66819759168917
C            7.08545091244628        0.25171634362557       -2.41078120028678
N            8.10420390522837       -0.59282013239057       -2.55668475686324
S            7.63565146434580       -2.05171795738030       -2.06445142038130
N            6.12768842651329       -1.68408368625874       -1.65025484007944
C            5.90845948796604       -0.38901818990113       -1.88054178394877
C            2.62864359402375        0.46691401028804       -0.30988714722453
C            1.48963921887669       -0.10735991751060        0.20616190561871
C            0.53397195816167        0.47748770073607        1.22598579814704
C            0.95461797834371        1.71917091085981        1.98949785487064
C            0.00357354718140        2.56228943766004        2.55937161202649
C            0.37925190975877        3.65185056884803        3.32515170105878
C            1.71639496050493        3.90682206903195        3.57289099823697
C            2.66721374984664        3.02561544900528        3.08965228129746
C            2.28906880487477        1.93670528706719        2.32382803357877
C            0.36521368040921       -0.53459379776034        2.37260379954053
C            1.44482748385258       -1.28905942732419        2.81394704359418
C            1.30612186679598       -2.16120583014813        3.87918305197093
C            0.08771962786292       -2.28479243451595        4.52524582963680
C           -0.98939244778728       -1.52551899634439        4.10006401360887
C           -0.85051944028329       -0.65437513710862        3.03384001958549
H           -6.61504408219330       -0.40816464855467       -0.95418496417634
H           -5.36534045171484       -1.56817257265541       -0.48656885987648
H           -5.61383633634382       -0.10175733987843        0.46891613441790
H           -4.35980365363620       -1.39469392344143       -2.82557083823602
H           -5.58995415002869       -0.21266157862839       -3.28683834471010
H           -3.87660680386732        0.18554530589197       -3.45494763879380
H           -6.81999135605237        1.88053272170459       -2.26755171221800
H           -6.85443775902064        4.33949028804463       -2.09953339062732
H           -4.93812087540379        5.55783129367481       -1.17008666551399
H           -2.93863524726675        4.33983465785999       -0.38279262670009
H           -1.16204348885254        2.62456637652997        0.33825673708572
H           -2.73188636467497       -1.91985498383765       -0.91310859847909
H           -0.82653178351176       -3.46799544664569        1.85483311745140
H           -1.56746580678265       -5.81203596476673        1.55886072935271
H           -1.77009269781272       -6.76020473355454       -0.71072049724880
H           -1.24912665495587       -5.36780312648128       -2.67885325225194
H           -0.52160293321854       -3.02653829088272       -2.37786422221753
H            1.78169523140293       -3.18274099274581       -1.21430103223637
H            3.92608619279863       -2.22278403043185       -1.89716129448501
H            3.88297330822546        2.30239048817090       -1.79967213621589
H            5.86312018182204        3.38435380327929       -2.68737754569268
H            2.86846807358975        1.48865119338368       -0.06477797147956
H           -1.04768766159763        2.35823712028427        2.43530952897756
H           -0.38152770216694        4.29675679383752        3.74138127668136
H            2.01170110714426        4.76155333867517        4.16366784743762
H            3.71249742539553        3.17622630509638        3.31960491925398
H            3.04912403952723        1.23677350693791        2.01570357898275
H            2.40074213219757       -1.20425980725689        2.31792944905499
H            2.15411107278552       -2.74662753954890        4.20411339437181
H           -0.02115650524380       -2.96727220263968        5.35547351366402
H           -1.94427289375270       -1.61181014058351        4.59851864948087
H           -1.70009107809486       -0.07187002025423        2.70885325372878

          :  Hamiltonian                  GFN2-xTB          :
         :: gradient norm              0.000086904575 Eh/a0 ::
         :: HOMO-LUMO gap              0.957656568387 eV    ::
         :: SCC energy              -134.352838606910 Eh    ::
         :: -> dispersion             -0.131301957255 Eh    ::
         :: -> Gsolv                  -0.057021343160 Eh    ::
         :: repulsion energy           2.396466187253 Eh    ::

    * Orbital Energies and Occupations

         #    Occupation            Energy/Eh            Energy/eV
      -------------------------------------------------------------
         1        2.0000           -0.7727318             -21.0271
       ...           ...                  ...                  ...
       111        2.0000           -0.4154954             -11.3062
       112        2.0000           -0.4129368             -11.2366
       113        2.0000           -0.4124112             -11.2223
       114        2.0000           -0.4088819             -11.1262
       115        2.0000           -0.4069276             -11.0731
       116        2.0000           -0.4055651             -11.0360
       117        2.0000           -0.4034807             -10.9793
       118        2.0000           -0.4002491             -10.8913
       119        2.0000           -0.3978399             -10.8258
       120        2.0000           -0.3916847             -10.6583
       121        2.0000           -0.3874023             -10.5418
       122        2.0000           -0.3806519             -10.3581
       123        2.0000           -0.3565161              -9.7013 (HOMO)
       124                         -0.3213228              -8.7436 (LUMO)
       125                         -0.2666911              -7.2570
       126                         -0.2480332              -6.7493
       127                         -0.2382558              -6.4833
       128                         -0.2376360              -6.4664
       129                         -0.2352982              -6.4028
       130                         -0.2351184              -6.3979
       131                         -0.2303020              -6.2668
       132                         -0.2264777              -6.1628
       133                         -0.2264143              -6.1610
       134                         -0.2227135              -6.0603
       ...                                ...                  ...
       245                          1.1623843              31.6301
      -------------------------------------------------------------
                  HL-Gap            0.0351933 Eh            0.9577 eV

     #   Z          covCN         q      C6AA      α(0)
     1   6 C        3.758    -0.099    22.438     6.753
     2   6 C        3.935     0.019    20.190     6.386
     3   6 C        3.758    -0.099    22.442     6.754
     4   6 C        3.055    -0.003    28.046     8.685
     5   6 C        2.915    -0.035    28.874     8.811
     6   6 C        2.921    -0.036    28.887     8.814
     7   6 C        2.921    -0.035    28.873     8.812
     8   6 C        2.914    -0.037    28.928     8.820
     9   6 C        3.037    -0.001    28.025     8.683
    10   6 C        3.036    -0.012    28.284     8.723
    11   6 C        2.914    -0.044    29.105     8.847
    12   6 C        3.013    -0.010    28.255     8.719
    13   6 C        2.954     0.053    26.802     8.491
    14   6 C        2.915    -0.057    29.406     8.892
    15   6 C        3.056    -0.004    28.059     8.687
    16   7 N        2.755    -0.065    22.506     7.046
    17   6 C        2.923     0.065    26.553     8.450
    18   6 C        2.923    -0.037    28.914     8.818
    19   6 C        2.920    -0.026    28.652     8.778
    20   6 C        2.919    -0.029    28.721     8.788
    21   6 C        2.920    -0.028    28.699     8.785
    22   6 C        2.920    -0.038    28.937     8.821
    23   6 C        2.950     0.064    26.562     8.453
    24   6 C        2.916    -0.054    29.344     8.883
    25   6 C        2.923    -0.035    28.860     8.810
    26   6 C        2.974    -0.002    28.077     8.692
    27   6 C        2.964     0.008    27.846     8.656
    28   6 C        2.923    -0.043    29.074     8.842
    29   6 C        2.923    -0.022    28.565     8.765
    30   6 C        2.960    -0.011    28.295     8.725
    31   6 C        1.909     0.123    28.088     8.559
    32   7 N        0.911    -0.277    27.149     7.536
    33   6 C        3.358     0.086    23.339     7.589
    34   7 N        1.851    -0.291    28.402     7.899
    35  16 S        2.669     0.350   127.579    19.010
    36   7 N        1.855    -0.268    27.805     7.815
    37   6 C        3.332     0.072    24.130     7.789
    38   6 C        2.924    -0.043    29.066     8.841
    39   6 C        3.011    -0.006    28.163     8.705
    40   6 C        3.930     0.012    20.309     6.405
    41   6 C        2.991     0.014    27.684     8.631
    42   6 C        2.926    -0.038    28.952     8.824
    43   6 C        2.920    -0.032    28.800     8.800
    44   6 C        2.919    -0.034    28.839     8.806
    45   6 C        2.920    -0.033    28.811     8.802
    46   6 C        2.926    -0.040    28.984     8.829
    47   6 C        3.002     0.014    27.691     8.632
    48   6 C        2.923    -0.035    28.881     8.813
    49   6 C        2.920    -0.031    28.770     8.796
    50   6 C        2.919    -0.034    28.838     8.806
    51   6 C        2.920    -0.031    28.778     8.797
    52   6 C        2.923    -0.035    28.870     8.811
    53   1 H        0.925     0.044     2.397     2.421
    54   1 H        0.925     0.044     2.401     2.423
    55   1 H        0.925     0.035     2.519     2.482
    56   1 H        0.925     0.044     2.401     2.423
    57   1 H        0.925     0.044     2.399     2.422
    58   1 H        0.925     0.034     2.529     2.487
    59   1 H        0.926     0.029     2.599     2.521
    60   1 H        0.926     0.028     2.621     2.532
    61   1 H        0.926     0.027     2.634     2.538
    62   1 H        0.926     0.028     2.616     2.529
    63   1 H        0.926     0.041     2.435     2.440
    64   1 H        0.926     0.033     2.537     2.491
    65   1 H        0.926     0.043     2.410     2.428
    66   1 H        0.926     0.044     2.394     2.420
    67   1 H        0.926     0.044     2.399     2.422
    68   1 H        0.926     0.044     2.400     2.423
    69   1 H        0.926     0.043     2.407     2.426
    70   1 H        0.926     0.040     2.443     2.444
    71   1 H        0.926     0.051     2.304     2.374
    72   1 H        0.926     0.057     2.235     2.338
    73   1 H        0.926     0.050     2.320     2.382
    74   1 H        0.926     0.047     2.356     2.400
    75   1 H        0.926     0.040     2.450     2.448
    76   1 H        0.926     0.031     2.575     2.509
    77   1 H        0.926     0.029     2.597     2.520
    78   1 H        0.926     0.028     2.611     2.527
    79   1 H        0.926     0.035     2.513     2.479
    80   1 H        0.926     0.027     2.626     2.534
    81   1 H        0.926     0.031     2.567     2.505
    82   1 H        0.926     0.032     2.558     2.501
    83   1 H        0.926     0.032     2.552     2.498
    84   1 H        0.926     0.031     2.575     2.509

molecular dipole:
                 x           y           z       tot (Debye)
 q only:       -3.481      -2.223       1.028
   full:       -3.763      -2.082       1.137      11.307

 projected vibrational frequencies (cm⁻¹)
eigval :       -0.00    -0.00    -0.00    -0.00     0.00     0.00
eigval :       12.43    18.19    24.21    27.56    29.87    32.58
eigval :       38.59    41.51    50.78    55.77    63.24    69.51
eigval :       74.26    82.87    96.63   104.15   107.45   116.89
eigval :      124.17   142.24   152.16   154.32   167.14   180.89
eigval :      184.16   192.47   202.24   217.94   222.83   225.60
eigval :      229.57   241.17   244.69   254.85   265.16   276.24
eigval :      284.12   306.70   317.24   326.08   335.50   342.39
eigval :      372.45   376.32   377.89   386.57   396.92   406.88
eigval :      417.12   420.78   440.11   446.52   451.90   462.01
eigval :      472.09   478.93   486.88   506.08   515.63   519.30
eigval :      526.28   534.85   546.89   554.08   567.20   572.16
eigval :      582.91   587.89   590.38   592.19   593.59   595.61
eigval :      601.89   618.30   625.39   626.15   647.47   656.42
eigval :      664.80   670.01   683.39   686.78   692.33   702.12
eigval :      705.88   721.72   727.78   733.81   745.04   753.60
eigval :      763.31   773.07   775.00   789.01   816.90   822.66
eigval :      831.41   855.65   860.45   865.51   875.19   876.44
eigval :      877.66   881.52   884.01   895.34   896.51   902.16
eigval :      903.75   904.96   907.47   910.03   915.23   916.96
eigval :      923.48   924.46   928.14   929.63   935.10   940.49
eigval :      942.08   949.54   955.14   961.89   965.97   977.97
eigval :      983.56   993.34  1000.20  1011.03  1011.30  1058.07
eigval :     1067.54  1077.24  1077.50  1086.42  1091.58  1111.34
eigval :     1112.72  1119.00  1122.76  1128.85  1136.32  1145.73
eigval :     1151.59  1173.00  1177.78  1177.95  1178.51  1180.88
eigval :     1181.33  1183.53  1184.17  1194.61  1203.67  1207.62
eigval :     1212.11  1222.90  1231.48  1234.61  1252.53  1255.27
eigval :     1260.97  1270.18  1272.29  1280.66  1285.91  1293.83
eigval :     1303.12  1306.52  1308.98  1312.71  1318.72  1319.91
eigval :     1329.16  1332.85  1342.80  1354.67  1366.76  1369.95
eigval :     1391.85  1408.65  1418.12  1425.48  1430.54  1432.61
eigval :     1438.50  1441.94  1456.81  1464.20  1467.96  1469.61
eigval :     1474.80  1479.05  1482.74  1486.21  1493.52  1493.85
eigval :     1499.29  1513.81  1531.74  1545.38  1562.87  1579.37
eigval :     1582.54  1583.64  1587.93  1590.73  1592.61  1595.65
eigval :     1597.73  1599.91  1607.15  2349.31  3025.11  3028.68
eigval :     3029.29  3031.14  3035.84  3038.40  3065.10  3067.41
eigval :     3068.74  3068.96  3070.36  3071.71  3075.25  3075.58
eigval :     3079.57  3080.22  3084.21  3084.41  3084.74  3085.22
eigval :     3085.60  3091.02  3093.09  3094.34  3098.57  3099.60
eigval :     3101.78  3102.70  3104.47  3108.10  3110.02  3118.65

   temp. (K)  partition function   enthalpy   heat capacity  entropy
                                   cal/mol     cal/K/mol   cal/K/mol   J/K/mol
 298.15  VIB  0.715E+19            24890.092    155.906    154.225
         ROT  0.967E+08              888.752      2.981     39.521
         INT  0.691E+27            25778.845    158.887    193.746
         TR   0.173E+29             1481.254      4.968     45.433
         TOT                       27260.0986   163.8548   239.1783  1000.7220

       T/K    H(0)-H(T)+PV         H(T)/Eh          T*S/Eh         G(T)/Eh
   ------------------------------------------------------------------------
    298.15    0.434417E-01    0.683183E+00    0.113641E+00    0.569541E+00
   ------------------------------------------------------------------------

         :::::::::::::::::::::::::::::::::::::::::::::::::::::
         ::                  THERMODYNAMIC                  ::
         :::::::::::::::::::::::::::::::::::::::::::::::::::::
         :: total free energy        -131.386831233040 Eh   ::
         ::.................................................::
         :: total energy             -131.956372415269 Eh   ::
         :: zero point energy           0.639740774013 Eh   ::
         :: G(RRHO) w/o ZPVE           -0.070199591784 Eh   ::
         :: G(RRHO) contrib.            0.569541182229 Eh   ::
         :::::::::::::::::::::::::::::::::::::::::::::::::::::

           -------------------------------------------------
          | TOTAL ENERGY             -131.956372415269 Eh   |
          | TOTAL ENTHALPY           -131.273189908943 Eh   |
          | TOTAL FREE ENERGY        -131.386831233040 Eh   |
          | GRADIENT NORM               0.000087152643 Eh/α |
          | HOMO-LUMO GAP               0.957658077465 eV   |
           -------------------------------------------------

 * finished run on 2025/07/20 at 01:22:10.318
