   * xtb version 6.7.1 (edcfbbe) compiled by 'albert@albert-system' on 2024-07-22

   ID    Z sym.   atoms
    1    6 C      1-15, 17-31, 33, 37-52
    2    7 N      16, 32, 34, 36
    3   16 S      35
    4    1 H      53-84

          program call               : xtb data2507/toluene/IABTCN/IABTCN_toluene_S0_crest.xyz --gfn 2 --gbsa toluene --ohess vtight --parallel 40 --molden --ceasefiles --namespace data2507/toluene/IABTCN/IABTCN_toluene_S0_finalOpt
      * Solvation model:               GBSA
        Solvent                        toluene
        Solvent mass                       9.2140E+01 g/mol
          :  Hamiltonian                  GFN2-xTB          :
 * total energy  :  -131.9746642 Eh     change       -0.5441365E-08 Eh
 * total energy  :  -131.9747241 Eh     change       -0.5993206E-04 Eh
 * total energy  :  -131.9746734 Eh     change        0.5075922E-04 Eh
 * total energy  :  -131.9747663 Eh     change       -0.9295123E-04 Eh
 * total energy  :  -131.9747774 Eh     change       -0.1109113E-04 Eh
 * total energy  :  -131.9748044 Eh     change       -0.2701997E-04 Eh
 * total energy  :  -131.9748302 Eh     change       -0.2576591E-04 Eh
 * total energy  :  -131.9748519 Eh     change       -0.2175831E-04 Eh
 * total energy  :  -131.9748750 Eh     change       -0.2309747E-04 Eh
 * total energy  :  -131.9748887 Eh     change       -0.1363386E-04 Eh
 * total energy  :  -131.9749821 Eh     change       -0.6316642E-06 Eh
 * total energy  :  -131.9749827 Eh     change       -0.6668552E-06 Eh
 * total energy  :  -131.9749832 Eh     change       -0.4634289E-06 Eh
 * total energy  :  -131.9749837 Eh     change       -0.4557058E-06 Eh
 * total energy  :  -131.9749841 Eh     change       -0.4213637E-06 Eh
 * total energy  :  -131.9749846 Eh     change       -0.4862102E-06 Eh
 * total energy  :  -131.9749851 Eh     change       -0.5428812E-06 Eh
 * total energy  :  -131.9749856 Eh     change       -0.5317274E-06 Eh
 * total energy  :  -131.9749856 Eh     change       -0.2445631E-08 Eh
   *** GEOMETRY OPTIMIZATION CONVERGED AFTER 44 ITERATIONS ***

 final structure:
================
84
 xtb: 6.7.1 (edcfbbe)
C           -6.44731333223640       -1.69937179507944       -0.15069704938199
C           -5.74458281507347       -0.76367072440092       -1.14065542897430
C           -5.80422993619703       -1.34372981608958       -2.55760953218825
C           -6.33436008942687        0.62973262865990       -1.09185491547930
C           -7.61544901498391        1.03850089172254       -1.39338328342813
C           -7.93381895522486        2.38645538092889       -1.28253777553286
C           -6.98281911835070        3.30908947451267       -0.87408392911257
C           -5.69248773376963        2.90757476688435       -0.56689320691002
C           -5.37212478371550        1.56399654417691       -0.67743509118876
C           -4.12427278105505        0.86116234151689       -0.43905986048459
C           -2.89332934478922        1.31470170717782        0.00361957889473
C           -1.84179260469184        0.42158739109812        0.14921261463954
C           -2.02640771266911       -0.92920322367641       -0.17446289076088
C           -3.28070982861827       -1.39102047373287       -0.58882843218793
C           -4.31833940192884       -0.49976871772796       -0.71368986527753
N           -0.94669501514982       -1.80421568074436       -0.12088907077931
C           -1.18338241003586       -3.20365016735008       -0.25731307632827
C           -1.41112230985321       -3.95733578207404        0.88560085078898
C           -1.65145165388137       -5.31655297612872        0.77461989088190
C           -1.66388412924811       -5.92134309448901       -0.47138019539106
C           -1.43577066358955       -5.16735402413790       -1.61158590782161
C           -1.19655845324227       -3.80820197811725       -1.50904096480837
C            0.33761836786640       -1.31842690227739       -0.16898934840668
C            1.41341896757749       -2.13580407393991       -0.53651459361354
C            2.68257954446173       -1.62274799757871       -0.65591052505654
C            2.93288195380912       -0.26490564279521       -0.43125650832678
C            4.25602773987300        0.30835950669351       -0.61201861899358
C            4.43434883848787        1.64114086101624       -0.95956496656727
C            5.68675263662633        2.22050790443059       -1.15359972503164
C            6.85960016151130        1.49744350567229       -1.00764695538322
C            8.11914685906845        2.08522430050890       -1.21162459051534
N            9.14120480865719        2.58151133752570       -1.38416096483318
C            6.74299810360383        0.13523705533288       -0.64605263324760
N            7.73421027098562       -0.72888442544602       -0.43848608572326
S            7.09822771086287       -2.15032208368719       -0.03003077710465
N            5.54619801635018       -1.73966938951256       -0.10197212496982
C            5.44339804497848       -0.45814929755314       -0.45497378133508
C            1.86195132076951        0.53413189207176       -0.01285749789597
C            0.58866839282522        0.02894828182803        0.14208306615776
C           -0.52327653376416        0.84890504735698        0.76727265461113
C           -0.28335258424519        2.32924404577860        0.51979775935193
C           -0.11656475902323        3.24937193411217        1.54452428754688
C            0.10187289438047        4.58800962984820        1.25832664971631
C            0.15418847999364        5.02351542628509       -0.05362113360557
C           -0.01161504261891        4.11081433849520       -1.08380387422973
C           -0.22720737714999        2.77611021397126       -0.79851485149471
C           -0.57019284196516        0.52914368529986        2.26710413288630
C            0.58693256705061        0.19753535977553        2.96322401324155
C            0.54395095286898       -0.08303397158569        4.31798302342346
C           -0.65726118970192       -0.03679418544846        5.00396869279523
C           -1.81387203189495        0.29965183340815        4.32220440779355
C           -1.77039291761464        0.58011965943522        2.96756089867962
H           -7.49088468786346       -1.82642757311917       -0.42842108943467
H           -5.96488025047712       -2.67407960161331       -0.14732177873188
H           -6.40294084169100       -1.28574316403858        0.85496223469790
H           -5.31271997633418       -2.31333445237449       -2.58856545079212
H           -6.83806691063804       -1.46692386417152       -2.87105165929210
H           -5.30585146232637       -0.67695422922928       -3.25866167223246
H           -8.36586837163908        0.32983275819186       -1.71302747918229
H           -8.93442008851540        2.72006708488271       -1.51778503545569
H           -7.25156899433269        4.35308141664596       -0.79558314277832
H           -4.95204162562765        3.62803699518844       -0.25049404784350
H           -2.75234855390865        2.35604430508392        0.25161743836536
H           -3.42100044134857       -2.43688357465780       -0.81218694557288
H           -1.39947766771945       -3.47305316776226        1.85112917985621
H           -1.82903614710148       -5.90298941011621        1.66363442182975
H           -1.85168819117596       -6.98129174070442       -0.55485382527658
H           -1.44583122927864       -5.63754982493468       -2.58373560155884
H           -1.02111887854194       -3.20995225075706       -2.39152063329447
H            1.24276550710697       -3.18185460186146       -0.73697860417290
H            3.49282757600595       -2.26992295170991       -0.94897933645633
H            3.56513534871259        2.26109076092560       -1.11443190159497
H            5.74945042315463        3.26192498091573       -1.43438196213697
H            2.04358757939149        1.56502461768189        0.25081702914712
H           -0.15557320188050        2.92545482804799        2.57396942608066
H            0.23043269320228        5.29171446332555        2.06829248945857
H            0.32332184733605        6.06743430219959       -0.27433038751002
H            0.02748141925590        4.44112738589991       -2.11195842854305
H           -0.35584932714921        2.06645480789616       -1.60400792987941
H            1.53577637263165        0.15891347964618        2.44924536490675
H            1.45640269314676       -0.33855443379930        4.83755947400522
H           -0.69104484915615       -0.25790239715229        6.06080056865895
H           -2.75814645808306        0.34568929530558        4.84549670486041
H           -2.68338095264794        0.84426726001140        2.45539120900009

          :  Hamiltonian                  GFN2-xTB          :
         :: gradient norm              0.000079542686 Eh/a0 ::
         :: HOMO-LUMO gap              0.894357313582 eV    ::
         :: SCC energy              -134.373139514982 Eh    ::
         :: -> dispersion             -0.129367845439 Eh    ::
         :: -> Gsolv                  -0.058353662337 Eh    ::
         :: repulsion energy           2.398153874157 Eh    ::

    * Orbital Energies and Occupations

         #    Occupation            Energy/Eh            Energy/eV
      -------------------------------------------------------------
         1        2.0000           -0.7716609             -20.9980
       ...           ...                  ...                  ...
       111        2.0000           -0.4147497             -11.2859
       112        2.0000           -0.4126445             -11.2286
       113        2.0000           -0.4124830             -11.2242
       114        2.0000           -0.4087759             -11.1234
       115        2.0000           -0.4076086             -11.0916
       116        2.0000           -0.4056950             -11.0395
       117        2.0000           -0.4048166             -11.0156
       118        2.0000           -0.4018925             -10.9361
       119        2.0000           -0.3980424             -10.8313
       120        2.0000           -0.3965563             -10.7908
       121        2.0000           -0.3916984             -10.6587
       122        2.0000           -0.3856149             -10.4931
       123        2.0000           -0.3533858              -9.6161 (HOMO)
       124                         -0.3205188              -8.7218 (LUMO)
       125                         -0.2664261              -7.2498
       126                         -0.2482833              -6.7561
       127                         -0.2387449              -6.4966
       128                         -0.2368372              -6.4447
       129                         -0.2344503              -6.3797
       130                         -0.2316748              -6.3042
       131                         -0.2284644              -6.2168
       132                         -0.2260608              -6.1514
       133                         -0.2256562              -6.1404
       134                         -0.2250477              -6.1239
       ...                                ...                  ...
       245                          1.1628875              31.6438
      -------------------------------------------------------------
                  HL-Gap            0.0328670 Eh            0.8944 eV

     #   Z          covCN         q      C6AA      α(0)
     1   6 C        3.758    -0.099    22.443     6.754
     2   6 C        3.935     0.019    20.192     6.386
     3   6 C        3.758    -0.099    22.450     6.755
     4   6 C        3.056    -0.003    28.039     8.684
     5   6 C        2.915    -0.035    28.872     8.811
     6   6 C        2.921    -0.035    28.884     8.813
     7   6 C        2.921    -0.035    28.868     8.811
     8   6 C        2.914    -0.037    28.915     8.818
     9   6 C        3.037    -0.001    28.026     8.683
    10   6 C        3.035    -0.012    28.270     8.721
    11   6 C        2.917    -0.040    29.002     8.831
    12   6 C        2.987    -0.011    28.275     8.722
    13   6 C        2.934     0.054    26.790     8.489
    14   6 C        2.918    -0.058    29.448     8.899
    15   6 C        3.054    -0.002    28.022     8.681
    16   7 N        2.755    -0.056    22.317     7.016
    17   6 C        2.927     0.065    26.552     8.450
    18   6 C        2.922    -0.036    28.891     8.815
    19   6 C        2.920    -0.026    28.644     8.777
    20   6 C        2.919    -0.028    28.708     8.786
    21   6 C        2.920    -0.027    28.678     8.782
    22   6 C        2.920    -0.037    28.916     8.818
    23   6 C        2.932     0.065    26.553     8.451
    24   6 C        2.919    -0.055    29.378     8.888
    25   6 C        2.922    -0.032    28.809     8.802
    26   6 C        2.972    -0.002    28.072     8.691
    27   6 C        2.964     0.007    27.868     8.659
    28   6 C        2.923    -0.043    29.076     8.843
    29   6 C        2.923    -0.023    28.574     8.766
    30   6 C        2.960    -0.012    28.314     8.728
    31   6 C        1.909     0.123    28.091     8.560
    32   7 N        0.911    -0.278    27.186     7.541
    33   6 C        3.358     0.086    23.343     7.592
    34   7 N        1.850    -0.292    28.419     7.901
    35  16 S        2.668     0.347   127.705    19.020
    36   7 N        1.855    -0.268    27.816     7.817
    37   6 C        3.332     0.072    24.134     7.791
    38   6 C        2.928    -0.039    28.968     8.826
    39   6 C        2.984    -0.007    28.192     8.710
    40   6 C        3.922     0.011    20.338     6.409
    41   6 C        2.977     0.014    27.696     8.633
    42   6 C        2.922    -0.036    28.907     8.817
    43   6 C        2.920    -0.031    28.775     8.797
    44   6 C        2.919    -0.033    28.825     8.804
    45   6 C        2.919    -0.031    28.782     8.798
    46   6 C        2.925    -0.033    28.819     8.804
    47   6 C        2.977     0.012    27.748     8.641
    48   6 C        2.924    -0.037    28.916     8.818
    49   6 C        2.919    -0.031    28.775     8.797
    50   6 C        2.919    -0.033    28.814     8.803
    51   6 C        2.919    -0.031    28.770     8.796
    52   6 C        2.924    -0.036    28.897     8.816
    53   1 H        0.925     0.044     2.392     2.419
    54   1 H        0.925     0.044     2.396     2.421
    55   1 H        0.925     0.035     2.518     2.482
    56   1 H        0.925     0.044     2.395     2.420
    57   1 H        0.925     0.044     2.394     2.420
    58   1 H        0.925     0.035     2.520     2.482
    59   1 H        0.926     0.030     2.591     2.517
    60   1 H        0.926     0.028     2.615     2.529
    61   1 H        0.926     0.027     2.634     2.538
    62   1 H        0.926     0.027     2.634     2.538
    63   1 H        0.926     0.032     2.559     2.502
    64   1 H        0.926     0.035     2.517     2.481
    65   1 H        0.926     0.043     2.410     2.428
    66   1 H        0.926     0.045     2.379     2.412
    67   1 H        0.926     0.045     2.387     2.416
    68   1 H        0.926     0.045     2.382     2.414
    69   1 H        0.926     0.044     2.392     2.419
    70   1 H        0.926     0.040     2.443     2.444
    71   1 H        0.926     0.052     2.298     2.371
    72   1 H        0.926     0.055     2.256     2.349
    73   1 H        0.926     0.049     2.333     2.388
    74   1 H        0.926     0.038     2.473     2.459
    75   1 H        0.926     0.031     2.579     2.511
    76   1 H        0.926     0.031     2.579     2.511
    77   1 H        0.926     0.031     2.575     2.509
    78   1 H        0.926     0.031     2.569     2.507
    79   1 H        0.926     0.029     2.605     2.524
    80   1 H        0.926     0.029     2.600     2.522
    81   1 H        0.926     0.030     2.586     2.515
    82   1 H        0.926     0.032     2.562     2.503
    83   1 H        0.926     0.032     2.558     2.501
    84   1 H        0.926     0.034     2.536     2.490

molecular dipole:
                 x           y           z       tot (Debye)
 q only:       -3.759      -2.349       0.248
   full:       -4.070      -2.135       0.261      11.700

 projected vibrational frequencies (cm⁻¹)
eigval :       -0.00    -0.00    -0.00     0.00     0.00     0.00
eigval :       10.86    16.82    19.78    22.09    25.71    30.34
eigval :       33.39    39.59    43.96    53.20    57.21    62.02
eigval :       65.63    72.98    87.42   100.55   104.30   107.02
eigval :      119.49   137.46   146.31   156.19   160.77   181.56
eigval :      186.20   200.10   206.14   213.91   216.77   234.31
eigval :      234.99   242.13   249.00   255.02   268.98   274.71
eigval :      287.97   303.09   314.08   324.83   329.62   339.44
eigval :      370.55   372.55   375.68   386.97   393.73   401.54
eigval :      410.26   423.81   439.69   445.15   459.34   464.86
eigval :      469.79   483.13   486.62   499.64   507.87   518.12
eigval :      525.44   533.16   546.54   550.68   566.37   572.18
eigval :      585.88   588.42   591.19   591.85   593.86   595.57
eigval :      603.90   618.08   625.05   628.72   650.40   662.23
eigval :      668.20   670.01   673.61   681.44   689.05   699.36
eigval :      701.76   722.27   728.11   731.16   748.70   755.55
eigval :      756.42   775.23   780.57   792.29   817.68   825.11
eigval :      829.48   855.63   860.25   876.09   879.22   879.33
eigval :      881.94   882.59   885.71   889.14   899.42   901.16
eigval :      902.45   903.34   907.55   908.92   911.87   914.47
eigval :      916.65   928.15   931.17   931.26   932.18   933.06
eigval :      933.10   934.22   946.36   950.36   966.22   979.92
eigval :      984.34   997.42  1000.02  1012.46  1012.91  1060.91
eigval :     1068.67  1076.87  1077.67  1087.54  1091.56  1112.41
eigval :     1116.70  1124.30  1127.83  1130.71  1138.63  1150.67
eigval :     1159.74  1173.25  1175.98  1180.64  1181.02  1181.46
eigval :     1183.34  1190.65  1197.70  1201.28  1205.11  1212.78
eigval :     1216.95  1223.45  1234.95  1236.68  1241.65  1259.89
eigval :     1264.28  1270.44  1272.32  1279.93  1288.97  1290.78
eigval :     1303.25  1308.07  1309.61  1315.29  1316.99  1324.14
eigval :     1329.34  1334.54  1342.90  1359.23  1370.21  1378.15
eigval :     1391.78  1408.45  1419.41  1425.72  1429.99  1431.47
eigval :     1433.12  1443.48  1458.02  1466.40  1469.89  1472.39
eigval :     1474.54  1478.27  1483.54  1486.58  1494.65  1498.47
eigval :     1499.80  1512.78  1534.87  1544.47  1571.15  1582.33
eigval :     1583.22  1585.43  1586.82  1591.13  1593.37  1597.44
eigval :     1599.77  1600.99  1608.92  2348.17  3025.38  3028.91
eigval :     3029.95  3031.79  3036.51  3039.19  3064.51  3066.32
eigval :     3068.51  3068.85  3069.81  3071.78  3075.41  3075.99
eigval :     3076.98  3080.38  3083.62  3084.36  3084.76  3085.19
eigval :     3085.42  3089.38  3090.25  3090.51  3091.55  3092.11
eigval :     3095.72  3098.51  3101.14  3101.52  3105.01  3118.58

   temp. (K)  partition function   enthalpy   heat capacity  entropy
                                   cal/mol     cal/K/mol   cal/K/mol   J/K/mol
 298.15  VIB  0.437E+20            25030.723    155.118    156.006
         ROT  0.946E+08              888.752      2.981     39.478
         INT  0.413E+28            25919.475    158.099    195.484
         TR   0.173E+29             1481.254      4.968     45.433
         TOT                       27400.7292   163.0672   240.9164  1007.9942

       T/K    H(0)-H(T)+PV         H(T)/Eh          T*S/Eh         G(T)/Eh
   ------------------------------------------------------------------------
    298.15    0.436658E-01    0.683247E+00    0.114467E+00    0.568780E+00
   ------------------------------------------------------------------------

         :::::::::::::::::::::::::::::::::::::::::::::::::::::
         ::                  THERMODYNAMIC                  ::
         :::::::::::::::::::::::::::::::::::::::::::::::::::::
         :: total free energy        -131.406205359002 Eh   ::
         ::.................................................::
         :: total energy             -131.974985643529 Eh   ::
         :: zero point energy           0.639581601740 Eh   ::
         :: G(RRHO) w/o ZPVE           -0.070801317213 Eh   ::
         :: G(RRHO) contrib.            0.568780284527 Eh   ::
         :::::::::::::::::::::::::::::::::::::::::::::::::::::

           -------------------------------------------------
          | TOTAL ENERGY             -131.974985643529 Eh   |
          | TOTAL ENTHALPY           -131.291738200299 Eh   |
          | TOTAL FREE ENERGY        -131.406205359002 Eh   |
          | GRADIENT NORM               0.000079607290 Eh/α |
          | HOMO-LUMO GAP               0.894357542486 eV   |
           -------------------------------------------------

 * finished run on 2025/07/20 at 01:26:23.333
