   * xtb version 6.7.1 (edcfbbe) compiled by 'albert@albert-system' on 2024-07-22

   ID    Z sym.   atoms
    1    6 C      1-15, 17-31, 33, 37-52
    2    7 N      16, 32, 34, 36
    3   16 S      35
    4    1 H      53-84

          program call               : xtb data2507/toluene/IABTCN/IABTCN_toluene_T1_crest.xyz --gfn 2 --uhf 2 --gbsa toluene --ohess vtight --parallel 40 --molden --ceasefiles --namespace data2507/toluene/IABTCN/IABTCN_toluene_T1_finalOpt
      * Solvation model:               GBSA
        Solvent                        toluene
        Solvent mass                       9.2140E+01 g/mol
          :  Hamiltonian                  GFN2-xTB          :
 * total energy  :  -131.9230468 Eh     change       -0.5059547E-08 Eh
 * total energy  :  -131.9231889 Eh     change       -0.1420810E-03 Eh
 * total energy  :  -131.9232382 Eh     change       -0.4926045E-04 Eh
 * total energy  :  -131.9232132 Eh     change        0.2498147E-04 Eh
 * total energy  :  -131.9232562 Eh     change       -0.4303425E-04 Eh
 * total energy  :  -131.9232647 Eh     change       -0.8451312E-05 Eh
 * total energy  :  -131.9232904 Eh     change       -0.2568132E-04 Eh
 * total energy  :  -131.9233108 Eh     change       -0.2037718E-04 Eh
 * total energy  :  -131.9233383 Eh     change       -0.2751975E-04 Eh
 * total energy  :  -131.9233693 Eh     change       -0.3102952E-04 Eh
 * total energy  :  -131.9235158 Eh     change       -0.4045073E-06 Eh
 * total energy  :  -131.9235158 Eh     change       -0.2027130E-07 Eh
 * total energy  :  -131.9235161 Eh     change       -0.2429397E-06 Eh
 * total energy  :  -131.9235164 Eh     change       -0.2929387E-06 Eh
 * total energy  :  -131.9235163 Eh     change        0.3215010E-07 Eh
 * total energy  :  -131.9235162 Eh     change        0.1318493E-06 Eh
 * total energy  :  -131.9235166 Eh     change       -0.3860759E-06 Eh
 * total energy  :  -131.9235166 Eh     change        0.2443497E-07 Eh
 * total energy  :  -131.9235166 Eh     change       -0.6652439E-07 Eh
   *** GEOMETRY OPTIMIZATION CONVERGED AFTER 45 ITERATIONS ***

 final structure:
================
84
 xtb: 6.7.1 (edcfbbe)
C           -6.41856459652643       -1.80965136197605       -0.04909927567351
C           -5.74106300062928       -0.91867044923367       -1.09655195481181
C           -5.79722109895821       -1.58023520740934       -2.47803957985109
C           -6.35734956297765        0.46303520643423       -1.12556025141228
C           -7.65132109010029        0.82803976254744       -1.42752272399603
C           -7.99359742641461        2.17438750665668       -1.39219930275119
C           -7.05455714705397        3.14171587725667       -1.05920103396537
C           -5.75246176458207        2.78710431133032       -0.75206989482103
C           -5.40700664846479        1.44263705117272       -0.78596281057910
C           -4.14851031749764        0.78475460468862       -0.51600198062343
C           -2.92212030496561        1.29487798212922       -0.11374762783273
C           -1.85299392160311        0.43897974273637        0.08694992798937
C           -2.01382909267276       -0.94397201843599       -0.13633679248405
C           -3.26790323620387       -1.46011497432482       -0.51071593212171
C           -4.31829480578084       -0.60211753779724       -0.69654249263050
N           -0.93257260686161       -1.78795773682187       -0.02513613138208
C           -1.15240304200591       -3.19865752337605       -0.05748928992074
C           -1.43064972775521       -3.85954207881885        1.13106029471227
C           -1.65277158075783       -5.22621861132652        1.11526663546139
C           -1.59863308245074       -5.92719110654298       -0.07828025330596
C           -1.32092405124291       -5.26279379120020       -1.26243337718978
C           -1.09734111276069       -3.89703265082341       -1.25766698715244
C            0.34928987570506       -1.30529372310452       -0.01911583791218
C            1.45081055289181       -2.15458120898539       -0.23333784193707
C            2.71718732681686       -1.65153545918274       -0.34125160797925
C            2.96963977110876       -0.26171475490869       -0.25847956401018
C            4.28473714209826        0.27858133689695       -0.43484661135030
C            4.48324002951698        1.66578327539769       -0.69118925996724
C            5.71408309262638        2.23375411742721       -0.85738309707349
C            6.90235684488726        1.46824275952562       -0.76861003361317
C            8.15038841005397        2.06263164307491       -0.92586896301229
N            9.17186959722368        2.58507059124090       -1.05882802254457
C            6.77112166625874        0.08545734236317       -0.52574688008986
N            7.76964598432933       -0.78136423118466       -0.41146977288213
S            7.13569059358856       -2.26675943038621       -0.13687417438893
N            5.54654473565435       -1.82268799348637       -0.15539628719147
C            5.46426573734377       -0.51639838229505       -0.37698326583384
C            1.86216572471298        0.56594992269895        0.03216400829097
C            0.58742178203849        0.07340748387040        0.17005758553451
C           -0.54928421666675        0.94189978944316        0.66602693123100
C           -0.32790924619893        2.39267962893745        0.26432694698617
C           -0.26146123714476        3.42983903974191        1.18288467448579
C           -0.05965457492813        4.73273675137109        0.75479941650197
C            0.07347241245321        5.01370596392135       -0.59327955207927
C            0.00143479827557        3.98325410734502       -1.51758467553098
C           -0.19873351867664        2.68402027678810       -1.09149798415964
C           -0.59889907772542        0.78141964896586        2.19685320000172
C            0.57975173878324        0.73187080408471        2.93390267563905
C            0.54991096332470        0.60001575820851        4.31099229488130
C           -0.65963664045746        0.51365452506067        4.97914907874648
C           -1.83743489375412        0.56997712993431        4.25561773349776
C           -1.80825840062850        0.70337325780963        2.87741058367197
H           -7.46160941115822       -1.96859143275559       -0.31038246402966
H           -5.92094303921015       -2.77490150963553        0.00233107688522
H           -6.37376130399174       -1.34085700101474        0.93179425550420
H           -5.28779231293366       -2.54042815725577       -2.45700618577917
H           -6.83061074045612       -1.74092961317358       -2.77437529940160
H           -5.31845321017276       -0.94621665487876       -3.22152555909115
H           -8.39287713557997        0.08780744276488       -1.68891393508651
H           -9.00443996752963        2.47368330252178       -1.62825472227031
H           -7.34553878716980        4.18194557296789       -1.04014086636733
H           -5.02142988296884        3.53877546350611       -0.49395060561623
H           -2.80108870573114        2.35259605886538        0.06075094116489
H           -3.38576010717355       -2.52104169444076       -0.66075065738520
H           -1.46842522964053       -3.30262509327495        2.05540971779372
H           -1.86724871554620       -5.74226322170153        2.03860766764630
H           -1.77163391662701       -6.99255727768944       -0.08651390337982
H           -1.27810988718433       -5.80736833132576       -2.19341053460038
H           -0.88121388503177       -3.36886093184075       -2.17451398870238
H            1.29213218395561       -3.21704437868051       -0.32971549061074
H            3.54980436444654       -2.31385294182605       -0.50949271386972
H            3.61884278009900        2.30152090314986       -0.79943628172939
H            5.80517508831013        3.29032366515544       -1.06502482056564
H            2.01817443991451        1.62065154684924        0.19333741748445
H           -0.36452201843970        3.22760698207459        2.23841663003917
H           -0.00610126304031        5.53013182013481        1.48183172960383
H            0.23314398915504        6.02954344866701       -0.92385762706979
H            0.10377105592671        4.19302100619347       -2.57244578019330
H           -0.25085363665747        1.88245967730907       -1.81477836734670
H            1.53507302309614        0.80056922624275        2.43600844104986
H            1.47920553095797        0.56541050509584        4.86094232275130
H           -0.68191732090186        0.40707111176829        6.05363315189508
H           -2.78934198408619        0.51210762756617        4.76310739807813
H           -2.74194441077329        0.75327835782662        2.33893780507723

          :  Hamiltonian                  GFN2-xTB          :
         :: gradient norm              0.000112427026 Eh/a0 ::
         :: HOMO-LUMO gap              1.022785096679 eV    ::
         :: SCC energy              -134.307517860476 Eh    ::
         :: -> dispersion             -0.128931483585 Eh    ::
         :: -> Gsolv                  -0.072952357038 Eh    ::
         :: repulsion energy           2.384001200428 Eh    ::

    * Orbital Energies and Occupations

         #    Occupation            Energy/Eh            Energy/eV
      -------------------------------------------------------------
         1        2.0000           -0.7315256             -19.9058
       ...           ...                  ...                  ...
       112        2.0000           -0.4143375             -11.2747
       113        2.0000           -0.4125714             -11.2266
       114        2.0000           -0.4108096             -11.1787
       115        2.0000           -0.4079676             -11.1014
       116        2.0000           -0.4061711             -11.0525
       117        2.0000           -0.4028695             -10.9626
       118        2.0000           -0.4023326             -10.9480
       119        2.0000           -0.3979264             -10.8281
       120        2.0000           -0.3931298             -10.6976
       121        2.0000           -0.3897431             -10.6054
       122        2.0000           -0.3824372             -10.4066
       123        1.0000           -0.3625039              -9.8642
       124        1.0000           -0.3036568              -8.2629 (HOMO)
       125                         -0.2660703              -7.2401 (LUMO)
       126                         -0.2494701              -6.7884
       127                         -0.2475218              -6.7354
       128                         -0.2451894              -6.6719
       129                         -0.2413360              -6.5671
       130                         -0.2376420              -6.4666
       131                         -0.2320386              -6.3141
       132                         -0.2308275              -6.2811
       133                         -0.2291558              -6.2356
       134                         -0.2287201              -6.2238
       135                         -0.2282238              -6.2103
       ...                                ...                  ...
       245                          1.1695812              31.8259
      -------------------------------------------------------------
                  HL-Gap            0.0375865 Eh            1.0228 eV

     #   Z          covCN         q      C6AA      α(0)
     1   6 C        3.758    -0.103    22.521     6.766
     2   6 C        3.934     0.021    20.151     6.379
     3   6 C        3.758    -0.103    22.521     6.766
     4   6 C        3.057     0.004    27.873     8.658
     5   6 C        2.914    -0.032    28.787     8.798
     6   6 C        2.922    -0.027    28.688     8.783
     7   6 C        2.920    -0.031    28.767     8.795
     8   6 C        2.913    -0.031    28.770     8.796
     9   6 C        3.036     0.003    27.918     8.667
    10   6 C        3.035     0.005    27.873     8.660
    11   6 C        2.915    -0.035    28.873     8.811
    12   6 C        2.985     0.001    27.999     8.680
    13   6 C        2.935     0.055    26.770     8.485
    14   6 C        2.916    -0.050    29.239     8.867
    15   6 C        3.052     0.007    27.821     8.650
    16   7 N        2.755     0.001    21.247     6.846
    17   6 C        2.931     0.058    26.708     8.475
    18   6 C        2.921    -0.033    28.819     8.803
    19   6 C        2.920    -0.022    28.567     8.765
    20   6 C        2.919    -0.025    28.618     8.772
    21   6 C        2.920    -0.024    28.592     8.769
    22   6 C        2.920    -0.034    28.850     8.808
    23   6 C        2.933     0.056    26.755     8.483
    24   6 C        2.914    -0.044    29.091     8.844
    25   6 C        2.920    -0.037    28.917     8.818
    26   6 C        2.968     0.021    27.537     8.607
    27   6 C        2.963    -0.029    28.711     8.789
    28   6 C        2.916    -0.045    29.129     8.850
    29   6 C        2.916    -0.043    29.078     8.843
    30   6 C        2.961    -0.026    28.649     8.779
    31   6 C        1.909     0.117    28.223     8.580
    32   7 N        0.911    -0.322    28.271     7.690
    33   6 C        3.320     0.099    23.832     7.772
    34   7 N        1.847    -0.321    29.182     8.006
    35  16 S        2.590     0.161   134.669    19.532
    36   7 N        1.852    -0.305    28.749     7.947
    37   6 C        3.275     0.082    24.877     8.035
    38   6 C        2.925    -0.041    29.020     8.834
    39   6 C        2.981     0.003    27.950     8.672
    40   6 C        3.922     0.011    20.327     6.408
    41   6 C        2.977     0.013    27.711     8.635
    42   6 C        2.922    -0.036    28.889     8.814
    43   6 C        2.920    -0.030    28.744     8.792
    44   6 C        2.919    -0.031    28.779     8.797
    45   6 C        2.919    -0.030    28.745     8.792
    46   6 C        2.925    -0.033    28.829     8.805
    47   6 C        2.978     0.013    27.707     8.634
    48   6 C        2.924    -0.035    28.877     8.812
    49   6 C        2.920    -0.029    28.720     8.788
    50   6 C        2.919    -0.030    28.756     8.794
    51   6 C        2.920    -0.030    28.739     8.791
    52   6 C        2.923    -0.037    28.917     8.819
    53   1 H        0.925     0.050     2.322     2.383
    54   1 H        0.925     0.049     2.327     2.386
    55   1 H        0.925     0.039     2.460     2.453
    56   1 H        0.925     0.049     2.330     2.387
    57   1 H        0.925     0.050     2.324     2.384
    58   1 H        0.925     0.039     2.469     2.457
    59   1 H        0.926     0.039     2.458     2.452
    60   1 H        0.926     0.037     2.484     2.465
    61   1 H        0.926     0.035     2.511     2.478
    62   1 H        0.926     0.037     2.489     2.467
    63   1 H        0.926     0.048     2.347     2.396
    64   1 H        0.926     0.052     2.290     2.366
    65   1 H        0.926     0.050     2.325     2.384
    66   1 H        0.926     0.053     2.286     2.364
    67   1 H        0.926     0.051     2.307     2.375
    68   1 H        0.926     0.052     2.290     2.366
    69   1 H        0.926     0.051     2.306     2.375
    70   1 H        0.926     0.051     2.308     2.376
    71   1 H        0.926     0.068     2.107     2.270
    72   1 H        0.926     0.039     2.460     2.453
    73   1 H        0.926     0.025     2.656     2.548
    74   1 H        0.926     0.044     2.394     2.420
    75   1 H        0.926     0.035     2.517     2.481
    76   1 H        0.926     0.033     2.539     2.492
    77   1 H        0.926     0.033     2.546     2.495
    78   1 H        0.926     0.034     2.537     2.491
    79   1 H        0.926     0.031     2.578     2.511
    80   1 H        0.926     0.032     2.552     2.498
    81   1 H        0.926     0.032     2.557     2.500
    82   1 H        0.926     0.036     2.508     2.476
    83   1 H        0.926     0.038     2.474     2.460
    84   1 H        0.926     0.039     2.466     2.456

molecular dipole:
                 x           y           z       tot (Debye)
 q only:      -10.453      -2.408       0.496
   full:      -10.622      -2.031       0.500      27.518

 projected vibrational frequencies (cm⁻¹)
eigval :       -0.00    -0.00    -0.00    -0.00     0.00     0.00
eigval :       11.51    16.19    20.07    22.00    23.95    31.26
eigval :       33.71    38.05    45.92    51.61    54.02    60.16
eigval :       63.26    73.99    85.99   102.47   104.06   107.13
eigval :      117.14   129.20   146.21   154.43   162.27   184.70
eigval :      188.32   199.60   203.17   211.57   215.96   231.97
eigval :      232.77   236.36   247.27   254.26   266.16   273.50
eigval :      285.94   296.43   307.55   318.24   324.19   340.35
eigval :      365.25   371.22   374.75   378.96   388.68   398.63
eigval :      399.79   406.33   430.07   434.87   439.43   460.98
eigval :      463.36   472.50   479.60   504.65   508.66   517.96
eigval :      519.67   531.85   540.71   542.90   563.00   564.00
eigval :      573.91   585.20   588.58   591.69   592.03   593.71
eigval :      599.00   608.01   617.74   622.12   650.93   661.33
eigval :      666.43   668.62   670.87   678.49   686.39   694.72
eigval :      701.60   713.74   723.90   725.13   737.68   754.98
eigval :      755.64   769.30   775.88   785.85   786.21   794.78
eigval :      817.37   823.16   830.85   855.48   868.21   874.67
eigval :      875.64   876.87   877.91   879.33   881.58   893.36
eigval :      901.61   902.94   906.65   908.56   910.27   910.96
eigval :      913.52   928.98   929.92   930.54   931.27   932.96
eigval :      935.28   935.64   941.79   949.09   967.21   977.77
eigval :      982.22   994.77   997.46  1005.62  1013.08  1050.10
eigval :     1068.12  1074.06  1078.19  1086.37  1092.32  1111.81
eigval :     1115.94  1122.27  1126.28  1131.22  1133.11  1147.24
eigval :     1159.80  1171.67  1178.30  1179.05  1179.58  1180.47
eigval :     1182.41  1185.15  1192.34  1198.30  1202.44  1211.93
eigval :     1214.28  1217.18  1230.08  1234.33  1237.87  1251.74
eigval :     1265.19  1268.19  1272.33  1275.24  1285.46  1287.68
eigval :     1291.26  1307.47  1313.79  1315.59  1317.13  1318.33
eigval :     1330.53  1336.69  1345.33  1358.12  1375.02  1393.02
eigval :     1404.06  1410.35  1417.35  1424.87  1428.84  1429.68
eigval :     1431.30  1436.23  1443.12  1451.39  1454.80  1459.59
eigval :     1464.65  1469.05  1469.49  1472.74  1480.97  1484.19
eigval :     1487.11  1491.81  1497.97  1534.87  1541.54  1569.42
eigval :     1581.06  1581.48  1584.05  1584.47  1586.33  1587.80
eigval :     1594.42  1598.83  1600.87  2291.04  3029.93  3032.89
eigval :     3035.92  3037.66  3042.52  3045.18  3069.73  3072.95
eigval :     3072.99  3073.32  3076.05  3077.01  3077.95  3079.44
eigval :     3084.63  3084.79  3086.91  3087.69  3088.28  3091.48
eigval :     3092.08  3095.20  3096.21  3096.97  3099.85  3102.86
eigval :     3103.08  3103.40  3103.94  3108.39  3108.95  3125.78

   temp. (K)  partition function   enthalpy   heat capacity  entropy
                                   cal/mol     cal/K/mol   cal/K/mol   J/K/mol
 298.15  VIB  0.647E+20            25245.142    156.147    157.302
         ROT  0.948E+08              888.752      2.981     39.481
         INT  0.613E+28            26133.894    159.127    196.783
         TR   0.173E+29             1481.254      4.968     45.433
         TOT                       27615.1480   164.0956   242.2156  1013.4303

       T/K    H(0)-H(T)+PV         H(T)/Eh          T*S/Eh         G(T)/Eh
   ------------------------------------------------------------------------
    298.15    0.440075E-01    0.681662E+00    0.115084E+00    0.566577E+00
   ------------------------------------------------------------------------

         :::::::::::::::::::::::::::::::::::::::::::::::::::::
         ::                  THERMODYNAMIC                  ::
         :::::::::::::::::::::::::::::::::::::::::::::::::::::
         :: total free energy        -131.356939434980 Eh   ::
         ::.................................................::
         :: total energy             -131.923516663929 Eh   ::
         :: zero point energy           0.637654158884 Eh   ::
         :: G(RRHO) w/o ZPVE           -0.071076929934 Eh   ::
         :: G(RRHO) contrib.            0.566577228950 Eh   ::
         :::::::::::::::::::::::::::::::::::::::::::::::::::::

           -------------------------------------------------
          | TOTAL ENERGY             -131.923516663929 Eh   |
          | TOTAL ENTHALPY           -131.241854965489 Eh   |
          | TOTAL FREE ENERGY        -131.356939434980 Eh   |
          | GRADIENT NORM               0.000112326917 Eh/α |
          | HOMO-LUMO GAP               1.022780685363 eV   |
           -------------------------------------------------

 * finished run on 2025/07/20 at 01:32:18.999
