   * xtb version 6.7.1 (edcfbbe) compiled by 'albert@albert-system' on 2024-07-22

   ID    Z sym.   atoms
    1    7 N      1, 5, 15, 39
    2    6 C      2-4, 6-14, 16-38, 40-56
    3    1 H      57-90

          program call               : xtb data2507/gas/36DTPAFM/36DTPAFM_gas_S0_finalOpt.xtbopt.xyz --gfn 2 --spinpol --tblite --uhf 2 --ohess vtight --parallel 40 --molden --ceasefiles --namespace data2507/gas/36DTPAFM/36DTPAFM_gas_T1_preOpt
 * total energy  :  -140.2531187 Eh     change       -0.2798183E-07 Eh
 * total energy  :  -140.2573500 Eh     change       -0.4231277E-02 Eh
 * total energy  :  -140.2582914 Eh     change       -0.9414390E-03 Eh
 * total energy  :  -140.2583320 Eh     change       -0.4056311E-04 Eh
 * total energy  :  -140.2582962 Eh     change        0.3580902E-04 Eh
 * total energy  :  -140.2583474 Eh     change       -0.5121740E-04 Eh
 * total energy  :  -140.2583486 Eh     change       -0.1257101E-05 Eh
 * total energy  :  -140.2583740 Eh     change       -0.2534175E-04 Eh
 * total energy  :  -140.2583794 Eh     change       -0.5393820E-05 Eh
 * total energy  :  -140.2583872 Eh     change       -0.7819559E-05 Eh
 * total energy  :  -140.2584487 Eh     change       -0.1222640E-05 Eh
 * total energy  :  -140.2584498 Eh     change       -0.1171233E-05 Eh
 * total energy  :  -140.2584512 Eh     change       -0.1341606E-05 Eh
 * total energy  :  -140.2584534 Eh     change       -0.2263144E-05 Eh
 * total energy  :  -140.2584555 Eh     change       -0.2122826E-05 Eh
 * total energy  :  -140.2584572 Eh     change       -0.1667482E-05 Eh
 * total energy  :  -140.2584584 Eh     change       -0.1163392E-05 Eh
 * total energy  :  -140.2584594 Eh     change       -0.1046913E-05 Eh
 * total energy  :  -140.2584594 Eh     change       -0.2595982E-08 Eh
   *** GEOMETRY OPTIMIZATION CONVERGED AFTER 44 ITERATIONS ***

 final structure:
================
90
 xtb: 6.7.1 (edcfbbe)
N           -2.08858150602838       -7.95894922557238       -0.16108275744057
C           -1.15948179626550       -7.27586274311129       -0.09054449291036
C           -0.00212648479203       -6.50863837422152       -0.00595485237731
C            1.15506638934639       -7.27616768357831        0.07819594211307
N            2.08401815157503       -7.95947662028615        0.14844832576478
C           -0.00196762016406       -5.07928977547843       -0.00522686438480
C           -1.15229658114923       -4.23528412020490       -0.01036389467157
C           -2.52339837123910       -4.51195858198219       -0.01869598555448
C           -3.41945180947707       -3.46936998081597       -0.02961041854734
C           -3.00383564233808       -2.12321064558202       -0.01338933737434
C           -3.98323025990261       -1.04726589641517       -0.01112659769298
C           -5.20253329388164       -1.17162591714386       -0.68956200389122
C           -6.12761144889636       -0.15442126372400       -0.69188530099390
C           -5.87744884422083        1.03611925083428       -0.00145499045300
N           -6.81479712084013        2.06555864820151        0.00430397128740
C           -8.18367227349664        1.77107395838563       -0.01488302592165
C           -8.68345042382346        0.68615792781234        0.70590947262011
C          -10.03466802056013        0.40147376532852        0.68213021388619
C          -10.90547560738464        1.19185016843905       -0.05079797832947
C          -10.41387798017664        2.27276998335670       -0.76505554510972
C           -9.06372480149047        2.56310826975284       -0.75274502022598
C           -6.39667929438594        3.40064546938464        0.03115724221303
C           -5.26737932642439        3.80298301266361       -0.68288107416573
C           -4.85995491965115        5.12215273731577       -0.65079231018505
C           -5.57016541909030        6.05853600137867        0.08332414806902
C           -6.69509941452333        5.66460168102101        0.79012625059979
C           -7.10789011174859        4.34691055925889        0.76988235873126
C           -4.66544378971513        1.16914963223508        0.68395607235262
C           -3.74084587616292        0.15159369428460        0.67191992105383
C           -1.63207099888084       -1.83840341635414        0.00499278915241
C           -0.72254774923802       -2.86969361146301       -0.00200244124565
C            0.71921989420230       -2.86987424993587       -0.00439973138668
C            1.62901268367576       -1.83881259951319       -0.00934590407543
C            3.00073667093703       -2.12399318980250        0.00788273957631
C            3.98065132858856       -1.04856185185975        0.00814659957596
C            5.20090467565609       -1.17641101927514        0.68430040400578
C            6.12697603613718       -0.16017411154817        0.68869824208823
C            5.87684565698771        1.03313047067499        0.00303671279606
N            6.81580972382786        2.06113006206001       -0.00081620331660
C            6.40044454104975        3.39708310471699       -0.02083618036854
C            5.27238665217139        3.79832612883984        0.69581548773704
C            4.86787321616113        5.11853813081527        0.67062846541773
C            5.57979933117985        6.05710460097519       -0.05902393151395
C            6.70348712833515        5.66425988839700       -0.76841112976274
C            7.11332404336011        4.34557039722676       -0.75514613688878
C            8.18412080506543        1.76343418269584        0.01359393053871
C            9.06777832300733        2.54896039986741        0.75405065508332
C           10.41720090612740        2.25503070951381        0.76173821819386
C           10.90442875457026        1.17700108494107        0.04015509381825
C           10.03000517478131        0.39311997571806       -0.69543994956169
C            8.67948362870218        0.68140814637221       -0.71454023377938
C            4.66372495615406        1.16996187792955       -0.67961576509501
C            3.73825323190630        0.15314353672891       -0.66993349537823
C            3.41591140299588       -3.47038535916658        0.02062257277384
C            2.51960012938651       -4.51268744024056        0.00807329693686
C            1.14855369821413       -4.23563007539978        0.00115707908861
H           -2.88100108712981       -5.52932509861049       -0.01416712478293
H           -4.47675521499238       -3.68818560522616       -0.01202193548244
H           -5.40615213272097       -2.06747797009765       -1.25592611822291
H           -7.04921187202675       -0.26201941809395       -1.24499414557204
H           -8.00708880527915        0.07830755153678        1.28854401693987
H          -10.41106342215413       -0.43844519378602        1.24652434901101
H          -11.96080215389013        0.96701920813459       -0.06506761890886
H          -11.08537029296768        2.88994734237512       -1.34303591904747
H           -8.67929267422044        3.39842054229015       -1.31947280487269
H           -4.72207097037296        3.07680201760474       -1.26750469496209
H           -3.98663901824395        5.42267616772839       -1.21027708025253
H           -5.24966300068284        7.08880594430822        0.10378958683893
H           -7.25112805212066        6.38722532502481        1.36849577161606
H           -7.97760134999255        4.03848457469096        1.33113678297177
H           -4.46923141516021        2.07288737152718        1.24244073124490
H           -2.82788704620674        0.26603747923171        1.23651205488371
H           -1.29139707291234       -0.81314229661043       -0.01141122452661
H            1.28853766394372       -0.81353197959504        0.00950608263056
H            5.40460685725597       -2.07440278624654        1.24721518154086
H            7.04946145995947       -0.27070615910860        1.23974965536980
H            4.72580506999919        3.07046203924280        1.27714289256480
H            3.99548916254692        5.41813328418145        1.23206436506397
H            5.26158669774207        7.08817741508209       -0.07405635276584
H            7.26085964474555        6.38858352634962       -1.34335313856352
H            7.98203945517711        4.03812811590941       -1.31847522599886
H            8.68671249229981        3.38195920965383        1.32642953529920
H           11.09156534295434        2.86707723036071        1.34182430385666
H           11.95919840376953        0.94937339055442        0.05080228143299
H           10.40298888999665       -0.44446693733536       -1.26553400985814
H            8.00020135864625        0.07863155043913       -1.29905012035413
H            4.46738748648420        2.07601977819375       -1.23429104416773
H            2.82451657528354        0.27059817160158       -1.23264128249232
H            4.47311079089591       -3.68955199077924        0.00167232531749
H            2.87693622821149       -5.53013216266561        0.00106605684327

 projected vibrational frequencies (cm⁻¹)
eigval :       -0.00    -0.00    -0.00    -0.00     0.00     0.00
eigval :        8.67     9.18    10.30    13.12    17.43    23.09
eigval :       24.65    38.30    43.26    47.36    49.69    53.04
eigval :       56.97    63.30    68.55    74.36    78.71    87.63
eigval :      103.03   104.37   107.33   116.51   120.84   129.09
eigval :      151.35   155.66   167.09   177.55   202.34   212.37
eigval :      224.70   226.58   231.59   234.18   242.60   274.17
eigval :      297.89   304.28   310.23   320.00   321.03   341.53
eigval :      347.06   368.08   374.53   376.97   377.23   377.32
eigval :      379.34   380.95   389.58   390.17   391.85   403.24
eigval :      406.24   409.13   424.78   444.02   449.27   450.95
eigval :      464.30   481.19   492.48   492.82   510.43   510.48
eigval :      516.08   542.82   551.09   580.43   582.40   582.83
eigval :      584.71   590.64   591.51   591.80   593.00   594.24
eigval :      601.56   613.28   616.51   620.23   622.65   659.82
eigval :      660.02   660.53   664.92   679.36   681.48   687.24
eigval :      692.69   700.01   705.52   725.58   745.80   757.75
eigval :      757.82   760.63   763.01   807.56   807.77   826.89
eigval :      827.17   851.51   857.55   860.32   864.06   868.29
eigval :      873.43   873.49   874.67   875.23   894.93   895.79
eigval :      896.02   896.75   899.85   907.77   907.95   909.97
eigval :      910.00   913.38   917.63   918.10   918.45   925.26
eigval :      927.50   928.31   928.32   929.41   929.70   929.83
eigval :      929.90   930.00   930.69   931.73   978.03   983.40
eigval :      999.03  1004.21  1004.22  1014.53  1026.81  1063.32
eigval :     1066.01  1081.93  1081.97  1082.94  1082.95  1108.97
eigval :     1121.71  1121.72  1123.78  1123.79  1132.96  1146.00
eigval :     1146.19  1179.81  1179.83  1179.96  1180.02  1180.34
eigval :     1183.62  1190.40  1193.04  1193.29  1193.34  1206.00
eigval :     1212.35  1217.42  1221.17  1225.71  1234.89  1247.37
eigval :     1248.57  1272.04  1272.70  1276.62  1276.68  1278.68
eigval :     1279.06  1283.71  1289.17  1304.37  1306.79  1310.62
eigval :     1316.92  1316.94  1318.88  1325.41  1326.33  1326.90
eigval :     1328.66  1330.77  1342.84  1389.55  1407.29  1417.20
eigval :     1417.24  1434.00  1434.03  1440.56  1440.90  1447.45
eigval :     1447.86  1461.81  1464.43  1465.06  1466.29  1466.51
eigval :     1482.66  1491.36  1507.02  1520.00  1528.26  1533.42
eigval :     1538.00  1566.75  1573.08  1573.09  1577.00  1577.24
eigval :     1585.56  1587.23  1587.28  1590.83  1595.14  1596.47
eigval :     2221.63  2296.73  3071.11  3074.90  3079.64  3079.87
eigval :     3080.66  3080.67  3081.20  3081.26  3081.61  3081.70
eigval :     3082.00  3082.01  3083.07  3083.11  3085.14  3085.20
eigval :     3089.60  3089.62  3090.37  3090.39  3093.10  3093.11
eigval :     3093.95  3093.98  3094.06  3094.69  3098.05  3098.36
eigval :     3101.24  3101.62  3102.25  3102.61  3116.57  3116.86

   temp. (K)  partition function   enthalpy   heat capacity  entropy
                                   cal/mol     cal/K/mol   cal/K/mol   J/K/mol
 298.15  VIB  0.830E+23            27358.025    167.572    173.807
         ROT  0.118E+09              888.752      2.981     39.914
         INT  0.978E+31            28246.778    170.553    213.722
         TR   0.185E+29             1481.254      4.968     45.560
         TOT                       29728.0316   175.5213   259.2818  1084.8351

       T/K    H(0)-H(T)+PV         H(T)/Eh          T*S/Eh         G(T)/Eh
   ------------------------------------------------------------------------
    298.15    0.473746E-01    0.730182E+00    0.123193E+00    0.606989E+00
   ------------------------------------------------------------------------

         :::::::::::::::::::::::::::::::::::::::::::::::::::::
         ::                  THERMODYNAMIC                  ::
         :::::::::::::::::::::::::::::::::::::::::::::::::::::
         :: total free energy        -139.651470899962 Eh   ::
         ::.................................................::
         :: total energy             -140.258459432931 Eh   ::
         :: zero point energy           0.682807055973 Eh   ::
         :: G(RRHO) w/o ZPVE           -0.075818523004 Eh   ::
         :: G(RRHO) contrib.            0.606988532969 Eh   ::
         :::::::::::::::::::::::::::::::::::::::::::::::::::::

           -------------------------------------------------
          | TOTAL ENERGY             -140.258459432931 Eh   |
          | TOTAL ENTHALPY           -139.528277743087 Eh   |
          | TOTAL FREE ENERGY        -139.651470899962 Eh   |
          | GRADIENT NORM               0.000113309371 Eh/α |
           -------------------------------------------------

 * finished run on 2025/07/20 at 07:19:15.375
