   * xtb version 6.7.1 (edcfbbe) compiled by 'albert@albert-system' on 2024-07-22

   ID    Z sym.   atoms
    1    7 N      1, 5, 15, 39
    2    6 C      2-4, 6-14, 16-38, 40-56
    3    1 H      57-90

          program call               : xtb data2507/gas/36DTPAFM/36DTPAFM.xyz --gfn 2 --ohess vtight --parallel 40 --molden --ceasefiles --namespace data2507/gas/36DTPAFM/36DTPAFM_gas_S0_preOpt
          :  Hamiltonian                  GFN2-xTB          :
 * total energy  :  -140.2806444 Eh     change       -0.4822510E-08 Eh
 * total energy  :  -140.2971456 Eh     change       -0.1650114E-01 Eh
 * total energy  :  -140.3045904 Eh     change       -0.7444811E-02 Eh
 * total energy  :  -140.3076256 Eh     change       -0.3035186E-02 Eh
 * total energy  :  -140.3091910 Eh     change       -0.1565454E-02 Eh
 * total energy  :  -140.3082557 Eh     change        0.9353443E-03 Eh
 * total energy  :  -140.3100786 Eh     change       -0.1822892E-02 Eh
 * total energy  :  -140.3103339 Eh     change       -0.2553569E-03 Eh
 * total energy  :  -140.3107046 Eh     change       -0.3707081E-03 Eh
 * total energy  :  -140.3106133 Eh     change        0.9135965E-04 Eh
 * total energy  :  -140.3114616 Eh     change       -0.4511187E-06 Eh
 * total energy  :  -140.3114621 Eh     change       -0.4705827E-06 Eh
 * total energy  :  -140.3114626 Eh     change       -0.5798501E-06 Eh
 * total energy  :  -140.3114633 Eh     change       -0.6711657E-06 Eh
 * total energy  :  -140.3114640 Eh     change       -0.6652974E-06 Eh
 * total energy  :  -140.3114646 Eh     change       -0.5975880E-06 Eh
 * total energy  :  -140.3114652 Eh     change       -0.5961931E-06 Eh
 * total energy  :  -140.3114659 Eh     change       -0.7247272E-06 Eh
 * total energy  :  -140.3114659 Eh     change       -0.3080913E-08 Eh
   *** GEOMETRY OPTIMIZATION CONVERGED AFTER 94 ITERATIONS ***

 final structure:
================
90
 xtb: 6.7.1 (edcfbbe)
N           -2.07771427734946       -8.48706274679208       -0.17444978391516
C           -1.16591611775478       -7.78935605228159       -0.16732585417964
C            0.00017422831743       -6.99630531129484       -0.15841274587334
C            1.16632605352488       -7.78926835174295       -0.16711257572336
N            2.07818037157188       -8.48689930250472       -0.17442842679923
C            0.00012272547880       -5.62807768352201       -0.14233140565340
C           -1.16649370257053       -4.75603280743456       -0.13000121878679
C           -2.52416108430358       -5.03476667784978       -0.12857065849782
C           -3.42280099998023       -3.98107720362465       -0.10507424798839
C           -2.99974817978224       -2.65093765600889       -0.08834628853162
C           -3.97487270513715       -1.55953999358374       -0.05967146434057
C           -5.14642407708924       -1.66234907399211        0.69208751882363
C           -6.06000243965010       -0.63276255555245        0.73194812326062
C           -5.84303020839912        0.53870501788497        0.00204448134520
N           -6.76744535268186        1.57899644846529        0.03490384744497
C           -8.13670944904892        1.30399388405188        0.16012479112271
C           -8.94836383161270        2.11729971604898        0.94962314721329
C          -10.29858372621228        1.84912527393668        1.06473006045793
C          -10.85772481854383        0.76726249466982        0.40451394012191
C          -10.05461909870630       -0.04493998754651       -0.37928173979169
C           -8.70485992339764        0.21976270415530       -0.50729233052388
C           -6.33913462056454        2.91059469989709       -0.04985998661257
C           -7.08519777556456        3.84528615650693       -0.76673095514825
C           -6.66653499312721        5.15953535734632       -0.84112583236231
C           -5.49922508088898        5.56089678135979       -0.21239959810982
C           -4.75347059444655        4.63545226784366        0.49914488669654
C           -5.16826930619255        3.32074427266705        0.58669544950088
C           -4.67727914752071        0.64261015614697       -0.76089901735565
C           -3.75960708671554       -0.38412146454053       -0.78091404660246
C           -1.62692852710123       -2.37097420355004       -0.09597400312821
C           -0.72885104267531       -3.41183826010701       -0.11259448358479
C            0.72894542919794       -3.41178522971350       -0.11255933658454
C            1.62695425776103       -2.37085903640130       -0.09591958939698
C            2.99978669884188       -2.65073851662572       -0.08819896597754
C            3.97486649098872       -1.55929774049881       -0.05948848927893
C            5.14627200201651       -1.66202009239081        0.69250539236578
C            6.05984909051230       -0.63243655921189        0.73240405975248
C            5.84302814683041        0.53892267411971        0.00228765115780
N            6.76747528108922        1.57920316062465        0.03513597270638
C            6.33909433840005        2.91078385246274       -0.04957180723661
C            5.16823489480250        3.32081688654520        0.58707228660907
C            4.75331794027454        4.63549193593225        0.49959686540855
C            5.49895501749864        5.56102412852477       -0.21195648617132
C            6.66625685921790        5.15977934748707       -0.84077262724164
C            7.08502963344752        3.84555911838597       -0.76646406956276
C            8.13671732437962        1.30415126275138        0.16035386526771
C            8.94853121503711        2.11768073321355        0.94946209556236
C           10.29872204235490        1.84937348884290        1.06460832983061
C           10.85768884655205        0.76714644464688        0.40484393284579
C           10.05443183009993       -0.04527375026585       -0.37857021228363
C            8.70470878756425        0.21957113487423       -0.50664279115996
C            4.67740525612731        0.64275876024431       -0.76085738596802
C            3.75971829893526       -0.38396472690397       -0.78090142616996
C            3.42293179852840       -3.98084815688673       -0.10488767731277
C            2.52436335732992       -5.03459709801046       -0.12841953282780
C            1.16667976662306       -4.75595000547327       -0.12993552310229
H           -2.88905071310882       -6.04925964447812       -0.14817030332803
H           -4.48067409248429       -4.19553072330943       -0.12265139182749
H           -5.32372963949420       -2.54805989405236        1.28385976952573
H           -6.94875416305811       -0.72244453226788        1.33896484983106
H           -8.51196217048480        2.95627606897301        1.47173032337987
H          -10.91654579058954        2.48510083713714        1.68121198035666
H          -11.91245020301597        0.55891578504231        0.49956218055657
H          -10.48358360793413       -0.88658752428489       -0.90274692921075
H           -8.08213362492944       -0.40780322598164       -1.12803334375194
H           -7.99127816350965        3.53220059224237       -1.26450465407668
H           -7.25237107929144        5.87345514026696       -1.40102424425868
H           -5.17363034080803        6.58802201980193       -0.27543375494804
H           -3.84582016079116        4.94111711571204        0.99851755814918
H           -4.59206499118717        2.60353544208419        1.15291735659218
H           -4.50365719499405        1.53416239322822       -1.34539058716580
H           -2.87773002671191       -0.29037825177683       -1.39746838202655
H           -1.28316005468698       -1.34803243238169       -0.06188659990197
H            1.28312887384030       -1.34793239763656       -0.06193033201666
H            5.32343456142187       -2.54764671290499        1.28444633792687
H            6.94847619952586       -0.72203462913763        1.33961450392887
H            4.59212526005385        2.60353774096834        1.15330194058210
H            3.84567716682780        4.94106341431057        0.99904439011411
H            5.17327481078871        6.58812608004960       -0.27492912048813
H            7.25199080567347        5.87376730577232       -1.40069074977925
H            7.99110267013545        3.53256782629769       -1.26430985652980
H            8.51228439820033        2.95693069850852        1.47125787381827
H           10.91680066255839        2.48554155919917        1.68077541133342
H           11.91238472194675        0.55867830924217        0.49995510740742
H           10.48324257161900       -0.88722575509009       -0.90167261580628
H            8.08188563374817       -0.40817253533013       -1.12710610165967
H            4.50390471106872        1.53424358567949       -1.34548912585687
H            2.87794341778656       -0.29029102606153       -1.39761382482796
H            4.48082119282356       -4.19522802424646       -0.12238089794768
H            2.88932154269836       -6.04906752110969       -0.14787388178989

          :  Hamiltonian                  GFN2-xTB          :
         :: gradient norm              0.000056024050 Eh/a0 ::
         :: HOMO-LUMO gap              0.982508326460 eV    ::
         :: SCC energy              -143.055959015881 Eh    ::
         :: -> dispersion             -0.124725919788 Eh    ::
         :: repulsion energy           2.744493115854 Eh    ::

    * Orbital Energies and Occupations

         #    Occupation            Energy/Eh            Energy/eV
      -------------------------------------------------------------
         1        2.0000           -0.6757904             -18.3892
       ...           ...                  ...                  ...
       119        2.0000           -0.4160500             -11.3213
       120        2.0000           -0.4145405             -11.2802
       121        2.0000           -0.4145207             -11.2797
       122        2.0000           -0.4142554             -11.2725
       123        2.0000           -0.4118922             -11.2082
       124        2.0000           -0.4117830             -11.2052
       125        2.0000           -0.4114451             -11.1960
       126        2.0000           -0.4111473             -11.1879
       127        2.0000           -0.4065338             -11.0623
       128        2.0000           -0.3959184             -10.7735
       129        2.0000           -0.3915015             -10.6533
       130        2.0000           -0.3570517              -9.7159
       131        2.0000           -0.3562881              -9.6951 (HOMO)
       132                         -0.3201815              -8.7126 (LUMO)
       133                         -0.2574414              -7.0053
       134                         -0.2573821              -7.0037
       135                         -0.2441493              -6.6436
       136                         -0.2371981              -6.4545
       137                         -0.2371916              -6.4543
       138                         -0.2345814              -6.3833
       139                         -0.2345798              -6.3832
       140                         -0.2301878              -6.2637
       141                         -0.2292499              -6.2382
       142                         -0.2292344              -6.2378
       ...                                ...                  ...
       258                          1.1722578              31.8988
      -------------------------------------------------------------
                  HL-Gap            0.0361066 Eh            0.9825 eV

     #   Z          covCN         q      C6AA      α(0)
     1   7 N        0.911    -0.239    26.250     7.410
     2   6 C        1.936     0.124    28.051     8.553
     3   6 C        2.946     0.007    27.853     8.656
     4   6 C        1.936     0.124    28.051     8.553
     5   7 N        0.911    -0.239    26.250     7.410
     6   6 C        3.031     0.032    27.244     8.562
     7   6 C        3.053    -0.006    28.131     8.698
     8   6 C        2.911    -0.028    28.691     8.783
     9   6 C        2.925    -0.036    28.890     8.815
    10   6 C        2.977     0.017    27.626     8.622
    11   6 C        2.976     0.000    28.016     8.682
    12   6 C        2.924    -0.033    28.814     8.803
    13   6 C        2.920    -0.049    29.208     8.863
    14   6 C        2.923     0.066    26.519     8.445
    15   7 N        2.752    -0.072    22.629     7.065
    16   6 C        2.925     0.064    26.556     8.451
    17   6 C        2.922    -0.046    29.149     8.854
    18   6 C        2.920    -0.029    28.714     8.787
    19   6 C        2.919    -0.037    28.911     8.817
    20   6 C        2.920    -0.029    28.715     8.787
    21   6 C        2.922    -0.046    29.151     8.854
    22   6 C        2.925     0.065    26.550     8.450
    23   6 C        2.922    -0.046    29.152     8.854
    24   6 C        2.920    -0.029    28.714     8.787
    25   6 C        2.919    -0.037    28.923     8.819
    26   6 C        2.920    -0.029    28.724     8.789
    27   6 C        2.922    -0.047    29.163     8.856
    28   6 C        2.920    -0.049    29.219     8.864
    29   6 C        2.924    -0.033    28.816     8.803
    30   6 C        2.918    -0.036    28.897     8.815
    31   6 C        3.051     0.004    27.892     8.662
    32   6 C        3.051     0.004    27.892     8.662
    33   6 C        2.918    -0.036    28.897     8.815
    34   6 C        2.977     0.017    27.626     8.622
    35   6 C        2.976     0.000    28.016     8.682
    36   6 C        2.924    -0.033    28.814     8.803
    37   6 C        2.920    -0.049    29.207     8.863
    38   6 C        2.923     0.066    26.519     8.445
    39   7 N        2.752    -0.072    22.629     7.065
    40   6 C        2.925     0.065    26.550     8.450
    41   6 C        2.922    -0.047    29.163     8.856
    42   6 C        2.920    -0.029    28.724     8.789
    43   6 C        2.919    -0.037    28.923     8.819
    44   6 C        2.920    -0.029    28.714     8.787
    45   6 C        2.922    -0.046    29.152     8.854
    46   6 C        2.925     0.064    26.556     8.451
    47   6 C        2.922    -0.046    29.149     8.854
    48   6 C        2.920    -0.029    28.714     8.787
    49   6 C        2.919    -0.037    28.911     8.817
    50   6 C        2.920    -0.029    28.715     8.787
    51   6 C        2.922    -0.046    29.151     8.854
    52   6 C        2.920    -0.049    29.219     8.864
    53   6 C        2.924    -0.033    28.816     8.803
    54   6 C        2.925    -0.036    28.890     8.815
    55   6 C        2.911    -0.028    28.691     8.783
    56   6 C        3.053    -0.006    28.131     8.698
    57   1 H        0.926     0.047     2.356     2.401
    58   1 H        0.926     0.040     2.446     2.446
    59   1 H        0.926     0.037     2.491     2.468
    60   1 H        0.926     0.035     2.517     2.481
    61   1 H        0.926     0.033     2.550     2.497
    62   1 H        0.926     0.034     2.535     2.490
    63   1 H        0.926     0.033     2.546     2.495
    64   1 H        0.926     0.034     2.528     2.486
    65   1 H        0.926     0.033     2.543     2.494
    66   1 H        0.926     0.033     2.545     2.495
    67   1 H        0.926     0.034     2.537     2.491
    68   1 H        0.926     0.032     2.556     2.500
    69   1 H        0.926     0.033     2.548     2.496
    70   1 H        0.926     0.032     2.555     2.499
    71   1 H        0.926     0.034     2.529     2.487
    72   1 H        0.926     0.034     2.524     2.484
    73   1 H        0.926     0.037     2.493     2.469
    74   1 H        0.926     0.037     2.493     2.469
    75   1 H        0.926     0.037     2.491     2.468
    76   1 H        0.926     0.035     2.517     2.481
    77   1 H        0.926     0.032     2.555     2.499
    78   1 H        0.926     0.033     2.548     2.496
    79   1 H        0.926     0.032     2.556     2.500
    80   1 H        0.926     0.034     2.537     2.491
    81   1 H        0.926     0.033     2.545     2.495
    82   1 H        0.926     0.033     2.550     2.497
    83   1 H        0.926     0.034     2.535     2.490
    84   1 H        0.926     0.033     2.546     2.495
    85   1 H        0.926     0.034     2.528     2.486
    86   1 H        0.926     0.033     2.543     2.494
    87   1 H        0.926     0.034     2.529     2.487
    88   1 H        0.926     0.034     2.524     2.484
    89   1 H        0.926     0.040     2.446     2.446
    90   1 H        0.926     0.047     2.356     2.401

molecular dipole:
                 x           y           z       tot (Debye)
 q only:       -0.001       3.348       0.072
   full:       -0.001       3.836       0.081       9.752

 projected vibrational frequencies (cm⁻¹)
eigval :       -0.00    -0.00     0.00     0.00     0.00     0.00
eigval :        8.78     8.83     9.94    18.63    20.00    24.66
eigval :       37.75    38.28    45.16    47.41    47.49    51.11
eigval :       60.59    61.58    69.68    72.06    78.30    82.68
eigval :      102.77   103.08   109.56   114.41   125.79   126.80
eigval :      147.87   159.33   167.07   185.10   194.43   213.01
eigval :      219.60   230.35   232.33   234.94   242.79   272.06
eigval :      300.40   306.00   306.79   314.33   331.41   346.32
eigval :      348.46   369.90   377.10   378.09   378.21   379.98
eigval :      382.21   388.78   390.74   395.48   396.62   406.53
eigval :      408.33   422.96   445.33   445.95   449.52   465.20
eigval :      483.07   483.07   490.78   496.11   509.31   511.40
eigval :      524.95   553.61   579.29   583.09   583.96   584.39
eigval :      585.41   587.81   593.82   594.08   594.97   604.75
eigval :      611.57   618.57   620.61   632.66   637.77   660.32
eigval :      660.68   662.92   666.14   683.24   683.70   691.25
eigval :      696.54   715.71   716.01   728.93   752.47   757.67
eigval :      757.77   761.11   765.04   811.15   811.53   835.00
eigval :      836.53   854.17   866.88   867.61   875.17   875.24
eigval :      875.97   876.11   877.16   878.27   893.40   894.01
eigval :      894.19   894.68   900.55   910.06   910.10   914.51
eigval :      914.81   917.39   919.51   921.01   925.37   927.35
eigval :      928.25   928.27   928.32   929.66   929.68   929.84
eigval :      929.88   930.52   931.64   934.06   982.74   985.19
eigval :     1005.30  1005.32  1008.30  1017.84  1035.91  1076.77
eigval :     1077.55  1083.00  1083.00  1083.98  1083.99  1121.65
eigval :     1121.66  1123.67  1123.68  1127.36  1142.79  1145.81
eigval :     1153.14  1180.53  1180.57  1180.64  1180.72  1186.85
eigval :     1187.05  1195.12  1195.13  1195.22  1197.02  1201.62
eigval :     1203.37  1215.98  1218.38  1219.28  1224.61  1245.62
eigval :     1266.86  1272.79  1273.03  1278.30  1278.38  1280.58
eigval :     1281.36  1291.89  1298.95  1311.94  1312.69  1317.48
eigval :     1317.75  1324.66  1326.36  1326.39  1327.89  1328.05
eigval :     1334.22  1336.39  1363.20  1397.02  1415.43  1417.17
eigval :     1432.17  1436.33  1436.65  1442.30  1443.16  1453.70
eigval :     1460.78  1470.55  1470.91  1475.15  1475.39  1498.03
eigval :     1498.69  1545.53  1549.72  1550.70  1563.90  1568.91
eigval :     1574.73  1577.83  1577.84  1581.80  1582.03  1592.64
eigval :     1594.22  1594.36  1597.79  1600.15  1603.87  1612.79
eigval :     2328.47  2359.62  3076.64  3076.71  3077.70  3077.72
eigval :     3078.09  3078.14  3078.36  3078.48  3078.83  3078.84
eigval :     3081.69  3081.71  3085.65  3086.64  3086.66  3087.26
eigval :     3087.27  3088.72  3089.68  3089.84  3090.68  3090.71
eigval :     3091.14  3091.71  3091.90  3092.06  3094.33  3094.43
eigval :     3098.62  3098.68  3099.24  3099.29  3118.98  3119.15

   temp. (K)  partition function   enthalpy   heat capacity  entropy
                                   cal/mol     cal/K/mol   cal/K/mol   J/K/mol
 298.15  VIB  0.319E+23            27179.661    166.741    172.520
         ROT  0.235E+09              888.752      2.981     41.284
         INT  0.750E+31            28068.413    169.722    213.804
         TR   0.185E+29             1481.254      4.968     45.560
         TOT                       29549.6671   174.6901   259.3647  1085.1819

       T/K    H(0)-H(T)+PV         H(T)/Eh          T*S/Eh         G(T)/Eh
   ------------------------------------------------------------------------
    298.15    0.470904E-01    0.732688E+00    0.123233E+00    0.609456E+00
   ------------------------------------------------------------------------

         :::::::::::::::::::::::::::::::::::::::::::::::::::::
         ::                  THERMODYNAMIC                  ::
         :::::::::::::::::::::::::::::::::::::::::::::::::::::
         :: total free energy        -139.702010186801 Eh   ::
         ::.................................................::
         :: total energy             -140.311465900025 Eh   ::
         :: zero point energy           0.685597854938 Eh   ::
         :: G(RRHO) w/o ZPVE           -0.076142141714 Eh   ::
         :: G(RRHO) contrib.            0.609455713225 Eh   ::
         :::::::::::::::::::::::::::::::::::::::::::::::::::::

           -------------------------------------------------
          | TOTAL ENERGY             -140.311465900025 Eh   |
          | TOTAL ENTHALPY           -139.578777653086 Eh   |
          | TOTAL FREE ENERGY        -139.702010186801 Eh   |
          | GRADIENT NORM               0.000055933847 Eh/α |
          | HOMO-LUMO GAP               0.982509518129 eV   |
           -------------------------------------------------

 * finished run on 2025/07/20 at 07:10:01.929
