   * xtb version 6.7.1 (edcfbbe) compiled by 'albert@albert-system' on 2024-07-22

   ID    Z sym.   atoms
    1    7 N      1, 5, 15, 39
    2    6 C      2-4, 6-14, 16-38, 40-56
    3    1 H      57-90

          program call               : xtb data2507/gas/36DTPAFM/36DTPAFM_gas_S0_crest.xyz --gfn 2 --ohess vtight --parallel 40 --molden --ceasefiles --namespace data2507/gas/36DTPAFM/36DTPAFM_gas_S0_finalOpt
          :  Hamiltonian                  GFN2-xTB          :
 * total energy  :  -140.3114522 Eh     change       -0.2674682E-08 Eh
 * total energy  :  -140.3114363 Eh     change        0.1584515E-04 Eh
 * total energy  :  -140.3114532 Eh     change       -0.1683278E-04 Eh
 * total energy  :  -140.3114550 Eh     change       -0.1776378E-05 Eh
 * total energy  :  -140.3114572 Eh     change       -0.2298104E-05 Eh
 * total energy  :  -140.3114571 Eh     change        0.1268568E-06 Eh
 * total energy  :  -140.3114588 Eh     change       -0.1659718E-05 Eh
 * total energy  :  -140.3114596 Eh     change       -0.8516753E-06 Eh
 * total energy  :  -140.3114605 Eh     change       -0.8316254E-06 Eh
 * total energy  :  -140.3114616 Eh     change       -0.1119923E-05 Eh
 * total energy  :  -140.3114848 Eh     change       -0.3167428E-06 Eh
 * total energy  :  -140.3114851 Eh     change       -0.2315889E-06 Eh
 * total energy  :  -140.3114853 Eh     change       -0.2537860E-06 Eh
 * total energy  :  -140.3114856 Eh     change       -0.3060195E-06 Eh
 * total energy  :  -140.3114861 Eh     change       -0.4505214E-06 Eh
 * total energy  :  -140.3114867 Eh     change       -0.6374244E-06 Eh
 * total energy  :  -140.3114875 Eh     change       -0.7975574E-06 Eh
 * total energy  :  -140.3114883 Eh     change       -0.8205113E-06 Eh
 * total energy  :  -140.3114883 Eh     change       -0.2238266E-08 Eh
   *** GEOMETRY OPTIMIZATION CONVERGED AFTER 44 ITERATIONS ***

 final structure:
================
90
 xtb: 6.7.1 (edcfbbe)
N           -2.07973081829262       -8.00070018828753        0.03020667765485
C           -1.16783180384888       -7.30321414078160        0.01530602689488
C           -0.00172170205590       -6.51042618918586       -0.00352019271403
C            1.16437237259184       -7.30335957281830       -0.01960964853642
N            2.07643389249236       -8.00062168999643       -0.03165985697234
C           -0.00164829044918       -5.14208506692042       -0.00520602014633
C           -1.16807559436166       -4.26982306985656        0.00996777868675
C           -2.52587791518002       -4.54761156642383        0.02322436852503
C           -3.42405600540242       -3.49326748389845        0.02810775155517
C           -3.00095051330887       -2.16287474413714        0.02203337026699
C           -3.97487403906335       -1.07016273247610        0.02268043730191
C           -5.16836572086359       -1.16939051047329       -0.69464418438220
C           -6.08152793216266       -0.13868038744286       -0.70499748917283
C           -5.83992381269336        1.03188791336749        0.01829249388805
N           -6.76290681420331        2.07448859552027        0.01442333302702
C           -8.13642367762245        1.80087625394359       -0.04578523156551
C           -8.67260239768713        0.71711319300434        0.64849490165896
C          -10.02722938219457        0.45379056572501        0.58663170394320
C          -10.86688862591626        1.26685744630739       -0.15690136500953
C          -10.33930884969960        2.34762237520888       -0.84434394647446
C           -8.98477965020180        2.61432630314032       -0.79564076514313
C           -6.32549798817942        3.40447062386415        0.07071269849255
C           -5.17891526600972        3.80171269617542       -0.61637001901438
C           -4.75293968207344        5.11440314328600       -0.55753373158230
C           -5.46357212742723        6.05064636597279        0.17551729286465
C           -6.60650217952093        5.66201712786729        0.85500018981306
C           -7.03586396538010        4.34988047659362        0.80941352417550
C           -4.65133645315446        1.13355424710805        0.74518968468364
C           -3.73642941454615        0.10429592424699        0.73864835673420
C           -1.62770285154909       -1.88430787920865        0.01285340946116
C           -0.73023823912592       -2.92564731328919        0.00555531429121
C            0.72733876198056       -2.92575758635169       -0.01465044117031
C            1.62500165862110       -1.88456445649805       -0.02061801370116
C            2.99817168199869       -2.16341876402861       -0.03093011151066
C            3.97257239697075       -1.07116038845199       -0.02880843959027
C            5.16602193415497       -1.17346573015116        0.68817215936078
C            6.07985998060384       -0.14345919583456        0.70171032371651
C            5.83908011319171        1.02955928137488       -0.01790479852850
N            6.76352507637049        2.07082988041897       -0.01075778334380
C            6.32922631628461        3.40182611595277       -0.06345695210096
C            5.18117287655934        3.79920806120419        0.62113449519763
C            4.75803093437730        5.11293166691364        0.56515477094429
C            5.47303623235688        6.05019943472614       -0.16230894826060
C            6.61769209448745        5.66155480175011       -0.83886115606304
C            7.04421808830710        4.34840247420016       -0.79623079979257
C            8.13647276756546        1.79357583657729        0.04901654647751
C            8.98607374125021        2.59945530497360        0.80550676069133
C           10.33970625087946        2.32815395578077        0.85450009492332
C           10.86498111789649        1.25048337496834        0.16045776042148
C           10.02405750424528        0.44518656324667       -0.59008006528176
C            8.67033475981224        0.71304455665995       -0.65202222560455
C            4.65054550475706        1.13437522208558       -0.74441764094744
C            3.73489927292247        0.10571377879549       -0.74104059831569
C            3.42098577543155       -3.49390035087495       -0.04023480257207
C            2.52263033479084       -4.54806844378413       -0.03625926771392
C            1.16490389114517       -4.27001381142686       -0.02096799556943
H           -2.89128758545686       -5.56207067136488        0.03304742316512
H           -4.48143335028304       -3.70833677754437        0.05966706561262
H           -5.36487241465378       -2.05327949242366       -1.28298676809372
H           -6.98916152010014       -0.22629885946040       -1.28377981615115
H           -8.02115832019266        0.08904101734407        1.23848986431886
H          -10.43089763072741       -0.38728217646089        1.13074137188962
H          -11.92532318829925        1.06005002943005       -0.19966488116636
H          -10.98597235601526        2.98414084715108       -1.43006858331902
H           -8.57365259886866        3.45245631070712       -1.33915915524309
H           -4.63046030479323        3.07585171169689       -1.19891020397826
H           -3.86455327599889        5.40993279851322       -1.09612037103302
H           -5.12958269046960        7.07620906751043        0.21608781173003
H           -7.16449935048974        6.38437987231761        1.43224583542000
H           -7.92247086380183        4.04688654479994        1.34689391250759
H           -4.45816066300563        2.02523035546576        1.32336289707296
H           -2.83755381418609        0.19577661342006        1.33040196574560
H           -1.28279721370694       -0.86157788935547       -0.01344733497038
H            1.28032831799363       -0.86181008638028        0.00771850711632
H            5.36192830213069       -2.05930956367359        1.27375553462604
H            6.98749034559411       -0.23356640882731        1.28011027455359
H            4.62923430308061        3.07262229225531        1.19945633596362
H            3.86835196131037        5.40843540053721        1.10162255905247
H            5.14120597555855        7.07654675319670       -0.20067741565364
H            7.17932177482192        6.38475605010760       -1.41151740353634
H            7.93213010295444        4.04550422237893       -1.33160243925633
H            8.57657762020600        3.43511679504194        1.35404211299351
H           10.98745897488218        2.95848748900153        1.44567986548714
H           11.92267918172256        1.04000618070717        0.20356598335792
H           10.42600517555167       -0.39327544247540       -1.13946407841899
H            8.01769959710597        0.09101977334956       -1.24709643546556
H            4.45799211864044        2.02795432162115       -1.31985197742170
H            2.83600801783291        0.19973091428587       -1.33237797185959
H            4.47827923372890       -3.70911614150155       -0.07350450172443
H            2.88784989698854       -5.56256476726493       -0.04841391699249

          :  Hamiltonian                  GFN2-xTB          :
         :: gradient norm              0.000119589242 Eh/a0 ::
         :: HOMO-LUMO gap              0.979565008708 eV    ::
         :: SCC energy              -143.055958747358 Eh    ::
         :: -> dispersion             -0.124723301748 Eh    ::
         :: repulsion energy           2.744470421467 Eh    ::

    * Orbital Energies and Occupations

         #    Occupation            Energy/Eh            Energy/eV
      -------------------------------------------------------------
         1        2.0000           -0.6758657             -18.3912
       ...           ...                  ...                  ...
       119        2.0000           -0.4163026             -11.3282
       120        2.0000           -0.4157531             -11.3132
       121        2.0000           -0.4144195             -11.2769
       122        2.0000           -0.4144046             -11.2765
       123        2.0000           -0.4118701             -11.2076
       124        2.0000           -0.4117866             -11.2053
       125        2.0000           -0.4113319             -11.1929
       126        2.0000           -0.4110783             -11.1860
       127        2.0000           -0.4062937             -11.0558
       128        2.0000           -0.3959090             -10.7732
       129        2.0000           -0.3915106             -10.6535
       130        2.0000           -0.3571420              -9.7183
       131        2.0000           -0.3562801              -9.6949 (HOMO)
       132                         -0.3202816              -8.7153 (LUMO)
       133                         -0.2578543              -7.0166
       134                         -0.2575394              -7.0080
       135                         -0.2445896              -6.6556
       136                         -0.2370985              -6.4518
       137                         -0.2370940              -6.4517
       138                         -0.2346452              -6.3850
       139                         -0.2346382              -6.3848
       140                         -0.2302186              -6.2646
       141                         -0.2293227              -6.2402
       142                         -0.2293001              -6.2396
       ...                                ...                  ...
       258                          1.1722217              31.8978
      -------------------------------------------------------------
                  HL-Gap            0.0359985 Eh            0.9796 eV

     #   Z          covCN         q      C6AA      α(0)
     1   7 N        0.911    -0.239    26.250     7.410
     2   6 C        1.936     0.124    28.052     8.553
     3   6 C        2.946     0.007    27.852     8.656
     4   6 C        1.936     0.124    28.051     8.553
     5   7 N        0.911    -0.239    26.249     7.410
     6   6 C        3.031     0.032    27.245     8.562
     7   6 C        3.053    -0.006    28.131     8.698
     8   6 C        2.911    -0.028    28.691     8.783
     9   6 C        2.925    -0.036    28.891     8.815
    10   6 C        2.977     0.017    27.628     8.622
    11   6 C        2.976     0.001    28.012     8.682
    12   6 C        2.924    -0.033    28.814     8.803
    13   6 C        2.920    -0.048    29.201     8.861
    14   6 C        2.924     0.066    26.518     8.445
    15   7 N        2.752    -0.072    22.629     7.065
    16   6 C        2.925     0.064    26.556     8.451
    17   6 C        2.922    -0.047    29.155     8.855
    18   6 C        2.920    -0.029    28.715     8.787
    19   6 C        2.919    -0.037    28.914     8.818
    20   6 C        2.920    -0.029    28.714     8.787
    21   6 C        2.922    -0.046    29.153     8.854
    22   6 C        2.925     0.065    26.550     8.450
    23   6 C        2.922    -0.047    29.164     8.856
    24   6 C        2.920    -0.029    28.724     8.789
    25   6 C        2.919    -0.037    28.924     8.819
    26   6 C        2.920    -0.029    28.715     8.787
    27   6 C        2.922    -0.046    29.154     8.854
    28   6 C        2.920    -0.049    29.213     8.863
    29   6 C        2.924    -0.033    28.817     8.803
    30   6 C        2.918    -0.036    28.898     8.815
    31   6 C        3.051     0.004    27.893     8.662
    32   6 C        3.051     0.004    27.893     8.662
    33   6 C        2.918    -0.036    28.898     8.815
    34   6 C        2.977     0.017    27.628     8.622
    35   6 C        2.976     0.001    28.012     8.682
    36   6 C        2.924    -0.033    28.814     8.803
    37   6 C        2.920    -0.048    29.201     8.862
    38   6 C        2.924     0.066    26.518     8.445
    39   7 N        2.752    -0.072    22.629     7.065
    40   6 C        2.925     0.065    26.550     8.450
    41   6 C        2.922    -0.047    29.165     8.856
    42   6 C        2.920    -0.029    28.724     8.789
    43   6 C        2.919    -0.037    28.925     8.820
    44   6 C        2.920    -0.029    28.715     8.787
    45   6 C        2.922    -0.047    29.155     8.855
    46   6 C        2.925     0.064    26.556     8.451
    47   6 C        2.922    -0.046    29.151     8.854
    48   6 C        2.920    -0.029    28.714     8.787
    49   6 C        2.919    -0.037    28.913     8.818
    50   6 C        2.920    -0.029    28.715     8.787
    51   6 C        2.922    -0.046    29.153     8.854
    52   6 C        2.920    -0.049    29.213     8.863
    53   6 C        2.924    -0.033    28.817     8.803
    54   6 C        2.925    -0.036    28.891     8.815
    55   6 C        2.911    -0.028    28.692     8.783
    56   6 C        3.053    -0.006    28.131     8.698
    57   1 H        0.926     0.047     2.357     2.401
    58   1 H        0.926     0.040     2.445     2.445
    59   1 H        0.926     0.037     2.488     2.467
    60   1 H        0.926     0.035     2.515     2.480
    61   1 H        0.926     0.033     2.547     2.496
    62   1 H        0.926     0.034     2.530     2.487
    63   1 H        0.926     0.033     2.547     2.496
    64   1 H        0.926     0.034     2.536     2.490
    65   1 H        0.926     0.033     2.549     2.497
    66   1 H        0.926     0.032     2.557     2.501
    67   1 H        0.926     0.033     2.548     2.496
    68   1 H        0.926     0.032     2.556     2.500
    69   1 H        0.926     0.033     2.537     2.491
    70   1 H        0.926     0.033     2.544     2.494
    71   1 H        0.926     0.034     2.529     2.487
    72   1 H        0.926     0.035     2.520     2.482
    73   1 H        0.926     0.037     2.493     2.469
    74   1 H        0.926     0.037     2.493     2.469
    75   1 H        0.926     0.037     2.488     2.467
    76   1 H        0.926     0.035     2.516     2.480
    77   1 H        0.926     0.032     2.557     2.501
    78   1 H        0.926     0.033     2.548     2.496
    79   1 H        0.926     0.032     2.557     2.501
    80   1 H        0.926     0.033     2.538     2.491
    81   1 H        0.926     0.033     2.545     2.495
    82   1 H        0.926     0.033     2.549     2.496
    83   1 H        0.926     0.034     2.536     2.490
    84   1 H        0.926     0.033     2.546     2.495
    85   1 H        0.926     0.034     2.529     2.487
    86   1 H        0.926     0.033     2.547     2.496
    87   1 H        0.926     0.034     2.529     2.487
    88   1 H        0.926     0.035     2.520     2.482
    89   1 H        0.926     0.040     2.445     2.445
    90   1 H        0.926     0.047     2.357     2.401

molecular dipole:
                 x           y           z       tot (Debye)
 q only:        0.004       3.337      -0.001
   full:        0.004       3.825      -0.002       9.723

 projected vibrational frequencies (cm⁻¹)
eigval :       -0.00    -0.00     0.00     0.00     0.00     0.00
eigval :        8.65     9.11    10.06    17.58    21.77    23.87
eigval :       37.40    39.25    42.12    46.95    50.17    55.24
eigval :       55.38    63.31    67.94    74.12    78.35    82.65
eigval :      102.85   103.18   107.36   116.70   123.82   128.14
eigval :      151.24   158.83   166.41   178.94   200.37   212.88
eigval :      222.39   226.08   231.24   234.60   244.29   274.69
eigval :      295.45   304.74   309.94   320.44   325.66   345.92
eigval :      351.19   368.01   377.40   378.01   378.14   380.19
eigval :      382.54   389.05   391.50   395.14   395.54   407.25
eigval :      408.60   423.24   445.27   446.10   454.06   465.32
eigval :      472.08   486.90   491.24   495.93   509.80   516.22
eigval :      521.32   553.63   579.27   583.16   583.64   584.52
eigval :      585.43   587.81   593.78   594.04   595.04   605.31
eigval :      611.38   618.74   620.73   632.98   636.38   660.19
eigval :      660.51   662.80   665.98   683.62   685.63   689.28
eigval :      696.84   715.91   715.91   728.90   752.47   757.63
eigval :      757.69   761.07   764.98   810.53   811.97   834.27
eigval :      837.19   854.15   866.64   867.52   875.02   875.06
eigval :      876.00   876.06   877.42   877.46   893.31   893.78
eigval :      893.98   894.57   900.53   910.13   910.15   914.57
eigval :      914.61   917.32   919.67   920.86   925.18   927.27
eigval :      928.15   928.16   928.45   929.65   929.68   929.82
eigval :      929.85   930.21   931.63   934.19   982.72   985.12
eigval :     1005.29  1005.31  1008.34  1017.97  1036.14  1076.37
eigval :     1077.18  1083.05  1083.06  1084.02  1084.03  1121.72
eigval :     1121.74  1123.78  1123.80  1127.48  1142.56  1145.78
eigval :     1153.70  1180.55  1180.58  1180.65  1180.71  1186.86
eigval :     1187.07  1195.06  1195.22  1195.28  1197.07  1201.77
eigval :     1203.60  1216.02  1219.15  1220.19  1224.83  1246.00
eigval :     1266.92  1273.07  1273.53  1278.41  1278.47  1280.63
eigval :     1281.43  1291.74  1298.89  1312.15  1312.93  1317.96
eigval :     1318.26  1324.77  1326.46  1326.49  1327.80  1327.99
eigval :     1333.77  1335.98  1363.01  1397.00  1415.44  1417.24
eigval :     1432.16  1436.32  1436.65  1442.36  1443.22  1453.65
eigval :     1460.80  1470.61  1470.96  1475.25  1475.49  1497.69
eigval :     1498.47  1545.38  1549.62  1550.59  1563.81  1568.84
eigval :     1574.54  1577.79  1577.79  1581.77  1582.02  1592.43
eigval :     1594.25  1594.39  1597.87  1600.14  1603.90  1612.97
eigval :     2328.46  2359.61  3076.61  3076.66  3077.68  3077.70
eigval :     3078.13  3078.14  3078.57  3078.64  3078.83  3078.84
eigval :     3081.79  3081.83  3086.06  3086.60  3086.69  3087.25
eigval :     3087.26  3088.93  3089.73  3089.84  3090.69  3090.72
eigval :     3091.32  3091.93  3092.11  3092.29  3094.59  3094.69
eigval :     3098.60  3098.66  3099.23  3099.28  3118.89  3119.07

   temp. (K)  partition function   enthalpy   heat capacity  entropy
                                   cal/mol     cal/K/mol   cal/K/mol   J/K/mol
 298.15  VIB  0.309E+23            27177.315    166.749    172.476
         ROT  0.117E+09              888.752      2.981     39.904
         INT  0.362E+31            28066.067    169.729    212.380
         TR   0.185E+29             1481.254      4.968     45.560
         TOT                       29547.3210   174.6976   257.9403  1079.2224

       T/K    H(0)-H(T)+PV         H(T)/Eh          T*S/Eh         G(T)/Eh
   ------------------------------------------------------------------------
    298.15    0.470867E-01    0.732697E+00    0.122556E+00    0.610141E+00
   ------------------------------------------------------------------------

         :::::::::::::::::::::::::::::::::::::::::::::::::::::
         ::                  THERMODYNAMIC                  ::
         :::::::::::::::::::::::::::::::::::::::::::::::::::::
         :: total free energy        -139.701347124640 Eh   ::
         ::.................................................::
         :: total energy             -140.311488325884 Eh   ::
         :: zero point energy           0.685610326158 Eh   ::
         :: G(RRHO) w/o ZPVE           -0.075469124913 Eh   ::
         :: G(RRHO) contrib.            0.610141201245 Eh   ::
         :::::::::::::::::::::::::::::::::::::::::::::::::::::

           -------------------------------------------------
          | TOTAL ENERGY             -140.311488325884 Eh   |
          | TOTAL ENTHALPY           -139.578791346446 Eh   |
          | TOTAL FREE ENERGY        -139.701347124640 Eh   |
          | GRADIENT NORM               0.000119428859 Eh/α |
          | HOMO-LUMO GAP               0.979569369987 eV   |
           -------------------------------------------------

 * finished run on 2025/07/20 at 07:19:01.758
