   * xtb version 6.7.1 (edcfbbe) compiled by 'albert@albert-system' on 2024-07-22

   ID    Z sym.   atoms
    1    7 N      1, 5, 15, 39
    2    6 C      2-4, 6-14, 16-38, 40-56
    3    1 H      57-90

          program call               : xtb data2507/gas/36DTPAFM/36DTPAFM_gas_T1_crest.xyz --gfn 2 --spinpol --tblite --uhf 2 --ohess vtight --parallel 40 --molden --ceasefiles --namespace data2507/gas/36DTPAFM/36DTPAFM_gas_T1_finalOpt
 * total energy  :  -140.2584088 Eh     change        0.1484079E-07 Eh
 * total energy  :  -140.2584308 Eh     change       -0.2208520E-04 Eh
 * total energy  :  -140.2584085 Eh     change        0.2237033E-04 Eh
 * total energy  :  -140.2584408 Eh     change       -0.3236851E-04 Eh
 * total energy  :  -140.2584409 Eh     change       -0.3172559E-07 Eh
 * total energy  :  -140.2584435 Eh     change       -0.2615622E-05 Eh
 * total energy  :  -140.2584458 Eh     change       -0.2308481E-05 Eh
 * total energy  :  -140.2584481 Eh     change       -0.2320524E-05 Eh
 * total energy  :  -140.2584508 Eh     change       -0.2724286E-05 Eh
 * total energy  :  -140.2584529 Eh     change       -0.2057238E-05 Eh
 * total energy  :  -140.2584654 Eh     change       -0.4047274E-06 Eh
 * total energy  :  -140.2584656 Eh     change       -0.2586951E-06 Eh
 * total energy  :  -140.2584657 Eh     change       -0.1113924E-06 Eh
 * total energy  :  -140.2584659 Eh     change       -0.1686528E-06 Eh
 * total energy  :  -140.2584657 Eh     change        0.1797494E-06 Eh
 * total energy  :  -140.2584663 Eh     change       -0.5676513E-06 Eh
 * total energy  :  -140.2584662 Eh     change        0.9474988E-07 Eh
 * total energy  :  -140.2584665 Eh     change       -0.3203181E-06 Eh
 * total energy  :  -140.2584666 Eh     change       -0.7558478E-07 Eh
   *** GEOMETRY OPTIMIZATION CONVERGED AFTER 28 ITERATIONS ***

 final structure:
================
90
 xtb: 6.7.1 (edcfbbe)
N           -2.09303559876202       -7.94010305454266       -0.15458146769011
C           -1.16371420794705       -7.25763340943276       -0.08140312325977
C           -0.00573131243794       -6.49167942759936        0.00639553731998
C            1.15027558060583       -7.26041338298555        0.09589666649992
N            2.07796303205233       -7.94488972829931        0.17093775022989
C           -0.00387375969223       -5.06233703859178        0.00458202293815
C           -1.15295387149475       -4.21703959393563        0.00334160544317
C           -2.52394236775428       -4.49366884466504        0.00480550852066
C           -3.41958269168770       -3.45106602665991       -0.00802268665853
C           -3.00377380075257       -2.10470401982790       -0.00489241145144
C           -3.98602451963679       -1.03141587739765       -0.01075210803133
C           -5.21016486412938       -1.17223699533884       -0.67767368288833
C           -6.14342629907072       -0.16285072399335       -0.68249928194581
C           -5.89618554273867        1.03748698804028       -0.00831955987295
N           -6.84540398795423        2.05626597573511       -0.00144000329586
C           -8.21013971724638        1.74285730497541        0.01054345893484
C           -8.67968144448598        0.66220193653411        0.75769248128036
C          -10.02653968461942        0.35691471507666        0.76430940672834
C          -10.92297266947854        1.12233950121277        0.03578721296245
C          -10.46149167722447        2.19904075432359       -0.70446263523086
C           -9.11593826021636        2.50989185640890       -0.72250542734670
C           -6.44351412338243        3.39624544347193       -0.00514205303956
C           -5.33102102835988        3.79875962527360       -0.74504491300122
C           -4.94013783869332        5.12330110623142       -0.74486927089858
C           -5.65012053918367        6.06464152921565       -0.01688625191736
C           -6.75786461832230        5.67024583019127        0.71635580235032
C           -7.15420576935690        4.34743168134963        0.72780402169415
C           -4.67720201170077        1.18988313010119        0.66023837435811
C           -3.74524826709833        0.17873931085703        0.65268359684861
C           -1.63173128142845       -1.82006240063957        0.00810682738643
C           -0.72220496615444       -2.85161413075956        0.00503889734441
C            0.71994107138182       -2.85344610659864       -0.00147278845105
C            1.63203037202692       -1.82419075374265       -0.00712581309977
C            3.00335899413818       -2.11219861380713        0.00671357408565
C            3.98785750492759       -1.04094989591428        0.01017173013165
C            5.21115382495731       -1.18195812273776        0.67855291781701
C            6.14562407283396       -0.17362332136110        0.68240190020726
C            5.90041874523690        1.02564195453354        0.00562268420058
N            6.84968560217788        2.04441083471189       -0.00120163021058
C            6.44655089693206        3.38413426351655        0.00021447702084
C            5.33379741471188        3.78662901496745        0.73971718726095
C            4.94118296537825        5.11064954789776        0.73711962829231
C            5.64971142866210        6.05145118018316        0.00702469327833
C            6.75774925114437        5.65707375546973       -0.72578217703339
C            7.15584343050320        4.33474808248165       -0.73475953989256
C            8.21453960311672        1.73204581088419       -0.01036295071757
C            9.11886088235674        2.50279524845483        0.72067836380541
C           10.46473311924169        2.19325585761393        0.70526428335639
C           10.92810019645654        1.11409410161483       -0.03020961223212
C           10.03317593812017        0.34490789836147       -0.75661543049227
C            8.68601711416649        0.64891070515969       -0.75273078017127
C            4.68271008458950        1.17774746040925       -0.66534088843641
C            3.74955037215600        0.16777814530412       -0.65673817292227
C            3.41588640179620       -3.45951733696332        0.01341405437398
C            2.51763227218104       -4.49992889604480        0.00310797638335
C            1.14733105528885       -4.21990747510087        0.00370219552386
H           -2.88161846789559       -5.51091682422586        0.01807845244782
H           -4.47665406062745       -3.66994554718867        0.01766415797128
H           -5.41206434263392       -2.07570820551291       -1.23233046140441
H           -7.06998058123334       -0.28435068200015       -1.22435920286184
H           -7.98314805219924        0.07375218902097        1.33647162715869
H          -10.37926523759847       -0.47946709150697        1.34888469983113
H          -11.97478755678455        0.88137516166511        0.04503262820303
H          -11.15316722498890        2.79665191935712       -1.27919752528124
H           -8.75514267557381        3.34167129952873       -1.30959719913025
H           -4.78628857906960        3.06829202769883       -1.32485635392698
H           -4.08028609112738        5.42401728592902       -1.32473294397028
H           -5.34276511749963        7.09909915659957       -0.02159866927593
H           -7.31323635694728        6.39678718491001        1.29044466225385
H           -8.01045801231253        4.03893091589251        1.30934842981711
H           -4.48184884159551        2.10304798754986        1.20353900431613
H           -2.82754605488501        0.30778863355648        1.20632182522974
H           -1.29087522532822       -0.79500425608499       -0.01591301196595
H            1.29373912165282       -0.79822728427813        0.01428790051174
H            5.41131008071194       -2.08454049966930        1.23529924518934
H            7.07134682473376       -0.29502377271402        1.22570623183314
H            4.79014279533381        3.05651095872976        1.32098401864359
H            4.08112889368444        5.41137391881149        1.31667868166940
H            5.34096686773544        7.08550336677584        0.00975415045243
H            7.31194390233347        6.38322273704272       -1.30149957992305
H            8.01233818727301        4.02618344553841       -1.31591725300925
H            8.75667659896416        3.33649675880320        1.30417392138626
H           11.15518747237464        2.79388013200071        1.27832607866648
H           11.98016742798709        0.87416396356877       -0.03739669505480
H           10.38735114209521       -0.49345576086818       -1.33746768521518
H            7.99077703557010        0.05753479371597       -1.33007343688247
H            4.48920490626401        2.08991234917474       -1.21097594370813
H            2.83277947031162        0.29656748068532       -1.21197235218629
H            4.47243641640250       -3.68101863599049       -0.01145502820006
H            2.87275597035670       -5.51810449854008       -0.00751603957673

 projected vibrational frequencies (cm⁻¹)
eigval :       -0.00    -0.00     0.00     0.00     0.00     0.00
eigval :        8.59     9.30    10.46    12.14    17.50    22.99
eigval :       24.83    38.23    43.36    47.92    49.74    53.09
eigval :       56.76    63.04    68.71    74.48    78.69    87.75
eigval :      103.48   103.70   107.61   116.82   120.70   129.67
eigval :      151.04   155.34   167.54   177.62   202.21   212.03
eigval :      224.52   226.07   231.57   233.90   242.52   274.45
eigval :      298.10   305.01   309.74   319.97   320.67   341.45
eigval :      347.31   368.19   374.71   377.03   377.25   377.35
eigval :      379.48   381.06   389.08   390.34   391.50   403.12
eigval :      406.13   408.88   424.80   444.00   449.03   450.86
eigval :      464.41   481.12   492.46   492.67   510.39   510.44
eigval :      516.05   542.91   551.03   580.46   582.43   582.89
eigval :      584.78   590.83   591.61   591.78   593.04   594.37
eigval :      601.79   613.28   616.57   620.56   622.54   659.72
eigval :      659.93   660.62   664.86   679.93   681.47   687.37
eigval :      693.02   700.06   705.59   725.92   745.86   757.78
eigval :      757.83   760.73   763.09   807.48   807.65   826.94
eigval :      827.17   851.32   857.64   860.36   863.64   867.97
eigval :      873.44   873.49   874.57   875.17   894.90   895.73
eigval :      895.98   896.75   899.99   907.73   907.90   909.97
eigval :      910.00   913.36   917.66   918.01   918.40   925.20
eigval :      927.66   928.37   928.40   929.48   929.81   929.92
eigval :      929.93   930.04   930.67   931.69   978.02   983.36
eigval :      998.91  1004.19  1004.20  1014.44  1026.58  1063.23
eigval :     1065.43  1081.78  1081.86  1082.80  1082.81  1109.92
eigval :     1121.61  1121.63  1123.71  1123.73  1132.93  1145.99
eigval :     1146.15  1179.95  1179.98  1180.12  1180.17  1182.56
eigval :     1184.81  1190.43  1193.11  1193.54  1193.59  1206.06
eigval :     1212.65  1217.63  1221.59  1226.01  1234.89  1247.15
eigval :     1248.62  1272.22  1272.98  1276.81  1276.85  1278.86
eigval :     1279.18  1283.68  1289.55  1304.63  1307.18  1311.08
eigval :     1317.03  1317.04  1319.37  1325.55  1326.28  1327.05
eigval :     1328.61  1330.64  1342.81  1389.82  1407.66  1417.25
eigval :     1417.30  1434.31  1434.33  1440.95  1441.32  1447.31
eigval :     1447.78  1461.89  1464.74  1465.34  1466.67  1466.89
eigval :     1482.85  1491.18  1507.04  1518.81  1528.55  1533.47
eigval :     1538.42  1566.55  1573.14  1573.15  1577.03  1577.27
eigval :     1585.43  1587.26  1587.31  1590.74  1594.84  1596.49
eigval :     2221.82  2296.84  3071.43  3075.06  3079.65  3079.88
eigval :     3080.88  3080.89  3081.38  3081.43  3081.86  3081.91
eigval :     3082.10  3082.13  3083.31  3083.33  3085.61  3085.67
eigval :     3089.70  3089.71  3090.49  3090.51  3093.29  3093.32
eigval :     3094.18  3094.21  3094.44  3094.81  3098.76  3098.92
eigval :     3101.40  3101.72  3102.41  3102.66  3116.82  3117.10

   temp. (K)  partition function   enthalpy   heat capacity  entropy
                                   cal/mol     cal/K/mol   cal/K/mol   J/K/mol
 298.15  VIB  0.864E+23            27358.012    167.576    173.853
         ROT  0.118E+09              888.752      2.981     39.920
         INT  0.102E+32            28246.765    170.557    213.774
         TR   0.185E+29             1481.254      4.968     45.560
         TOT                       29728.0187   175.5252   259.3341  1085.0541

       T/K    H(0)-H(T)+PV         H(T)/Eh          T*S/Eh         G(T)/Eh
   ------------------------------------------------------------------------
    298.15    0.473746E-01    0.730224E+00    0.123218E+00    0.607006E+00
   ------------------------------------------------------------------------

         :::::::::::::::::::::::::::::::::::::::::::::::::::::
         ::                  THERMODYNAMIC                  ::
         :::::::::::::::::::::::::::::::::::::::::::::::::::::
         :: total free energy        -139.651460613751 Eh   ::
         ::.................................................::
         :: total energy             -140.258466674449 Eh   ::
         :: zero point energy           0.682849469751 Eh   ::
         :: G(RRHO) w/o ZPVE           -0.075843409054 Eh   ::
         :: G(RRHO) contrib.            0.607006060697 Eh   ::
         :::::::::::::::::::::::::::::::::::::::::::::::::::::

           -------------------------------------------------
          | TOTAL ENERGY             -140.258466674449 Eh   |
          | TOTAL ENTHALPY           -139.528242591310 Eh   |
          | TOTAL FREE ENERGY        -139.651460613751 Eh   |
          | GRADIENT NORM               0.000095276794 Eh/α |
           -------------------------------------------------

 * finished run on 2025/07/20 at 07:31:24.064
