   * xtb version 6.7.1 (edcfbbe) compiled by 'albert@albert-system' on 2024-07-22

   ID    Z sym.   atoms
    1    8 O      1, 10
    2    6 C      2-9, 11-15, 17-21, 23-41, 43-56, 58
    3    7 N      16, 22, 42, 57
    4    1 H      59-92

          program call               : xtb data2507/gas/TPA-2/TPA-2.xyz --gfn 2 --ohess vtight --parallel 40 --molden --ceasefiles --namespace data2507/gas/TPA-2/TPA-2_gas_S0_preOpt
          :  Hamiltonian                  GFN2-xTB          :
 * total energy  :  -148.4806369 Eh     change       -0.3846509E-08 Eh
 * total energy  :  -148.4997977 Eh     change       -0.1916081E-01 Eh
 * total energy  :  -148.5081644 Eh     change       -0.8366645E-02 Eh
 * total energy  :  -148.5110851 Eh     change       -0.2920751E-02 Eh
 * total energy  :  -148.5130524 Eh     change       -0.1967236E-02 Eh
 * total energy  :  -148.5141307 Eh     change       -0.1078367E-02 Eh
 * total energy  :  -148.5148851 Eh     change       -0.7544252E-03 Eh
 * total energy  :  -148.5155711 Eh     change       -0.6859101E-03 Eh
 * total energy  :  -148.5161544 Eh     change       -0.5833336E-03 Eh
 * total energy  :  -148.5165756 Eh     change       -0.4212463E-03 Eh
 * total energy  :  -148.5197176 Eh     change       -0.1297536E-06 Eh
 * total energy  :  -148.5197178 Eh     change       -0.1587048E-06 Eh
 * total energy  :  -148.5197180 Eh     change       -0.1908852E-06 Eh
 * total energy  :  -148.5197182 Eh     change       -0.2074355E-06 Eh
 * total energy  :  -148.5197184 Eh     change       -0.2162000E-06 Eh
 * total energy  :  -148.5197186 Eh     change       -0.2244905E-06 Eh
 * total energy  :  -148.5197189 Eh     change       -0.2402225E-06 Eh
 * total energy  :  -148.5197191 Eh     change       -0.2670309E-06 Eh
 * total energy  :  -148.5197191 Eh     change       -0.1094861E-08 Eh
   *** GEOMETRY OPTIMIZATION CONVERGED AFTER 122 ITERATIONS ***

 final structure:
================
92
 xtb: 6.7.1 (edcfbbe)
O           -8.06579656475970       -4.50954713136513       -0.55781373251558
C           -7.47026078641172       -3.49553464070378       -0.24101025738223
C           -8.16905323112626       -2.32250228893182        0.32471442070270
C           -9.55993535888895       -2.33602941047934        0.39736288989418
C          -10.24718324281337       -1.25527813910826        0.91760635641600
C           -9.54938133998777       -0.14997831443962        1.38249462697528
C           -8.16773977823559       -0.13163115486149        1.32777438829725
C           -7.46536208933033       -1.20892871370808        0.79566412132406
C           -5.98272647506341       -1.15897008585060        0.78122349311578
O           -5.37283206919661       -0.30255968637978        1.39119417323308
C           -5.32141874241091       -2.22756657230134        0.00881036232671
C           -6.01112750598472       -3.35121724284201       -0.43424797583699
C           -5.33779602016322       -4.39327796036986       -1.10100433815495
C           -3.98545002583544       -4.35598370070961       -1.30260961657254
C           -3.25458828403203       -3.23592410009698       -0.87128621915447
N           -1.90973151821788       -3.23817401288091       -0.91676006056394
C           -1.25719466320536       -2.17092009512533       -0.52885455442313
C            0.18114727989316       -2.26213425860603       -0.32189900507616
C            0.98321199584326       -3.04377958784062       -1.15326033977799
C            2.34260160296876       -3.11944909245977       -0.95056349517175
C            2.94170830945021       -2.45470998986045        0.12553930652202
N            4.31007360674109       -2.54889819054339        0.34303890486211
C            5.01591178596146       -3.69700696460936       -0.05689083817886
C            4.47600770725880       -4.96786077938811        0.13110160185430
C            5.18430219420351       -6.08700970269321       -0.26234616625442
C            6.43798085155633       -5.95734629882413       -0.83731766161278
C            6.98143908401487       -4.69607110807353       -1.01840091485520
C            6.27756811393416       -3.57075829179879       -0.63502422837492
C            5.00783350803566       -1.54187829425167        1.02584024852192
C            6.01725454102152       -1.88303498109381        1.92565235311891
C            6.70788885976516       -0.89895035374532        2.60562112153495
C            6.39492890616639        0.43623928788009        2.41291575102287
C            5.39327824094913        0.78065748870903        1.52042833694936
C            4.71042401479728       -0.19497785411608        0.81951262339416
C            2.12872579877455       -1.70422751372460        0.98196242834519
C            0.77794627595428       -1.59386683910224        0.74954679988106
C           -1.97935143455112       -0.94465024101441       -0.28869721557424
C           -1.33125809089422        0.35884008455828       -0.31775170705763
C           -0.27120355970114        0.62245306162992       -1.18673480819808
C            0.30238427925570        1.87205240696388       -1.23410748666703
C           -0.13950817223898        2.89294596516724       -0.38621871969160
N            0.45002565417652        4.15141640673921       -0.42021031327921
C           -0.30255295094524        5.29577836905652       -0.10418828443913
C           -1.61585962843370        5.43189098617933       -0.54993719818724
C           -2.34090118101535        6.56500089151175       -0.23491192489412
C           -1.76818821921409        7.57800094319421        0.51667168189309
C           -0.46042477827674        7.44982337707871        0.95509238535667
C            0.26990734186641        6.31699478602384        0.65184445051726
C            1.77697953693603        4.31984730514912       -0.83892109310236
C            2.76567259646225        3.40350231327549       -0.48036401983716
C            4.06342949704858        3.57494821705693       -0.92265053575984
C            4.40326233801445        4.66741392060019       -1.70338508318368
C            3.42935786144193        5.59051245019708       -2.04580134141611
C            2.12505778823348        5.41776646084454       -1.62576309962791
C           -1.20111036166758        2.62521582507575        0.48561392628304
C           -1.80226286505496        1.38732968890047        0.50011213331588
N           -3.27289942682559       -0.97989442363652       -0.10372041168284
C           -3.93668765207859       -2.12871855062170       -0.28083416990530
H          -10.08156108979260       -3.21012002028499        0.03635808136238
H          -11.32593818195744       -1.27334883890216        0.96389982478025
H          -10.08433387814340        0.69485969946028        1.79050750653839
H           -7.60440270149085        0.71445277666705        1.69278395785718
H           -5.92788084527434       -5.23963717326936       -1.42043743133463
H           -3.45382147892771       -5.17651438147056       -1.75904802131529
H            0.52364011965446       -3.56742103707494       -1.97729294394320
H            2.95597483424064       -3.69678179909685       -1.62621124314649
H            3.50371402223597       -5.07007593041984        0.59034279504917
H            4.75759577992464       -7.06729172083560       -0.11019317065291
H            6.98908863424757       -6.83436609713749       -1.14069239252412
H            7.95740944713160       -4.58670909150072       -1.46760227921550
H            6.69831465719941       -2.58634417017934       -0.77958337577336
H            6.25092092978690       -2.92446786402694        2.09135873584730
H            7.48615662466226       -1.17824243315392        3.30022232749959
H            6.92693987468335        1.20368029901816        2.95408046726668
H            5.14408050896996        1.82060942713804        1.37003567724604
H            3.94294289887952        0.07860388182156        0.10980384793502
H            2.56549678833073       -1.21758880074903        1.84105664214695
H            0.16675491159514       -1.01722588691753        1.42802222112265
H            0.07661399695282       -0.14591923449463       -1.86155312425463
H            1.09129934074749        2.07224007617214       -1.94375951579850
H           -2.05979009443528        4.64752391365342       -1.14513408738036
H           -3.35748539903865        6.66055503175241       -0.58647247008953
H           -2.33726499827432        8.46277382816053        0.75820174717135
H           -0.00752703974798        8.23400347598147        1.54356860062763
H            1.28824285123519        6.21384614239042        0.99742133836412
H            2.50815773538222        2.56024226871506        0.14429623362315
H            4.81967222200478        2.85152273733121       -0.65607250398369
H            5.41982712764477        4.79726317586436       -2.04202007710895
H            3.68329093573746        6.44492490968877       -2.65554609702550
H            1.36402775258479        6.12984455595666       -1.90934542158701
H           -1.55131649436537        3.40104152609095        1.14992797782741
H           -2.63536534652738        1.18468508400853        1.15522510365996

          :  Hamiltonian                  GFN2-xTB          :
         :: gradient norm              0.000022826562 Eh/a0 ::
         :: HOMO-LUMO gap              0.688451907974 eV    ::
         :: SCC energy              -151.177759632634 Eh    ::
         :: -> dispersion             -0.133931831450 Eh    ::
         :: repulsion energy           2.658040487598 Eh    ::

    * Orbital Energies and Occupations

         #    Occupation            Energy/Eh            Energy/eV
      -------------------------------------------------------------
         1        2.0000           -0.7047620             -19.1776
       ...           ...                  ...                  ...
       125        2.0000           -0.4129312             -11.2364
       126        2.0000           -0.4121980             -11.2165
       127        2.0000           -0.4117246             -11.2036
       128        2.0000           -0.4109872             -11.1835
       129        2.0000           -0.4096262             -11.1465
       130        2.0000           -0.4075746             -11.0907
       131        2.0000           -0.4050132             -11.0210
       132        2.0000           -0.4001063             -10.8874
       133        2.0000           -0.3963325             -10.7848
       134        2.0000           -0.3852829             -10.4841
       135        2.0000           -0.3598252              -9.7913
       136        2.0000           -0.3536592              -9.6236
       137        2.0000           -0.3466859              -9.4338 (HOMO)
       138        0.0000           -0.3213858              -8.7454 (LUMO)
       139                         -0.2835928              -7.7170
       140                         -0.2715338              -7.3888
       141                         -0.2559959              -6.9660
       142                         -0.2379443              -6.4748
       143                         -0.2356737              -6.4130
       144                         -0.2349284              -6.3927
       145                         -0.2344986              -6.3810
       146                         -0.2318984              -6.3103
       147                         -0.2295152              -6.2454
       148                         -0.2289973              -6.2313
       ...                                ...                  ...
       266                          0.7387465              20.1023
      -------------------------------------------------------------
                  HL-Gap            0.0253001 Eh            0.6885 eV

     #   Z          covCN         q      C6AA      α(0)
     1   8 O        0.858    -0.368    21.050     6.151
     2   6 C        2.831     0.224    23.290     7.908
     3   6 C        2.975    -0.013    28.342     8.733
     4   6 C        2.923    -0.016    28.416     8.742
     5   6 C        2.918    -0.022    28.558     8.763
     6   6 C        2.918    -0.021    28.534     8.760
     7   6 C        2.923    -0.017    28.426     8.743
     8   6 C        2.975    -0.013    28.323     8.730
     9   6 C        2.828     0.228    23.220     7.896
    10   8 O        0.858    -0.350    20.712     6.102
    11   6 C        2.970    -0.025    28.615     8.774
    12   6 C        2.973    -0.015    28.392     8.740
    13   6 C        2.921    -0.023    28.571     8.766
    14   6 C        2.914    -0.035    28.865     8.810
    15   6 C        2.964     0.080    26.210     8.397
    16   7 N        1.850    -0.231    26.901     7.687
    17   6 C        2.951     0.091    25.974     8.359
    18   6 C        2.979    -0.002    28.069     8.691
    19   6 C        2.922    -0.026    28.651     8.778
    20   6 C        2.921    -0.050    29.231     8.866
    21   6 C        2.921     0.068    26.475     8.438
    22   7 N        2.752    -0.069    22.571     7.056
    23   6 C        2.927     0.064    26.557     8.451
    24   6 C        2.922    -0.045    29.114     8.848
    25   6 C        2.920    -0.028    28.707     8.786
    26   6 C        2.919    -0.036    28.884     8.813
    27   6 C        2.920    -0.028    28.710     8.787
    28   6 C        2.923    -0.045    29.112     8.848
    29   6 C        2.925     0.064    26.560     8.452
    30   6 C        2.923    -0.046    29.147     8.854
    31   6 C        2.919    -0.028    28.708     8.786
    32   6 C        2.919    -0.037    28.918     8.818
    33   6 C        2.920    -0.030    28.745     8.792
    34   6 C        2.921    -0.046    29.149     8.854
    35   6 C        2.921    -0.050    29.235     8.867
    36   6 C        2.923    -0.029    28.727     8.789
    37   6 C        2.953     0.088    26.047     8.371
    38   6 C        2.981    -0.002    28.067     8.690
    39   6 C        2.921    -0.031    28.774     8.797
    40   6 C        2.921    -0.051    29.260     8.870
    41   6 C        2.921     0.067    26.492     8.441
    42   7 N        2.752    -0.069    22.581     7.058
    43   6 C        2.927     0.065    26.553     8.451
    44   6 C        2.922    -0.045    29.108     8.847
    45   6 C        2.920    -0.028    28.702     8.785
    46   6 C        2.919    -0.036    28.888     8.814
    47   6 C        2.920    -0.029    28.714     8.787
    48   6 C        2.923    -0.045    29.116     8.849
    49   6 C        2.925     0.065    26.552     8.450
    50   6 C        2.921    -0.047    29.157     8.855
    51   6 C        2.920    -0.030    28.757     8.794
    52   6 C        2.919    -0.038    28.934     8.821
    53   6 C        2.919    -0.029    28.714     8.787
    54   6 C        2.923    -0.047    29.156     8.855
    55   6 C        2.921    -0.049    29.208     8.863
    56   6 C        2.923    -0.026    28.649     8.778
    57   7 N        1.853    -0.205    26.293     7.600
    58   6 C        2.965     0.086    26.085     8.377
    59   1 H        0.926     0.066     2.135     2.285
    60   1 H        0.926     0.045     2.382     2.414
    61   1 H        0.926     0.045     2.382     2.413
    62   1 H        0.926     0.066     2.135     2.285
    63   1 H        0.926     0.070     2.089     2.260
    64   1 H        0.926     0.060     2.198     2.318
    65   1 H        0.926     0.050     2.325     2.385
    66   1 H        0.926     0.037     2.486     2.466
    67   1 H        0.926     0.036     2.498     2.472
    68   1 H        0.926     0.036     2.506     2.476
    69   1 H        0.926     0.034     2.530     2.487
    70   1 H        0.926     0.035     2.522     2.483
    71   1 H        0.926     0.034     2.537     2.491
    72   1 H        0.926     0.033     2.549     2.497
    73   1 H        0.926     0.034     2.531     2.488
    74   1 H        0.926     0.033     2.548     2.496
    75   1 H        0.926     0.035     2.514     2.480
    76   1 H        0.926     0.034     2.533     2.489
    77   1 H        0.926     0.036     2.500     2.473
    78   1 H        0.926     0.035     2.519     2.482
    79   1 H        0.926     0.030     2.587     2.515
    80   1 H        0.926     0.034     2.536     2.490
    81   1 H        0.926     0.037     2.493     2.469
    82   1 H        0.926     0.036     2.509     2.477
    83   1 H        0.926     0.033     2.539     2.492
    84   1 H        0.926     0.034     2.531     2.488
    85   1 H        0.926     0.033     2.544     2.494
    86   1 H        0.926     0.033     2.543     2.494
    87   1 H        0.926     0.034     2.531     2.488
    88   1 H        0.926     0.032     2.563     2.504
    89   1 H        0.926     0.033     2.542     2.493
    90   1 H        0.926     0.032     2.553     2.499
    91   1 H        0.926     0.039     2.467     2.456
    92   1 H        0.926     0.067     2.123     2.279

molecular dipole:
                 x           y           z       tot (Debye)
 q only:        1.903       1.197      -0.100
   full:        1.862       1.175      -0.124       5.605

 projected vibrational frequencies (cm⁻¹)
eigval :       -0.00    -0.00    -0.00     0.00     0.00     0.00
eigval :        8.23    10.82    11.11    18.17    23.23    30.29
eigval :       34.64    40.82    43.91    45.79    50.02    50.76
eigval :       60.41    64.15    69.28    70.63    80.78    81.09
eigval :      103.34   107.02   110.50   117.68   128.08   142.68
eigval :      148.34   165.06   169.38   180.37   200.83   215.18
eigval :      237.16   237.38   242.00   247.12   253.54   284.77
eigval :      299.52   302.43   311.69   318.83   325.30   343.96
eigval :      346.89   364.46   365.16   371.43   378.25   378.91
eigval :      379.24   382.03   382.42   388.21   391.52   395.48
eigval :      398.52   405.03   417.09   429.19   445.04   468.09
eigval :      475.15   483.62   489.35   493.21   497.22   504.91
eigval :      512.38   538.06   552.78   567.76   572.49   583.53
eigval :      586.01   586.59   588.86   593.64   595.06   604.76
eigval :      608.54   617.42   623.11   640.47   652.22   657.75
eigval :      661.63   661.78   666.52   671.55   677.13   681.10
eigval :      688.62   691.04   708.03   721.65   742.52   753.18
eigval :      758.35   758.72   759.86   763.57   765.72   774.87
eigval :      789.46   819.06   821.85   838.13   846.44   866.88
eigval :      869.36   876.47   876.77   877.34   879.16   880.05
eigval :      894.96   895.20   896.03   896.43   896.77   905.32
eigval :      909.35   909.43   916.48   918.73   919.71   920.16
eigval :      924.89   928.01   928.54   928.72   928.89   929.24
eigval :      929.79   931.26   932.15   933.22   933.42   940.24
eigval :      961.12   983.63   990.99  1004.94  1005.39  1009.91
eigval :     1023.65  1034.50  1067.54  1082.40  1082.63  1084.25
eigval :     1084.77  1087.64  1101.51  1115.57  1120.21  1121.32
eigval :     1122.04  1125.55  1143.00  1144.54  1159.46  1174.66
eigval :     1176.18  1180.47  1180.53  1183.98  1186.47  1187.96
eigval :     1191.98  1193.79  1196.55  1199.54  1202.44  1211.90
eigval :     1216.43  1217.70  1242.11  1255.51  1268.27  1268.71
eigval :     1269.42  1277.44  1278.02  1280.87  1282.09  1287.23
eigval :     1301.39  1308.37  1310.64  1316.02  1316.87  1319.35
eigval :     1325.18  1325.75  1330.85  1331.82  1332.15  1335.30
eigval :     1338.28  1369.35  1389.88  1415.06  1417.01  1421.28
eigval :     1431.22  1435.96  1436.61  1441.61  1442.90  1456.51
eigval :     1462.93  1469.41  1470.59  1473.58  1474.97  1489.09
eigval :     1494.55  1508.80  1516.44  1548.62  1549.71  1568.67
eigval :     1576.89  1577.85  1578.07  1580.29  1581.83  1581.89
eigval :     1589.37  1591.53  1593.31  1594.32  1599.62  1600.44
eigval :     1669.25  1681.46  3076.93  3077.50  3077.65  3078.30
eigval :     3078.88  3079.46  3079.83  3079.91  3080.02  3080.14
eigval :     3082.92  3085.86  3086.71  3087.01  3087.29  3087.91
eigval :     3088.18  3089.13  3090.17  3090.83  3091.15  3091.72
eigval :     3091.83  3092.84  3095.07  3095.55  3097.92  3098.93
eigval :     3099.32  3099.57  3099.95  3100.51  3102.34  3107.03

   temp. (K)  partition function   enthalpy   heat capacity  entropy
                                   cal/mol     cal/K/mol   cal/K/mol   J/K/mol
 298.15  VIB  0.169E+23            27403.787    170.067    172.700
         ROT  0.173E+09              888.752      2.981     40.676
         INT  0.293E+31            28292.539    173.048    213.376
         TR   0.197E+29             1481.254      4.968     45.691
         TOT                       29773.7934   178.0158   259.0663  1083.9333

       T/K    H(0)-H(T)+PV         H(T)/Eh          T*S/Eh         G(T)/Eh
   ------------------------------------------------------------------------
    298.15    0.474476E-01    0.743336E+00    0.123091E+00    0.620246E+00
   ------------------------------------------------------------------------

         :::::::::::::::::::::::::::::::::::::::::::::::::::::
         ::                  THERMODYNAMIC                  ::
         :::::::::::::::::::::::::::::::::::::::::::::::::::::
         :: total free energy        -147.899473592132 Eh   ::
         ::.................................................::
         :: total energy             -148.519719145037 Eh   ::
         :: zero point energy           0.695888740082 Eh   ::
         :: G(RRHO) w/o ZPVE           -0.075643187177 Eh   ::
         :: G(RRHO) contrib.            0.620245552905 Eh   ::
         :::::::::::::::::::::::::::::::::::::::::::::::::::::

           -------------------------------------------------
          | TOTAL ENERGY             -148.519719145037 Eh   |
          | TOTAL ENTHALPY           -147.776382845055 Eh   |
          | TOTAL FREE ENERGY        -147.899473592132 Eh   |
          | GRADIENT NORM               0.000022830721 Eh/α |
          | HOMO-LUMO GAP               0.688452014805 eV   |
           -------------------------------------------------

 * finished run on 2025/07/20 at 06:30:29.365
