   * xtb version 6.7.1 (edcfbbe) compiled by 'albert@albert-system' on 2024-07-22

   ID    Z sym.   atoms
    1    8 O      1, 10
    2    6 C      2-9, 11-15, 17-21, 23-41, 43-56, 58
    3    7 N      16, 22, 42, 57
    4    1 H      59-92

          program call               : xtb data2507/gas/TPA-2/TPA-2_gas_T1_crest.xyz --gfn 2 --spinpol --tblite --uhf 2 --ohess vtight --parallel 40 --molden --ceasefiles --namespace data2507/gas/TPA-2/TPA-2_gas_T1_finalOpt
 * total energy  :  -148.4960060 Eh     change       -0.1322547E-07 Eh
 * total energy  :  -148.4960224 Eh     change       -0.1637994E-04 Eh
 * total energy  :  -148.4960327 Eh     change       -0.1027785E-04 Eh
 * total energy  :  -148.4960362 Eh     change       -0.3533065E-05 Eh
 * total energy  :  -148.4960381 Eh     change       -0.1910389E-05 Eh
 * total energy  :  -148.4960396 Eh     change       -0.1501849E-05 Eh
 * total energy  :  -148.4960397 Eh     change       -0.7772024E-07 Eh
 * total energy  :  -148.4960411 Eh     change       -0.1387220E-05 Eh
 * total energy  :  -148.4960425 Eh     change       -0.1375118E-05 Eh
 * total energy  :  -148.4960435 Eh     change       -0.1022615E-05 Eh
 * total energy  :  -148.4960493 Eh     change       -0.1595639E-05 Eh
 * total energy  :  -148.4960513 Eh     change       -0.2023933E-05 Eh
 * total energy  :  -148.4960531 Eh     change       -0.1777185E-05 Eh
 * total energy  :  -148.4960546 Eh     change       -0.1524363E-05 Eh
 * total energy  :  -148.4960560 Eh     change       -0.1355004E-05 Eh
 * total energy  :  -148.4960568 Eh     change       -0.7893520E-06 Eh
 * total energy  :  -148.4960577 Eh     change       -0.9318800E-06 Eh
 * total energy  :  -148.4960584 Eh     change       -0.6498170E-06 Eh
 * total energy  :  -148.4960584 Eh     change       -0.1540229E-07 Eh
   *** GEOMETRY OPTIMIZATION CONVERGED AFTER 22 ITERATIONS ***

 final structure:
================
92
 xtb: 6.7.1 (edcfbbe)
O           -8.01140225175446       -3.69875181818820        0.11500095312321
C           -7.29425119896197       -2.70538886338308        0.03038493447168
C           -7.84407215828655       -1.35485720431606       -0.18234598630902
C           -9.22917403045876       -1.21231228628923       -0.28803939095019
C           -9.80086021777466        0.02573775018708       -0.48728874439326
C           -8.99447573688209        1.15545746717488       -0.58532021415931
C           -7.62581978837931        1.03597346048491       -0.48371941739162
C           -7.03350324627777       -0.21396041378201       -0.28162232509743
C           -5.57404077877245       -0.28853008987724       -0.17669203516822
O           -4.83509799240070        0.69498567153645       -0.26664534453895
C           -5.04914270842488       -1.61976268817741        0.03463947965913
C           -5.84055318957838       -2.77485406446302        0.13234557659889
C           -5.21563970180021       -4.01472411928551        0.33437952967033
C           -3.85181989260126       -4.13705276583775        0.41413002414309
C           -3.02632188395651       -3.00502154345367        0.30041559010676
N           -1.70314113154718       -3.05368950941500        0.28969533835450
C           -0.95558522185878       -1.97320422057905        0.18744814900784
C            0.48647816470373       -2.16625612330609        0.05855013825970
C            1.26500564669974       -1.38272669345473       -0.79667011482260
C            2.62715862054233       -1.56297475256065       -0.86245126089437
C            3.25442596864559       -2.54472892816996       -0.08903768774485
N            4.63963345004983       -2.68662573933839       -0.12461630051073
C            5.22006912778633       -3.95948154933444       -0.05833397091677
C            4.61898593538914       -5.03730765993050       -0.70781143446531
C            5.19063158157189       -6.29307851278555       -0.64488869974515
C            6.36908446115824       -6.49328671183725        0.05531678115686
C            6.97095931115452       -5.42491444275779        0.69967066853140
C            6.40263465443546       -4.16675059313948        0.65032412483217
C            5.44910150635689       -1.54358013742444       -0.15973746934944
C            5.08342660129141       -0.40104887489253        0.55202897253718
C            5.89444950617448        0.71644197356598        0.53833357225683
C            7.07586012658145        0.71500519107067       -0.18543458629225
C            7.43963555734008       -0.41417037751685       -0.90057979513166
C            6.63503867841943       -1.53734785806947       -0.89234144851482
C            2.46849431671202       -3.37130844234374        0.71699487488153
C            1.10630956317579       -3.18248926004306        0.78721214162326
C           -1.57287618956517       -0.68241733747816        0.18537314779247
C           -0.86283478232076        0.58545665413787        0.24755162799252
C            0.34547815650333        0.75068506887270        0.93062667473815
C            1.00135890340699        1.95933027717676        0.90527758494035
C            0.46322706128093        3.04991865097811        0.21402887637862
N            1.16255066968910        4.25160995676621        0.14923977074713
C            0.47494531161060        5.47259710552788        0.16865416777262
C            0.90115141613910        6.54007825510372       -0.62017731493667
C            0.22192050642416        7.74257246821292       -0.58659689634133
C           -0.89209114712226        7.89718411684249        0.22202679397243
C           -1.32208120832066        6.83718509747582        1.00351442582314
C           -0.64461575644102        5.63365717936321        0.98414890475068
C            2.55471902387920        4.23571938848023       -0.00653025126999
C            3.16343957321518        3.26877529407355       -0.80685381998039
C            4.53322247746347        3.27195884550103       -0.98146081907562
C            5.31594125725377        4.23266078196575       -0.36155345571833
C            4.71744606660740        5.19015251351734        0.44088313070750
C            3.34772212440624        5.19502539163771        0.62165825970890
C           -0.78375842788831        2.90740133608800       -0.40111588230457
C           -1.43482648273822        1.69577688082939       -0.38248377171146
N           -2.88816149696856       -0.64584142544368        0.12023110532276
C           -3.64826708199267       -1.71507049775792        0.14050086354496
H           -9.83248641316366       -2.10473816018988       -0.20847812209228
H          -10.87377167454536        0.11961978025467       -0.56735746791080
H           -9.44095155792797        2.12658895066974       -0.74085236371033
H           -6.98027324920639        1.89886008440858       -0.55573791580670
H           -5.85672844263299       -4.88047420720013        0.41418256945473
H           -3.38072021119368       -5.09747651850812        0.54921249353645
H            0.79411261083797       -0.63970752492938       -1.42234612444985
H            3.22471942039564       -0.94837325796275       -1.51931867670992
H            3.70594881724868       -4.88062662546682       -1.26336639791183
H            4.71661352441668       -7.11917956705535       -1.15390633425694
H            6.81518237574582       -7.47506121228858        0.09862611661271
H            7.88651808944905       -5.57315190668750        1.25297966184565
H            6.86814129552597       -3.33791363290561        1.16319606683249
H            4.16652763329873       -0.40095266771490        1.12308844999599
H            5.60578436949598        1.59156270540692        1.10116528887284
H            7.70931015289596        1.58873934956215       -0.19065417247455
H            8.35533642989001       -0.42050724378489       -1.47323250657582
H            6.91856180646865       -2.41680414550943       -1.45163728510213
H            2.93993761733102       -4.14726832764572        1.30158335459663
H            0.50340097565853       -3.80585315743282        1.42931728319363
H            0.75966025462774       -0.06548567484566        1.50265408367165
H            1.93826897620195        2.07809511427179        1.42944017730096
H            1.76249886113083        6.41844630116076       -1.26055782035711
H            0.56060025788507        8.56172594577868       -1.20358706423687
H           -1.42192773137213        8.83722601885116        0.24246885649468
H           -2.18749885469842        6.94974032378086        1.63944603012028
H           -0.97560916813678        4.81139386127143        1.60127292692721
H            2.55380526538241        2.52470128415698       -1.29818075425279
H            4.99206492495660        2.52356356374566       -1.61031524968401
H            6.38576161808222        4.23494527766026       -0.50394013493806
H            5.32148240608855        5.93756155221590        0.93383762285078
H            2.88207068883576        5.94098123347731        1.24883869310007
H           -1.22517404445450        3.75114705256271       -0.90997334277812
H           -2.39449124401289        1.58252404825163       -0.86232487152873

 projected vibrational frequencies (cm⁻¹)
eigval :       -0.00    -0.00     0.00     0.00     0.00     0.00
eigval :        9.19    11.03    13.17    18.31    25.10    28.46
eigval :       37.82    42.36    44.50    45.48    50.70    54.46
eigval :       58.66    62.45    74.12    79.83    82.76    92.67
eigval :      102.12   110.46   116.96   119.27   138.86   143.48
eigval :      158.18   169.83   174.96   191.14   200.67   211.79
eigval :      232.78   234.17   240.48   252.76   253.38   281.23
eigval :      295.84   302.23   313.86   319.36   327.08   343.52
eigval :      347.97   366.92   368.76   377.53   378.91   379.72
eigval :      383.67   385.43   387.73   388.64   390.87   397.65
eigval :      398.75   409.34   418.83   431.90   460.78   469.28
eigval :      482.48   486.91   491.95   496.09   496.67   504.64
eigval :      526.18   531.49   547.15   562.58   570.59   583.58
eigval :      585.81   586.00   588.70   593.44   594.82   602.02
eigval :      608.33   614.21   622.12   624.46   654.33   655.96
eigval :      659.56   659.71   661.57   663.68   665.20   673.04
eigval :      683.54   688.14   691.73   711.70   720.72   741.31
eigval :      742.21   753.70   757.69   758.02   761.88   763.21
eigval :      785.75   808.46   817.43   822.11   847.00   864.57
eigval :      867.52   874.09   874.25   875.86   876.13   877.16
eigval :      889.61   892.17   893.51   894.07   895.01   902.15
eigval :      907.88   910.23   910.30   915.89   918.61   921.28
eigval :      924.04   925.87   927.90   928.14   928.48   929.06
eigval :      929.75   930.06   930.22   930.41   931.61   932.11
eigval :      956.69   983.46   990.09  1005.11  1005.31  1011.56
eigval :     1023.45  1035.10  1068.44  1083.08  1083.24  1083.61
eigval :     1084.12  1084.30  1100.73  1115.08  1121.72  1122.07
eigval :     1124.03  1124.38  1139.09  1143.32  1165.57  1171.75
eigval :     1178.79  1180.58  1180.65  1181.24  1184.02  1186.18
eigval :     1192.17  1193.46  1195.07  1196.18  1201.87  1213.18
eigval :     1215.42  1221.80  1223.26  1242.92  1255.53  1259.04
eigval :     1266.22  1268.28  1277.82  1278.31  1281.67  1282.21
eigval :     1288.56  1303.40  1312.78  1313.49  1318.69  1320.51
eigval :     1321.84  1325.73  1326.91  1327.29  1328.07  1331.36
eigval :     1340.01  1349.24  1389.67  1402.92  1414.94  1415.74
eigval :     1421.03  1430.26  1436.08  1436.58  1442.30  1442.71
eigval :     1449.97  1463.75  1469.77  1470.61  1473.74  1474.94
eigval :     1481.34  1486.90  1509.46  1530.76  1544.22  1547.91
eigval :     1557.23  1560.08  1576.92  1577.35  1579.14  1580.89
eigval :     1581.37  1585.14  1588.70  1593.17  1594.08  1598.61
eigval :     1599.49  1619.31  3077.47  3078.08  3078.32  3078.71
eigval :     3078.99  3079.11  3079.40  3080.09  3080.75  3082.60
eigval :     3083.97  3085.51  3087.27  3087.41  3088.05  3088.59
eigval :     3089.01  3089.78  3090.82  3091.05  3091.51  3092.30
eigval :     3092.62  3093.17  3094.96  3095.87  3096.69  3099.15
eigval :     3099.90  3100.04  3100.78  3102.17  3104.35  3109.86

   temp. (K)  partition function   enthalpy   heat capacity  entropy
                                   cal/mol     cal/K/mol   cal/K/mol   J/K/mol
 298.15  VIB  0.637E+22            27335.808    170.814    171.368
         ROT  0.168E+09              888.752      2.981     40.619
         INT  0.107E+31            28224.560    173.795    211.987
         TR   0.197E+29             1481.254      4.968     45.691
         TOT                       29705.8144   178.7633   257.6779  1078.1243

       T/K    H(0)-H(T)+PV         H(T)/Eh          T*S/Eh         G(T)/Eh
   ------------------------------------------------------------------------
    298.15    0.473392E-01    0.741790E+00    0.122431E+00    0.619358E+00
   ------------------------------------------------------------------------

         :::::::::::::::::::::::::::::::::::::::::::::::::::::
         ::                  THERMODYNAMIC                  ::
         :::::::::::::::::::::::::::::::::::::::::::::::::::::
         :: total free energy        -147.876699889038 Eh   ::
         ::.................................................::
         :: total energy             -148.496058383496 Eh   ::
         :: zero point energy           0.694450341764 Eh   ::
         :: G(RRHO) w/o ZPVE           -0.075091847305 Eh   ::
         :: G(RRHO) contrib.            0.619358494458 Eh   ::
         :::::::::::::::::::::::::::::::::::::::::::::::::::::

           -------------------------------------------------
          | TOTAL ENERGY             -148.496058383496 Eh   |
          | TOTAL ENTHALPY           -147.754268813264 Eh   |
          | TOTAL FREE ENERGY        -147.876699889038 Eh   |
          | GRADIENT NORM               0.000077455519 Eh/α |
           -------------------------------------------------

 * finished run on 2025/07/20 at 06:50:21.791
