   * xtb version 6.7.1 (edcfbbe) compiled by 'albert@albert-system' on 2024-07-22

   ID    Z sym.   atoms
    1    8 O      1, 10
    2    6 C      2-9, 11-15, 17-21, 23-41, 43-56, 58
    3    7 N      16, 22, 42, 57
    4    1 H      59-92

          program call               : xtb data2507/gas/TPA-2/TPA-2_gas_S0_finalOpt.xtbopt.xyz --gfn 2 --spinpol --tblite --uhf 2 --ohess vtight --parallel 40 --molden --ceasefiles --namespace data2507/gas/TPA-2/TPA-2_gas_T1_preOpt
 * total energy  :  -148.4880856 Eh     change       -0.1857236E-07 Eh
 * total energy  :  -148.4918541 Eh     change       -0.3768488E-02 Eh
 * total energy  :  -148.4937308 Eh     change       -0.1876722E-02 Eh
 * total energy  :  -148.4942474 Eh     change       -0.5165578E-03 Eh
 * total energy  :  -148.4948515 Eh     change       -0.6041581E-03 Eh
 * total energy  :  -148.4951409 Eh     change       -0.2893700E-03 Eh
 * total energy  :  -148.4953582 Eh     change       -0.2173368E-03 Eh
 * total energy  :  -148.4955197 Eh     change       -0.1614206E-03 Eh
 * total energy  :  -148.4956019 Eh     change       -0.8220681E-04 Eh
 * total energy  :  -148.4956798 Eh     change       -0.7796946E-04 Eh
 * total energy  :  -148.4960597 Eh     change       -0.2843114E-06 Eh
 * total energy  :  -148.4960600 Eh     change       -0.3461921E-06 Eh
 * total energy  :  -148.4960604 Eh     change       -0.3376969E-06 Eh
 * total energy  :  -148.4960607 Eh     change       -0.3121901E-06 Eh
 * total energy  :  -148.4960603 Eh     change        0.4154243E-06 Eh
 * total energy  :  -148.4960606 Eh     change       -0.2991950E-06 Eh
 * total energy  :  -148.4960609 Eh     change       -0.3109593E-06 Eh
 * total energy  :  -148.4960613 Eh     change       -0.4557716E-06 Eh
 * total energy  :  -148.4960614 Eh     change       -0.3884045E-07 Eh
   *** GEOMETRY OPTIMIZATION CONVERGED AFTER 68 ITERATIONS ***

 final structure:
================
92
 xtb: 6.7.1 (edcfbbe)
O           -8.05542088129213       -3.58711053730648        0.18094987565461
C           -7.32342721700035       -2.60600025913683        0.08231548770501
C           -7.85314739028342       -1.24974817265486       -0.14469204365206
C           -9.23601685458439       -1.08774413620488       -0.25168003136819
C           -9.78926099497449        0.15636263595318       -0.46479238559355
C           -8.96615565681749        1.27279003064390       -0.57532011913594
C           -7.59941487736878        1.13409122024873       -0.47232968596150
C           -7.02568441704513       -0.12224120124364       -0.25667687734958
C           -5.56742069863361       -0.21753530899387       -0.15189053202259
O           -4.81409450441794        0.75417864419721       -0.25077837492779
C           -5.06205948254452       -1.55465141965491        0.06931938773376
C           -5.87054689265383       -2.69667834878300        0.17973965701419
C           -5.26375949051308       -3.94411225679804        0.39024267501335
C           -3.90156537771502       -4.08680691543313        0.46450406476784
C           -3.05934422929502       -2.96867487583936        0.33718642213228
N           -1.73707345432053       -3.03752242047403        0.31803022174495
C           -0.97392295108748       -1.96923921125537        0.20428716678971
C            0.46392374999066       -2.18413367192318        0.06356039731259
C            1.24387058281502       -1.41817937507007       -0.80620952162595
C            2.60283024168765       -1.61640437497764       -0.88376508301775
C            3.22552290226849       -2.59826151627392       -0.10662475984132
N            4.60864335745190       -2.75549387393872       -0.15224434362797
C            5.17694840757266       -4.03297305858896       -0.06993722562616
C            4.56217752678628       -5.11434279735410       -0.70036811012917
C            5.12146115649116       -6.37474352081036       -0.62075878617343
C            6.30092337625611       -6.57618134782951        0.07739967048599
C            6.91664978870875       -5.50421703256165        0.70239286692867
C            6.36084372177880       -4.24124560423109        0.63619066703889
C            5.43004088946128       -1.62168332726311       -0.20846717495325
C            5.08240131334623       -0.46589093563922        0.49077557839705
C            5.90500977142104        0.64263249872736        0.45539623216393
C            7.08033891747386        0.61889087939766       -0.27780505720604
C            7.42663062573103       -0.52389106312507       -0.97993360528450
C            6.61030238667614       -1.63820742934210       -0.95001090567381
C            2.43698380321798       -3.40792754330181        0.71398495992483
C            1.07783075900187       -3.20186586166181        0.79500071128281
C           -1.57122260685131       -0.66890595705316        0.20096439706694
C           -0.84408403109222        0.58927811111690        0.25921145514797
C            0.37584942576622        0.73700039821908        0.92556072455718
C            1.04331528305468        1.93936453402612        0.90099577583014
C            0.50513818547012        3.04179696304242        0.22897090196361
N            1.21169142132370        4.23945974019952        0.16914038916667
C            0.53181766392420        5.46414490337764        0.21617990926223
C            0.95182920166619        6.53965239349650       -0.56496541581260
C            0.28078312981189        7.74566212410120       -0.50384805977089
C           -0.81876796690296        7.89591059790461        0.32514629367220
C           -1.24264265388028        6.82793890390280        1.09907323883345
C           -0.57324195802301        5.62067441753429        1.05203689772120
C            2.60180419365134        4.21822085851136       -0.00211797933659
C            3.19674214896131        3.25806086006773       -0.82071851393647
C            4.56456364256780        3.25678394371910       -1.01053730372354
C            5.35897407645630        4.20603551211098       -0.38783940140605
C            4.77417318014704        5.15662016886763        0.43275628564548
C            3.40661444236855        5.16594569399298        0.62877354000215
C           -0.75131531414802        2.91617792884820       -0.37050857662810
C           -1.41336380863339        1.71061213471071       -0.35406011921709
N           -2.88629978061994       -0.61324757212033        0.14177316411780
C           -3.66237848443921       -1.67051793413951        0.17116456020383
H           -9.85255085356600       -1.97012916514920       -0.16203974908861
H          -10.86067527441059        0.26529065814615       -0.54599634380766
H           -9.39812384527970        2.24868694226739       -0.74167883430243
H           -6.94120525486067        1.98649779862804       -0.55391933501038
H           -5.91763851588521       -4.79918485822616        0.48072377841766
H           -3.44477456452057       -5.05330642142608        0.60528691337782
H            0.77614840333617       -0.67408574856227       -1.43303334640755
H            3.20144410820954       -1.01542494502915       -1.55215430734184
H            3.64823481488719       -4.95683379274670       -1.25419184770643
H            4.63687180609171       -7.20370574840103       -1.11495065486915
H            6.73709751355236       -7.56172544302234        0.13414356589820
H            7.83319619644741       -5.65324188207406        1.25385030167389
H            6.83713464810307       -3.40937498144506        1.13403049999288
H            4.17032563745011       -0.44822798475017        1.06922889379938
H            5.63020278561152        1.52818978475783        1.00877009862957
H            7.72274000765524        1.48582051431034       -0.30017083610245
H            8.33774335149712       -0.54788623243533       -1.55939544003782
H            6.88017631923144       -2.52823600541051       -1.49925654485354
H            2.90420267600889       -4.18407479068023        1.30169802078990
H            0.47357782996656       -3.81203513359101        1.44842335182869
H            0.79012581440878       -0.08739580953122        1.48550288046232
H            1.98878543590891        2.04422854489071        1.41263823759366
H            1.80190348083128        6.42148371674924       -1.22088068969844
H            0.61432843824829        8.57113194965692       -1.11518574994330
H           -1.34218062342932        8.83882810953378        0.36724914389395
H           -2.09661273181335        6.93708212035136        1.75087671909688
H           -0.89916667493950        4.79200050757319        1.66326195895394
H            2.57800361870763        2.52295151668759       -1.31414813095743
H            5.01252791202391        2.51384328171379       -1.65357684494795
H            6.42718608190343        4.20495040667726       -0.54206929404745
H            5.38733521111779        5.89504635433112        0.92797783603144
H            2.95172723503452        5.90640295941449        1.27020884711278
H           -1.19210846287204        3.76888156653881       -0.86476934129383
H           -2.38073196002176        1.61092083001268       -0.82130058587639

 projected vibrational frequencies (cm⁻¹)
eigval :       -0.00    -0.00     0.00     0.00     0.00     0.00
eigval :        9.16    11.00    12.94    18.20    24.93    27.91
eigval :       37.66    42.46    44.31    45.65    50.87    54.25
eigval :       58.64    62.51    73.86    79.09    82.84    92.40
eigval :      101.94   110.20   117.14   119.19   138.98   143.47
eigval :      158.11   169.84   174.66   190.87   200.73   211.65
eigval :      232.84   234.03   240.65   252.63   253.36   281.32
eigval :      295.91   302.40   313.84   319.28   327.04   343.57
eigval :      348.09   366.80   368.89   377.45   378.85   379.60
eigval :      383.77   385.35   387.54   388.54   390.79   397.48
eigval :      398.83   409.23   418.83   431.83   460.76   469.28
eigval :      482.45   486.83   491.93   496.10   496.63   504.63
eigval :      526.07   531.47   547.21   562.64   570.69   583.63
eigval :      585.73   586.03   588.61   593.46   594.73   601.84
eigval :      609.15   614.19   621.60   624.48   654.10   655.77
eigval :      659.56   659.62   661.54   663.60   665.13   673.00
eigval :      683.59   688.09   691.71   711.60   720.98   741.23
eigval :      742.37   753.80   757.64   757.93   761.77   763.25
eigval :      785.69   808.34   817.32   822.08   846.98   864.56
eigval :      867.56   873.98   874.25   875.72   876.14   877.30
eigval :      889.48   892.16   893.44   893.93   894.89   902.12
eigval :      907.77   910.26   910.35   915.86   918.59   921.25
eigval :      923.93   926.08   927.78   928.08   928.45   928.86
eigval :      929.66   929.99   930.06   930.28   931.78   932.06
eigval :      956.57   983.30   989.98  1005.15  1005.38  1011.63
eigval :     1023.44  1035.43  1068.25  1083.02  1083.26  1083.64
eigval :     1084.17  1084.42  1100.65  1114.65  1121.76  1122.11
eigval :     1124.04  1124.41  1139.12  1143.56  1165.45  1171.57
eigval :     1178.54  1180.41  1180.43  1181.29  1184.05  1186.24
eigval :     1191.94  1193.81  1194.87  1196.03  1201.77  1213.21
eigval :     1215.92  1221.87  1224.14  1242.24  1255.53  1258.87
eigval :     1266.01  1268.12  1277.73  1278.20  1281.51  1282.06
eigval :     1288.60  1303.12  1312.73  1313.35  1318.62  1320.13
eigval :     1321.17  1325.55  1327.00  1327.35  1328.18  1331.48
eigval :     1340.15  1349.89  1389.18  1403.37  1414.71  1415.59
eigval :     1420.94  1428.22  1436.06  1436.44  1442.28  1442.72
eigval :     1450.37  1464.21  1469.85  1470.73  1473.64  1474.83
eigval :     1480.96  1487.41  1509.43  1530.72  1544.30  1547.76
eigval :     1557.95  1560.05  1576.77  1577.24  1579.41  1580.70
eigval :     1581.16  1585.07  1588.47  1592.98  1593.85  1598.51
eigval :     1599.24  1619.47  3077.41  3077.92  3078.19  3078.56
eigval :     3078.89  3079.04  3079.33  3080.06  3080.64  3082.54
eigval :     3083.89  3085.52  3087.14  3087.37  3087.96  3088.55
eigval :     3089.01  3089.60  3090.71  3091.00  3091.45  3092.29
eigval :     3092.56  3093.04  3094.96  3095.73  3096.96  3099.01
eigval :     3099.89  3100.04  3100.70  3102.02  3104.29  3110.04

   temp. (K)  partition function   enthalpy   heat capacity  entropy
                                   cal/mol     cal/K/mol   cal/K/mol   J/K/mol
 298.15  VIB  0.684E+22            27340.860    170.806    171.447
         ROT  0.168E+09              888.752      2.981     40.621
         INT  0.115E+31            28229.612    173.787    212.068
         TR   0.197E+29             1481.254      4.968     45.691
         TOT                       29710.8662   178.7550   257.7585  1078.4614

       T/K    H(0)-H(T)+PV         H(T)/Eh          T*S/Eh         G(T)/Eh
   ------------------------------------------------------------------------
    298.15    0.473473E-01    0.741768E+00    0.122469E+00    0.619299E+00
   ------------------------------------------------------------------------

         :::::::::::::::::::::::::::::::::::::::::::::::::::::
         ::                  THERMODYNAMIC                  ::
         :::::::::::::::::::::::::::::::::::::::::::::::::::::
         :: total free energy        -147.876762337448 Eh   ::
         ::.................................................::
         :: total energy             -148.496061380054 Eh   ::
         :: zero point energy           0.694421128437 Eh   ::
         :: G(RRHO) w/o ZPVE           -0.075122085832 Eh   ::
         :: G(RRHO) contrib.            0.619299042605 Eh   ::
         :::::::::::::::::::::::::::::::::::::::::::::::::::::

           -------------------------------------------------
          | TOTAL ENERGY             -148.496061380054 Eh   |
          | TOTAL ENTHALPY           -147.754292972580 Eh   |
          | TOTAL FREE ENERGY        -147.876762337448 Eh   |
          | GRADIENT NORM               0.000099154115 Eh/α |
           -------------------------------------------------

 * finished run on 2025/07/20 at 06:40:01.660
