   * xtb version 6.7.1 (edcfbbe) compiled by 'albert@albert-system' on 2024-07-22

   ID    Z sym.   atoms
    1    8 O      1, 10
    2    6 C      2-9, 11-15, 17-21, 23-41, 43-56, 58
    3    7 N      16, 22, 42, 57
    4    1 H      59-92

          program call               : xtb data2507/gas/TPA-2/TPA-2_gas_S0_crest.xyz --gfn 2 --ohess vtight --parallel 40 --molden --ceasefiles --namespace data2507/gas/TPA-2/TPA-2_gas_S0_finalOpt
          :  Hamiltonian                  GFN2-xTB          :
 * total energy  :  -148.5218727 Eh     change       -0.2811220E-08 Eh
 * total energy  :  -148.5218753 Eh     change       -0.2586712E-05 Eh
 * total energy  :  -148.5218796 Eh     change       -0.4280832E-05 Eh
 * total energy  :  -148.5218836 Eh     change       -0.3965602E-05 Eh
 * total energy  :  -148.5218854 Eh     change       -0.1872975E-05 Eh
 * total energy  :  -148.5218873 Eh     change       -0.1868667E-05 Eh
 * total energy  :  -148.5218903 Eh     change       -0.3015704E-05 Eh
 * total energy  :  -148.5218936 Eh     change       -0.3230130E-05 Eh
 * total energy  :  -148.5218958 Eh     change       -0.2243248E-05 Eh
 * total energy  :  -148.5218976 Eh     change       -0.1802835E-05 Eh
 * total energy  :  -148.5219417 Eh     change       -0.7453855E-06 Eh
 * total energy  :  -148.5219423 Eh     change       -0.6120182E-06 Eh
 * total energy  :  -148.5219428 Eh     change       -0.5074593E-06 Eh
 * total energy  :  -148.5219433 Eh     change       -0.4984894E-06 Eh
 * total energy  :  -148.5219439 Eh     change       -0.5949843E-06 Eh
 * total energy  :  -148.5219447 Eh     change       -0.7875593E-06 Eh
 * total energy  :  -148.5219457 Eh     change       -0.1058012E-05 Eh
 * total energy  :  -148.5219471 Eh     change       -0.1358848E-05 Eh
 * total energy  :  -148.5219471 Eh     change       -0.3439652E-08 Eh
   *** GEOMETRY OPTIMIZATION CONVERGED AFTER 44 ITERATIONS ***

 final structure:
================
92
 xtb: 6.7.1 (edcfbbe)
O           -7.98524900373237       -3.60814329593598        0.37098400856506
C           -7.30560848355432       -2.62038333006065        0.15739588663371
C           -7.90587809345893       -1.32627089035824       -0.22815023292047
C           -9.29349361351831       -1.20845207206349       -0.25619743820818
C           -9.89065565979106       -0.01324407397402       -0.61095446613331
C           -9.10533361947750        1.07829012893821       -0.95237112797958
C           -7.72692463210386        0.96887720367218       -0.93986581149818
C           -7.11395247972823       -0.22610146830339       -0.57425277362173
C           -5.63312622371648       -0.30625730056784       -0.60122735753146
O           -4.96154636026400        0.57663284302250       -1.09891556933608
C           -5.05400616091313       -1.52990224788109       -0.01555257908300
C           -5.83357170097308       -2.63702985242095        0.30150061373192
C           -5.24217906150949       -3.82033587095829        0.78638762355041
C           -3.88680022611503       -3.93722096291083        0.92638239492877
C           -3.06579782562995       -2.83866231533995        0.61774665896819
N           -1.72812008423791       -2.96383702364032        0.60840490295348
C           -0.97923786115279       -1.92201418862161        0.33310434437635
C            0.44507565803542       -2.15834817683757        0.13551267945068
C            1.20825409449478       -1.38900117662679       -0.74720610649477
C            2.56404278339080       -1.59334680127196       -0.85849748496407
C            3.20057435785079       -2.58179737462592       -0.10116979132892
N            4.58173550008111       -2.74098136577708       -0.17605793856870
C            5.15192422953503       -4.01759984723597       -0.09655165348958
C            4.52578183531619       -5.10386685493742       -0.70710819906380
C            5.08716249186284       -6.36343032663502       -0.62896659485516
C            6.28009370332391       -6.55937235522650        0.04751409133361
C            6.90743646723735       -5.48251707208230        0.65222899496354
C            6.34970334100776       -4.22038196036371        0.58760226273566
C            5.40486813584868       -1.60901121777162       -0.25077112910041
C            5.08000293248796       -0.45396822693130        0.46028834614900
C            5.90742032774693        0.65031568741659        0.40851547147075
C            7.06424454877748        0.62294510022786       -0.35342327605674
C            7.38698218931114       -0.51868918304976       -1.06839595064835
C            6.56592340065381       -1.62897316273790       -1.02177504233567
C            2.42776009093842       -3.39566474808601        0.73152907539215
C            1.07241676349575       -3.18624249179177        0.84280832141787
C           -1.58527467031805       -0.61376386376162        0.26382514738540
C           -0.84540501711876        0.64013379450940        0.33651476961864
C            0.37221794982497        0.77298520465563        1.00841100793230
C            1.06078780544637        1.96443644097108        0.97413853863182
C            0.54291967104631        3.06665593143598        0.28862383905520
N            1.27145430968002        4.25415734595049        0.21847820007542
C            0.61155983545245        5.48608634467815        0.30066197298715
C            1.02770495004976        6.57210519607403       -0.46837652139178
C            0.37339167748756        7.78463411182526       -0.36925488016707
C           -0.70664306600755        7.93241107812538        0.48546657346578
C           -1.12858743598065        6.85389673908219        1.24557126102853
C           -0.47559056795036        5.63987471195405        1.16067074269575
C            2.65144383554186        4.20440524456097       -0.01001981589259
C            3.19155105924521        3.22747556793670       -0.84695131821296
C            4.54930737631375        3.19775792926402       -1.09638159621265
C            5.38901270029647        4.13455260622721       -0.51575557805175
C            4.85978362640160        5.09948347143598        0.32545336122835
C            3.50271903436618        5.13698362518736        0.58157589916300
C           -0.70990828979626        2.95676792079988       -0.32021546548468
C           -1.39075962288498        1.76165512884743       -0.29625831431916
N           -2.88607396335915       -0.51323067066700        0.14849876029283
C           -3.65624292002495       -1.60306267132254        0.21630133350895
H           -9.88459792928558       -2.07332305210178        0.00655040107957
H          -10.96731756835532        0.06894079212755       -0.62433058585126
H           -9.56972012110085        2.01259082313217       -1.23125173201113
H           -7.09696704396842        1.80333614953640       -1.21058053076005
H           -5.90123853091910       -4.64511413108500        1.01444771279419
H           -3.42285884989242       -4.85932455089119        1.24050030021609
H            0.72931876524712       -0.64016310743857       -1.35994747662860
H            3.15008414829546       -0.98988641298069       -1.53591292499645
H            3.60111616833310       -4.95083210997551       -1.24406681422696
H            4.59332449752114       -7.19627465844707       -1.10727731719839
H            6.71771101519528       -7.54436840813744        0.10326143950691
H            7.83468133115168       -5.62704612177905        1.18681375555283
H            6.83522165654540       -3.38475527034365        1.07004100254286
H            4.18208399328675       -0.43369403107800        1.06037367117940
H            5.65106217495177        1.53552171505042        0.97111169446866
H            7.71050346078348        1.48654842834537       -0.38836948045519
H            8.28314605513314       -0.54510236279295       -1.67068245122918
H            6.81746853316060       -2.51881281254766       -1.58004338940945
H            2.90712218776028       -4.17485318512501        1.30548030710988
H            0.47589561302634       -3.79477017969941        1.50441750321402
H            0.77058320508033       -0.05331677214722        1.57781655090293
H            2.00839356316237        2.05910406389768        1.48419575238647
H            1.86156025585177        6.45709455544212       -1.14529268474595
H            0.70461839286728        8.61793488292635       -0.97130926624828
H           -1.21644467116916        8.88099680884817        0.55776501640764
H           -1.96802860756498        6.96017214348523        1.91667763873274
H           -0.80014718079905        4.80274121137637        1.76112699791451
H            2.53747869707590        2.50201484875358       -1.30800052127475
H            4.95403722710398        2.44245548338862       -1.75362302993801
H            6.44894735050790        4.11228958981223       -0.71804578198192
H            5.50871917784231        5.82753160623980        0.78972330713461
H            3.09192657021924        5.88877986487021        1.23943637210944
H           -1.12854190957114        3.81189128739864       -0.82984667992393
H           -2.34827359570193        1.65878271861616       -0.78315256482317

          :  Hamiltonian                  GFN2-xTB          :
         :: gradient norm              0.000046345465 Eh/a0 ::
         :: HOMO-LUMO gap              0.676810626905 eV    ::
         :: SCC energy              -151.179252626880 Eh    ::
         :: -> dispersion             -0.136800608819 Eh    ::
         :: repulsion energy           2.657305521224 Eh    ::

    * Orbital Energies and Occupations

         #    Occupation            Energy/Eh            Energy/eV
      -------------------------------------------------------------
         1        2.0000           -0.7060309             -19.2121
       ...           ...                  ...                  ...
       125        2.0000           -0.4119266             -11.2091
       126        2.0000           -0.4115609             -11.1991
       127        2.0000           -0.4100292             -11.1575
       128        2.0000           -0.4099449             -11.1552
       129        2.0000           -0.4085115             -11.1162
       130        2.0000           -0.4071361             -11.0787
       131        2.0000           -0.4053789             -11.0309
       132        2.0000           -0.4015254             -10.9261
       133        2.0000           -0.3952914             -10.7564
       134        2.0000           -0.3868982             -10.5280
       135        2.0000           -0.3591505              -9.7730
       136        2.0000           -0.3535175              -9.6197
       137        2.0000           -0.3481850              -9.4746 (HOMO)
       138        0.0000           -0.3233127              -8.7978 (LUMO)
       139                         -0.2859080              -7.7800
       140                         -0.2750427              -7.4843
       141                         -0.2587102              -7.0399
       142                         -0.2367001              -6.4409
       143                         -0.2358447              -6.4177
       144                         -0.2355788              -6.4104
       145                         -0.2341003              -6.3702
       146                         -0.2304514              -6.2709
       147                         -0.2299217              -6.2565
       148                         -0.2293021              -6.2396
       ...                                ...                  ...
       266                          0.7372317              20.0611
      -------------------------------------------------------------
                  HL-Gap            0.0248723 Eh            0.6768 eV

     #   Z          covCN         q      C6AA      α(0)
     1   8 O        0.858    -0.367    21.041     6.150
     2   6 C        2.831     0.224    23.291     7.908
     3   6 C        2.975    -0.013    28.342     8.733
     4   6 C        2.923    -0.016    28.413     8.741
     5   6 C        2.918    -0.022    28.553     8.763
     6   6 C        2.918    -0.021    28.530     8.759
     7   6 C        2.924    -0.017    28.423     8.743
     8   6 C        2.975    -0.013    28.325     8.730
     9   6 C        2.828     0.228    23.222     7.896
    10   8 O        0.858    -0.352    20.739     6.106
    11   6 C        2.970    -0.025    28.617     8.775
    12   6 C        2.973    -0.015    28.379     8.738
    13   6 C        2.921    -0.022    28.562     8.764
    14   6 C        2.914    -0.035    28.863     8.810
    15   6 C        2.960     0.081    26.196     8.395
    16   7 N        1.853    -0.232    26.920     7.690
    17   6 C        2.946     0.090    25.999     8.363
    18   6 C        2.980    -0.001    28.051     8.688
    19   6 C        2.921    -0.028    28.700     8.785
    20   6 C        2.921    -0.046    29.154     8.854
    21   6 C        2.926     0.069    26.467     8.437
    22   7 N        2.753    -0.070    22.597     7.060
    23   6 C        2.924     0.064    26.561     8.452
    24   6 C        2.922    -0.047    29.161     8.856
    25   6 C        2.920    -0.028    28.709     8.786
    26   6 C        2.919    -0.037    28.918     8.818
    27   6 C        2.920    -0.029    28.715     8.787
    28   6 C        2.922    -0.047    29.167     8.856
    29   6 C        2.926     0.065    26.552     8.450
    30   6 C        2.922    -0.046    29.140     8.852
    31   6 C        2.919    -0.027    28.675     8.781
    32   6 C        2.919    -0.036    28.898     8.815
    33   6 C        2.919    -0.029    28.722     8.789
    34   6 C        2.922    -0.046    29.151     8.854
    35   6 C        2.920    -0.047    29.171     8.857
    36   6 C        2.925    -0.026    28.658     8.779
    37   6 C        2.948     0.086    26.076     8.375
    38   6 C        2.982    -0.001    28.042     8.686
    39   6 C        2.919    -0.030    28.757     8.794
    40   6 C        2.921    -0.047    29.167     8.856
    41   6 C        2.926     0.068    26.484     8.439
    42   7 N        2.753    -0.071    22.612     7.062
    43   6 C        2.924     0.065    26.554     8.451
    44   6 C        2.922    -0.047    29.172     8.857
    45   6 C        2.920    -0.029    28.719     8.788
    46   6 C        2.919    -0.037    28.925     8.819
    47   6 C        2.920    -0.028    28.705     8.786
    48   6 C        2.923    -0.047    29.159     8.855
    49   6 C        2.925     0.065    26.542     8.449
    50   6 C        2.923    -0.047    29.159     8.855
    51   6 C        2.919    -0.027    28.678     8.782
    52   6 C        2.919    -0.037    28.923     8.819
    53   6 C        2.919    -0.029    28.733     8.790
    54   6 C        2.922    -0.047    29.170     8.857
    55   6 C        2.919    -0.045    29.128     8.850
    56   6 C        2.926    -0.027    28.673     8.781
    57   7 N        1.856    -0.206    26.312     7.603
    58   6 C        2.960     0.087    26.072     8.375
    59   1 H        0.926     0.066     2.132     2.283
    60   1 H        0.926     0.045     2.377     2.411
    61   1 H        0.926     0.045     2.377     2.411
    62   1 H        0.926     0.066     2.132     2.283
    63   1 H        0.926     0.070     2.084     2.257
    64   1 H        0.926     0.060     2.196     2.317
    65   1 H        0.926     0.036     2.508     2.477
    66   1 H        0.926     0.036     2.505     2.475
    67   1 H        0.926     0.034     2.532     2.488
    68   1 H        0.926     0.034     2.524     2.484
    69   1 H        0.926     0.033     2.548     2.496
    70   1 H        0.926     0.033     2.538     2.491
    71   1 H        0.926     0.032     2.551     2.498
    72   1 H        0.926     0.030     2.582     2.513
    73   1 H        0.926     0.033     2.539     2.492
    74   1 H        0.926     0.032     2.554     2.499
    75   1 H        0.926     0.034     2.532     2.488
    76   1 H        0.926     0.034     2.529     2.487
    77   1 H        0.926     0.039     2.468     2.457
    78   1 H        0.926     0.055     2.264     2.353
    79   1 H        0.926     0.031     2.572     2.508
    80   1 H        0.926     0.033     2.543     2.494
    81   1 H        0.926     0.032     2.554     2.499
    82   1 H        0.926     0.033     2.548     2.496
    83   1 H        0.926     0.032     2.559     2.502
    84   1 H        0.926     0.034     2.532     2.488
    85   1 H        0.926     0.034     2.536     2.490
    86   1 H        0.926     0.030     2.584     2.514
    87   1 H        0.926     0.032     2.563     2.503
    88   1 H        0.926     0.031     2.577     2.510
    89   1 H        0.926     0.033     2.548     2.496
    90   1 H        0.926     0.034     2.537     2.491
    91   1 H        0.926     0.040     2.443     2.444
    92   1 H        0.926     0.076     2.020     2.222

molecular dipole:
                 x           y           z       tot (Debye)
 q only:        1.794       0.888       0.153
   full:        1.760       0.870       0.168       5.008

 projected vibrational frequencies (cm⁻¹)
eigval :       -0.00    -0.00    -0.00    -0.00     0.00     0.00
eigval :        8.34    11.34    12.07    17.91    24.84    28.70
eigval :       32.18    38.20    43.51    44.39    46.71    51.98
eigval :       58.74    62.60    72.56    80.38    83.03    91.63
eigval :      102.00   104.31   109.26   118.85   129.21   142.14
eigval :      155.38   167.26   173.14   188.08   198.40   211.63
eigval :      233.11   233.32   241.88   247.71   252.62   281.80
eigval :      298.15   301.41   312.50   321.48   324.17   343.19
eigval :      348.07   366.17   368.62   372.15   377.65   379.00
eigval :      379.28   383.73   385.76   387.56   392.50   396.56
eigval :      398.13   405.25   418.03   430.88   444.69   468.73
eigval :      474.59   482.08   487.21   492.02   494.81   503.34
eigval :      516.72   537.94   551.97   567.71   571.91   583.94
eigval :      586.42   586.62   588.68   593.57   595.35   604.47
eigval :      609.78   615.57   624.42   640.08   651.78   657.96
eigval :      659.39   660.00   664.53   672.17   675.71   683.14
eigval :      689.62   692.90   709.32   722.30   743.44   752.26
eigval :      757.43   757.91   758.39   762.74   764.55   774.93
eigval :      789.41   819.46   823.61   837.94   846.94   866.37
eigval :      871.00   873.75   874.40   875.84   876.14   880.48
eigval :      891.72   893.06   893.61   894.50   895.31   905.21
eigval :      910.31   910.47   916.66   919.05   920.40   922.28
eigval :      927.38   927.94   928.58   928.78   928.86   929.70
eigval :      929.94   930.27   930.73   931.51   933.52   934.25
eigval :      962.09   983.30   991.09  1005.08  1005.36  1010.76
eigval :     1023.67  1033.32  1067.55  1083.16  1083.38  1084.22
eigval :     1084.33  1084.88  1099.25  1114.12  1121.63  1122.03
eigval :     1123.99  1124.48  1137.75  1139.61  1159.37  1174.62
eigval :     1178.87  1180.59  1180.68  1181.05  1183.86  1186.53
eigval :     1191.88  1193.49  1195.34  1196.43  1199.20  1213.26
eigval :     1215.24  1217.63  1242.20  1255.54  1264.86  1266.31
eigval :     1268.85  1278.03  1278.46  1280.38  1282.53  1287.44
eigval :     1299.89  1312.34  1315.05  1318.56  1319.41  1321.68
eigval :     1326.22  1326.95  1327.71  1328.92  1331.07  1335.26
eigval :     1337.66  1370.84  1388.70  1412.69  1415.58  1420.97
eigval :     1429.56  1436.03  1436.43  1442.60  1443.19  1455.66
eigval :     1459.91  1469.93  1470.55  1474.64  1475.75  1484.30
eigval :     1488.26  1503.12  1515.22  1547.72  1548.97  1567.52
eigval :     1576.68  1577.01  1577.58  1579.80  1581.14  1581.50
eigval :     1586.57  1590.42  1593.90  1594.57  1599.82  1600.44
eigval :     1668.00  1680.61  3076.87  3077.55  3077.71  3078.35
eigval :     3078.41  3078.90  3079.17  3079.75  3080.20  3080.50
eigval :     3082.80  3086.59  3086.76  3087.24  3087.83  3088.14
eigval :     3088.38  3088.59  3090.09  3090.29  3090.88  3091.13
eigval :     3091.86  3092.24  3094.94  3095.14  3098.10  3098.35
eigval :     3098.85  3099.39  3100.45  3100.57  3105.40  3107.61

   temp. (K)  partition function   enthalpy   heat capacity  entropy
                                   cal/mol     cal/K/mol   cal/K/mol   J/K/mol
 298.15  VIB  0.142E+23            27382.845    170.023    172.104
         ROT  0.169E+09              888.752      2.981     40.634
         INT  0.241E+31            28271.598    173.004    212.738
         TR   0.197E+29             1481.254      4.968     45.691
         TOT                       29752.8517   177.9720   258.4291  1081.2675

       T/K    H(0)-H(T)+PV         H(T)/Eh          T*S/Eh         G(T)/Eh
   ------------------------------------------------------------------------
    298.15    0.474142E-01    0.743179E+00    0.122788E+00    0.620391E+00
   ------------------------------------------------------------------------

         :::::::::::::::::::::::::::::::::::::::::::::::::::::
         ::                  THERMODYNAMIC                  ::
         :::::::::::::::::::::::::::::::::::::::::::::::::::::
         :: total free energy        -147.901555965362 Eh   ::
         ::.................................................::
         :: total energy             -148.521947105654 Eh   ::
         :: zero point energy           0.695764973655 Eh   ::
         :: G(RRHO) w/o ZPVE           -0.075373833363 Eh   ::
         :: G(RRHO) contrib.            0.620391140292 Eh   ::
         :::::::::::::::::::::::::::::::::::::::::::::::::::::

           -------------------------------------------------
          | TOTAL ENERGY             -148.521947105654 Eh   |
          | TOTAL ENTHALPY           -147.778767944701 Eh   |
          | TOTAL FREE ENERGY        -147.901555965362 Eh   |
          | GRADIENT NORM               0.000046341706 Eh/α |
          | HOMO-LUMO GAP               0.676810492433 eV   |
           -------------------------------------------------

 * finished run on 2025/07/20 at 06:39:46.869
