   * xtb version 6.7.1 (edcfbbe) compiled by 'albert@albert-system' on 2024-07-22

   ID    Z sym.   atoms
    1    6 C      1-6, 8-19, 21, 22, 24, 26-33, 35-45
    2    8 O      7, 34
    3    7 N      20, 23, 25, 46
    4    1 H      47-68

          program call               : xtb data2507/toluene/BFCZPZ2/BFCZPZ2.xyz --gfn 2 --gbsa toluene --ohess vtight --parallel 40 --molden --ceasefiles --namespace data2507/toluene/BFCZPZ2/BFCZPZ2_toluene_S0_preOpt
      * Solvation model:               GBSA
        Solvent                        toluene
        Solvent mass                       9.2140E+01 g/mol
          :  Hamiltonian                  GFN2-xTB          :
 * total energy  :  -116.8379044 Eh     change       -0.3784876E-08 Eh
 * total energy  :  -116.8604825 Eh     change       -0.2257807E-01 Eh
 * total energy  :  -116.8675671 Eh     change       -0.7084619E-02 Eh
 * total energy  :  -116.8704502 Eh     change       -0.2883068E-02 Eh
 * total energy  :  -116.8731947 Eh     change       -0.2744564E-02 Eh
 * total energy  :  -116.8750545 Eh     change       -0.1859735E-02 Eh
 * total energy  :  -116.8763706 Eh     change       -0.1316135E-02 Eh
 * total energy  :  -116.8772622 Eh     change       -0.8915979E-03 Eh
 * total energy  :  -116.8778095 Eh     change       -0.5472676E-03 Eh
 * total energy  :  -116.8781456 Eh     change       -0.3360906E-03 Eh
 * total energy  :  -116.8788699 Eh     change       -0.2113309E-05 Eh
 * total energy  :  -116.8788719 Eh     change       -0.1954163E-05 Eh
 * total energy  :  -116.8788731 Eh     change       -0.1192259E-05 Eh
 * total energy  :  -116.8788737 Eh     change       -0.5863716E-06 Eh
 * total energy  :  -116.8788740 Eh     change       -0.3326730E-06 Eh
 * total energy  :  -116.8788743 Eh     change       -0.2638879E-06 Eh
 * total energy  :  -116.8788745 Eh     change       -0.2284576E-06 Eh
 * total energy  :  -116.8788746 Eh     change       -0.1564932E-06 Eh
 * total energy  :  -116.8788747 Eh     change       -0.8849304E-07 Eh
   *** GEOMETRY OPTIMIZATION CONVERGED AFTER 31 ITERATIONS ***

 final structure:
================
68
 xtb: 6.7.1 (edcfbbe)
C          -10.40548225751532       -1.02717304152480       -0.07324506824056
C           -9.82853665868781       -2.29155177293036        0.01770600857610
C           -8.45767151950611       -2.45219816142089        0.07517607979774
C           -7.65895330416606       -1.31591239766572        0.03887392514304
C           -8.25830690607951       -0.04384228292671       -0.05291553240557
C           -9.63033562255464        0.11914237759668       -0.11050958985805
O           -7.32153020318587        0.95079553450590       -0.07619155606834
C           -6.11415795067610        0.33151348906932       -0.00400701321033
C           -6.24167510668227       -1.06755505670789        0.07325817574297
C           -5.11384053034001       -1.88029394367122        0.18719842018587
C           -3.85677016013352       -1.31188350507128        0.19381969239038
C           -3.73333753323858        0.07301694458102        0.07754830789864
C           -4.85976977257509        0.92397677078727        0.00929294664250
C           -4.37677862069482        2.27471712971571        0.00728338402103
C           -5.01143441030745        3.50850610790858       -0.05125057750568
C           -4.23125990893661        4.64780184819278       -0.02958189085377
C           -2.84285489241586        4.56296130907033        0.04495036603688
C           -2.19316888978181        3.34296807985515        0.10285882463965
C           -2.97078182642132        2.19637838685884        0.08818788816285
N           -2.58708888432659        0.85795022198750        0.09930260133766
C           -1.27937793037570        0.41115187879643        0.05233806774552
C           -0.88959419950706       -0.71620094734520       -0.68289212181294
N            0.36399549794405       -1.11353938830516       -0.72563221301578
C            1.27937791173647       -0.41117181431171       -0.05224822392267
N            2.58709052614086       -0.85796687332336       -0.09921645946769
C            2.97078964783790       -2.19639223093770       -0.08808267046400
C            2.19318042559932       -3.34298502127950       -0.10270650186509
C            2.84287257104237       -4.56297424292825       -0.04478522906230
C            4.23127988214077       -4.64780730874983        0.02971420856525
C            5.01145075566210       -3.50850818832221        0.05133517938622
C            4.37678885635745       -2.27472286540338       -0.00721173008123
C            4.85977345134907       -0.92398020689119       -0.00926311943042
C            6.11415866700859       -0.33150938997016        0.00398793729021
O            7.32153674428822       -0.95078321797655        0.07614582744423
C            8.25830720083285        0.04385926259649        0.05281758262092
C            9.63033874501679       -0.11911696523200        0.11036701919270
C           10.40547797767983        1.02720192136678        0.07305226780184
C            9.82852232313502        2.29157559895105       -0.01790519853115
C            8.45765437433299        2.45221349472733       -0.07533102628926
C            7.65894346573857        1.31592425949049       -0.03897669607805
C            6.24166549709538        1.06755838458544       -0.07330905620970
C            5.11382302657193        1.88028926591752       -0.18722923878662
C            3.85675569559713        1.31187178182817       -0.19380303348586
C            3.73333498244881       -0.07302750068997       -0.07750561360103
C            0.88959494207478        0.71618090845152        0.68298129419065
N           -0.36399520776592        1.11351841634793        0.72572303186014
H          -11.48040708453402       -0.93769888379408       -0.11626453951352
H          -10.46835403713399       -3.16098624375064        0.04421901907980
H           -8.01308525756221       -3.43286320687163        0.14578417330511
H          -10.06938204928641        1.10163591886503       -0.18105146676010
H           -5.22682985805731       -2.94888207802692        0.27849341934162
H           -2.98712695374691       -1.93745840496438        0.31673181212727
H           -6.08757090701841        3.56126380406368       -0.11266852691250
H           -4.70040311886683        5.61944720364204       -0.07060354313696
H           -2.25827866642631        5.47074590014178        0.05992115483295
H           -1.11903897321287        3.28323657968456        0.16943988051252
H           -1.58755662045969       -1.29038447688508       -1.27486815092724
H            1.11904850898249       -3.28325906084242       -0.16926219345378
H            2.25829974870900       -5.47076162702913       -0.05971962582197
H            4.70042776925519       -5.61944988196076        0.07074852030027
H            6.08758893815722       -3.56126054079804        0.11272805321509
H           10.06939287290265       -1.10160668800648        0.18091425116550
H           11.48040481710068        0.93773452954703        0.11603530253132
H           10.46833420973289        3.16101284206964       -0.04446038814148
H            8.01306046861282        3.43287464833895       -0.14594504617819
H            5.22680388528592        2.94887648029407       -0.27854564007756
H            2.98710443157306        1.93743896676223       -0.31669815779836
H            1.58755900423589        1.29036616991941        1.27495401588427

          :  Hamiltonian                  GFN2-xTB          :
         :: gradient norm              0.000026240149 Eh/a0 ::
         :: HOMO-LUMO gap              2.042132502928 eV    ::
         :: SCC energy              -118.902115264972 Eh    ::
         :: -> dispersion             -0.096584051434 Eh    ::
         :: -> Gsolv                  -0.047084926590 Eh    ::
         :: repulsion energy           2.023240527635 Eh    ::

    * Orbital Energies and Occupations

         #    Occupation            Energy/Eh            Energy/eV
      -------------------------------------------------------------
         1        2.0000           -0.7412185             -20.1696
       ...           ...                  ...                  ...
        95        2.0000           -0.4272740             -11.6267
        96        2.0000           -0.4271230             -11.6226
        97        2.0000           -0.4253210             -11.5736
        98        2.0000           -0.4242612             -11.5447
        99        2.0000           -0.4073445             -11.0844
       100        2.0000           -0.4071301             -11.0786
       101        2.0000           -0.4029158             -10.9639
       102        2.0000           -0.4011908             -10.9170
       103        2.0000           -0.3848953             -10.4735
       104        2.0000           -0.3837607             -10.4427
       105        2.0000           -0.3834293             -10.4336
       106        2.0000           -0.3818208             -10.3899
       107        2.0000           -0.3665509              -9.9744 (HOMO)
       108                         -0.2915039              -7.9322 (LUMO)
       109                         -0.2736098              -7.4453
       110                         -0.2598071              -7.0697
       111                         -0.2521606              -6.8616
       112                         -0.2485156              -6.7625
       113                         -0.2481053              -6.7513
       114                         -0.2231100              -6.0711
       115                         -0.2216836              -6.0323
       116                         -0.2202263              -5.9927
       117                         -0.2195388              -5.9740
       118                         -0.2030933              -5.5265
       ...                                ...                  ...
       206                          0.7547172              20.5369
      -------------------------------------------------------------
                  HL-Gap            0.0750470 Eh            2.0421 eV

     #   Z          covCN         q      C6AA      α(0)
     1   6 C        2.926    -0.033    28.817     8.803
     2   6 C        2.920    -0.038    28.941     8.822
     3   6 C        2.913    -0.035    28.866     8.810
     4   6 C        3.058    -0.019    28.417     8.742
     5   6 C        3.102     0.125    25.147     8.217
     6   6 C        2.908    -0.052    29.301     8.876
     7   8 O        1.714    -0.233    17.866     5.707
     8   6 C        3.096     0.126    25.140     8.218
     9   6 C        3.051    -0.030    28.688     8.784
    10   6 C        2.915    -0.037    28.926     8.819
    11   6 C        2.911    -0.061    29.511     8.908
    12   6 C        3.054     0.041    27.041     8.528
    13   6 C        3.062    -0.034    28.787     8.798
    14   6 C        3.061    -0.010    28.197     8.708
    15   6 C        2.912    -0.032    28.803     8.800
    16   6 C        2.920    -0.037    28.921     8.819
    17   6 C        2.924    -0.032    28.794     8.800
    18   6 C        2.910    -0.046    29.152     8.853
    19   6 C        3.066     0.051    26.788     8.487
    20   7 N        2.804    -0.044    22.093     6.981
    21   6 C        2.890     0.139    24.974     8.193
    22   6 C        2.897     0.037    27.175     8.547
    23   7 N        1.847    -0.237    27.056     7.709
    24   6 C        2.890     0.139    24.974     8.193
    25   7 N        2.804    -0.044    22.093     6.981
    26   6 C        3.066     0.051    26.788     8.487
    27   6 C        2.910    -0.046    29.152     8.853
    28   6 C        2.924    -0.032    28.794     8.800
    29   6 C        2.920    -0.037    28.921     8.819
    30   6 C        2.912    -0.032    28.803     8.800
    31   6 C        3.061    -0.010    28.197     8.708
    32   6 C        3.062    -0.034    28.787     8.798
    33   6 C        3.096     0.126    25.140     8.218
    34   8 O        1.714    -0.233    17.866     5.707
    35   6 C        3.102     0.125    25.147     8.217
    36   6 C        2.908    -0.052    29.301     8.876
    37   6 C        2.926    -0.033    28.817     8.803
    38   6 C        2.920    -0.038    28.941     8.822
    39   6 C        2.913    -0.035    28.866     8.810
    40   6 C        3.058    -0.019    28.417     8.742
    41   6 C        3.051    -0.030    28.688     8.784
    42   6 C        2.915    -0.037    28.926     8.819
    43   6 C        2.911    -0.061    29.511     8.908
    44   6 C        3.054     0.041    27.041     8.528
    45   6 C        2.897     0.037    27.175     8.547
    46   7 N        1.847    -0.237    27.056     7.709
    47   1 H        0.926     0.046     2.373     2.409
    48   1 H        0.926     0.043     2.404     2.424
    49   1 H        0.926     0.044     2.401     2.423
    50   1 H        0.926     0.047     2.352     2.398
    51   1 H        0.926     0.050     2.314     2.379
    52   1 H        0.926     0.037     2.489     2.467
    53   1 H        0.926     0.044     2.399     2.422
    54   1 H        0.926     0.041     2.441     2.443
    55   1 H        0.926     0.042     2.420     2.433
    56   1 H        0.926     0.045     2.379     2.412
    57   1 H        0.926     0.053     2.278     2.360
    58   1 H        0.926     0.045     2.379     2.412
    59   1 H        0.926     0.042     2.420     2.433
    60   1 H        0.926     0.041     2.441     2.443
    61   1 H        0.926     0.044     2.399     2.422
    62   1 H        0.926     0.047     2.352     2.398
    63   1 H        0.926     0.046     2.373     2.409
    64   1 H        0.926     0.043     2.404     2.424
    65   1 H        0.926     0.044     2.401     2.423
    66   1 H        0.926     0.050     2.314     2.379
    67   1 H        0.926     0.037     2.489     2.467
    68   1 H        0.926     0.053     2.278     2.360

molecular dipole:
                 x           y           z       tot (Debye)
 q only:       -0.000       0.000      -0.000
   full:       -0.000       0.000      -0.000       0.000

 projected vibrational frequencies (cm⁻¹)
eigval :       -0.00    -0.00     0.00     0.00     0.00     0.00
eigval :       10.25    12.15    22.89    32.06    51.26    58.68
eigval :       60.73    77.27    81.53    99.01   104.62   113.02
eigval :      130.03   133.01   138.51   149.71   161.88   164.92
eigval :      214.14   234.38   242.84   251.02   263.05   263.07
eigval :      283.88   306.68   314.35   319.84   339.94   349.75
eigval :      368.10   370.80   394.40   404.62   405.10   415.48
eigval :      428.97   437.08   438.80   440.51   450.46   478.07
eigval :      494.47   498.26   503.40   515.61   537.46   537.96
eigval :      541.92   543.58   557.77   557.94   562.62   565.98
eigval :      589.54   594.19   611.90   621.28   623.45   632.43
eigval :      650.90   661.61   671.36   682.27   682.39   699.23
eigval :      705.97   706.16   712.52   712.67   713.21   729.74
eigval :      753.06   775.69   775.86   776.49   776.57   816.83
eigval :      819.82   825.87   831.97   839.99   846.92   854.65
eigval :      862.79   864.53   870.08   870.15   872.19   872.21
eigval :      887.46   901.72   902.07   903.90   904.42   904.44
eigval :      914.24   919.94   922.41   922.42   923.14   923.17
eigval :      939.77   999.31  1002.19  1017.81  1058.15  1059.70
eigval :     1060.65  1062.16  1073.37  1075.49  1097.21  1100.10
eigval :     1132.50  1132.52  1144.89  1145.83  1169.76  1170.17
eigval :     1173.75  1173.83  1182.17  1183.33  1199.00  1199.52
eigval :     1206.37  1207.21  1222.44  1228.92  1240.39  1241.04
eigval :     1242.52  1247.94  1274.46  1275.63  1282.03  1291.64
eigval :     1295.85  1305.60  1315.30  1350.11  1350.29  1351.78
eigval :     1355.12  1375.46  1382.82  1388.28  1398.26  1402.71
eigval :     1408.18  1411.57  1421.92  1423.81  1427.47  1438.75
eigval :     1453.24  1454.22  1472.89  1472.95  1481.34  1482.09
eigval :     1497.12  1566.12  1569.21  1570.21  1580.45  1581.38
eigval :     1590.93  1590.98  1598.44  1598.89  1607.26  1607.34
eigval :     1622.36  1622.55  3070.92  3072.70  3079.56  3079.57
eigval :     3081.73  3081.73  3088.03  3088.04  3089.35  3089.35
eigval :     3095.99  3096.00  3096.98  3096.99  3099.06  3099.07
eigval :     3103.66  3103.69  3107.43  3107.51  3109.42  3109.53

   temp. (K)  partition function   enthalpy   heat capacity  entropy
                                   cal/mol     cal/K/mol   cal/K/mol   J/K/mol
 298.15  VIB  0.402E+14            18930.679    126.431    115.168
         ROT  0.875E+08              888.752      2.981     39.322
         INT  0.351E+22            19819.431    129.412    154.490
         TR   0.139E+29             1481.254      4.968     44.992
         TOT                       21300.6852   134.3805   199.4814   834.6301

       T/K    H(0)-H(T)+PV         H(T)/Eh          T*S/Eh         G(T)/Eh
   ------------------------------------------------------------------------
    298.15    0.339448E-01    0.534351E+00    0.947800E-01    0.439571E+00
   ------------------------------------------------------------------------

         :::::::::::::::::::::::::::::::::::::::::::::::::::::
         ::                  THERMODYNAMIC                  ::
         :::::::::::::::::::::::::::::::::::::::::::::::::::::
         :: total free energy        -116.439303651572 Eh   ::
         ::.................................................::
         :: total energy             -116.878874728615 Eh   ::
         :: zero point energy           0.500406314726 Eh   ::
         :: G(RRHO) w/o ZPVE           -0.060835237682 Eh   ::
         :: G(RRHO) contrib.            0.439571077043 Eh   ::
         :::::::::::::::::::::::::::::::::::::::::::::::::::::

           -------------------------------------------------
          | TOTAL ENERGY             -116.878874728615 Eh   |
          | TOTAL ENTHALPY           -116.344523611406 Eh   |
          | TOTAL FREE ENERGY        -116.439303651572 Eh   |
          | GRADIENT NORM               0.000026248844 Eh/α |
          | HOMO-LUMO GAP               2.042132805457 eV   |
           -------------------------------------------------

 * finished run on 2025/08/21 at 18:56:23.678
