   * xtb version 6.7.1 (edcfbbe) compiled by 'albert@albert-system' on 2024-07-22

   ID    Z sym.   atoms
    1    6 C      1-6, 8-19, 21, 22, 24, 26-33, 35-45
    2    8 O      7, 34
    3    7 N      20, 23, 25, 46
    4    1 H      47-68

          program call               : xtb data2507/toluene/BFCZPZ2/BFCZPZ2_toluene_S0_finalOpt.xtbopt.xyz --gfn 2 --uhf 2 --gbsa toluene --ohess vtight --parallel 40 --molden --ceasefiles --namespace data2507/toluene/BFCZPZ2/BFCZPZ2_toluene_T1_preOpt
      * Solvation model:               GBSA
        Solvent                        toluene
        Solvent mass                       9.2140E+01 g/mol
          :  Hamiltonian                  GFN2-xTB          :
 * total energy  :  -116.7915547 Eh     change       -0.1601084E-07 Eh
 * total energy  :  -116.7938882 Eh     change       -0.2333418E-02 Eh
 * total energy  :  -116.7944745 Eh     change       -0.5863827E-03 Eh
 * total energy  :  -116.7945500 Eh     change       -0.7543186E-04 Eh
 * total energy  :  -116.7945879 Eh     change       -0.3794653E-04 Eh
 * total energy  :  -116.7946036 Eh     change       -0.1564488E-04 Eh
 * total energy  :  -116.7946211 Eh     change       -0.1753781E-04 Eh
 * total energy  :  -116.7946372 Eh     change       -0.1607041E-04 Eh
 * total energy  :  -116.7946452 Eh     change       -0.7978203E-05 Eh
 * total energy  :  -116.7946532 Eh     change       -0.8083564E-05 Eh
 * total energy  :  -116.7947556 Eh     change       -0.4589686E-06 Eh
 * total energy  :  -116.7947561 Eh     change       -0.5136021E-06 Eh
 * total energy  :  -116.7947568 Eh     change       -0.6097092E-06 Eh
 * total energy  :  -116.7947574 Eh     change       -0.6888086E-06 Eh
 * total energy  :  -116.7947581 Eh     change       -0.6986910E-06 Eh
 * total energy  :  -116.7947588 Eh     change       -0.6460141E-06 Eh
 * total energy  :  -116.7947594 Eh     change       -0.6006764E-06 Eh
 * total energy  :  -116.7947600 Eh     change       -0.5822762E-06 Eh
 * total energy  :  -116.7947600 Eh     change       -0.4096776E-08 Eh
   *** GEOMETRY OPTIMIZATION CONVERGED AFTER 44 ITERATIONS ***

 final structure:
================
68
 xtb: 6.7.1 (edcfbbe)
C           -9.72839796751738        2.62021508754871        1.02699885238210
C           -8.85050533405113        3.42895678714588        1.74542921761740
C           -7.49307062910090        3.17576550680650        1.76360944567841
C           -7.01482594823977        2.08644466860958        1.04197827171749
C           -7.91806087353466        1.27882554827828        0.31888887684820
C           -9.27650403311983        1.52968141318563        0.30115543986948
O           -7.27127941559796        0.26430037729222       -0.32995122401711
C           -5.95343077773348        0.40826817746506       -0.03418175297872
C           -5.71869230314358        1.51440789295403        0.81004029348155
C           -4.42346676818879        1.83749780668487        1.22924914230239
C           -3.36108373628220        1.06448004600778        0.81567202506154
C           -3.59950347155903       -0.02254154763661       -0.02733179708104
C           -4.89983057381917       -0.38070132370734       -0.46568332459177
C           -4.75943076412039       -1.53147142159919       -1.30762144196423
C           -5.66580502113985       -2.30314569859967       -2.02119316563269
C           -5.18095223061255       -3.34644473006503       -2.78799901154942
C           -3.81391855514008       -3.60522975234965       -2.86318852604322
C           -2.89457249021964       -2.85045231209076       -2.15572343079008
C           -3.37435071069395       -1.82376235196402       -1.35368742108199
N           -2.68982305456423       -0.91418531773122       -0.56211077878572
C           -1.33093893734340       -0.92348214839127       -0.29585118538447
C           -0.63240137159008       -2.09550033153498       -0.08867245401281
N            0.68368466811722       -2.12933696613236        0.09953469509047
C            1.33456132185966       -0.92833673590490        0.17324045528134
N            2.70145454735563       -0.93858253857430        0.39175769680352
C            3.35863698238845       -1.80894344776431        1.24861490029926
C            2.85808217006651       -2.87925267513111        1.97372714635557
C            3.74274965898007       -3.59337449409266        2.76240934708487
C            5.09106926214800       -3.24852412831390        2.83651724102642
C            5.59611763573028       -2.17945500927837        2.11887524438114
C            4.72542814962287       -1.45151476696990        1.31990034509944
C            4.89078686230209       -0.32106140472631        0.45493281859956
C            5.95250256622641        0.48229015806471        0.07248673218101
O            7.24061425059335        0.40877722798622        0.49594612336919
C            7.91275536018371        1.40187783722426       -0.16039093419188
C            9.25546919963136        1.70374253997093       -0.03909502270671
C            9.73902880547595        2.75639617534299       -0.79968130079760
C            8.90699589080174        3.47979738687471       -1.65148862290941
C            7.56511926406133        3.17696300688762       -1.77168789530656
C            7.05588545622072        2.12389068846095       -1.01806003099729
C            5.76378137438493        1.51786929671353       -0.86687953464419
C            4.51124261899950        1.73755769257691       -1.44987740583703
C            3.43902721161654        0.95630733499405       -1.07784370919566
C            3.62101588063676       -0.04227835593117       -0.11677721446009
C            0.61180398370329        0.24552756029222        0.10228838307850
N           -0.68882702366032        0.27843683962628       -0.17128066159225
H          -10.78374588334598        2.84676284433110        1.03457697425576
H           -9.24336984399784        4.26947480348085        2.29777724541177
H           -6.81478833139854        3.80314656760942        2.32078285773761
H           -9.94969730435715        0.89978498410347       -0.25832580017456
H           -4.26436107925150        2.68591452660140        1.87538380881029
H           -2.35239773765211        1.29343277731459        1.11976760514807
H           -6.72050567795646       -2.07942764634078       -1.97637210903654
H           -5.86657951307562       -3.96176857465841       -3.35073910786334
H           -3.46090365442441       -4.40904222823713       -3.49144927811619
H           -1.83755974041043       -3.04768438532482       -2.24643563780988
H           -1.14257863223076       -3.04710345616008       -0.06647276947839
H            1.81479046992845       -3.14562498625715        1.91118602163928
H            3.37938235402907       -4.43380084727034        3.33440738873303
H            5.74988463163201       -3.82812002208416        3.46572609701208
H            6.64016026690744       -1.91066135069784        2.16844046095412
H            9.89339231795767        1.13924936838330        0.62223496827076
H           10.78330047882513        3.02062697245650       -0.72927626659660
H            9.32340967645691        4.29263218249927       -2.22747925571851
H            6.92221486984794        3.73846311853997       -2.43164553457995
H            4.39191224316669        2.51078539265977       -2.19172283173388
H            2.47598542354764        1.09970780039692       -1.54204117309724
H            1.08886789529256        1.19899013799531        0.27544690080066

          :  Hamiltonian                  GFN2-xTB          :
         :: gradient norm              0.000047131476 Eh/a0 ::
         :: HOMO-LUMO gap              0.465525742790 eV    ::
         :: SCC energy              -118.805710663167 Eh    ::
         :: -> dispersion             -0.096337455139 Eh    ::
         :: -> Gsolv                  -0.047830811013 Eh    ::
         :: repulsion energy           2.010950686240 Eh    ::

    * Orbital Energies and Occupations

         #    Occupation            Energy/Eh            Energy/eV
      -------------------------------------------------------------
         1        2.0000           -0.7426710             -20.2091
       ...           ...                  ...                  ...
        96        2.0000           -0.4277062             -11.6385
        97        2.0000           -0.4244796             -11.5507
        98        2.0000           -0.4214117             -11.4672
        99        2.0000           -0.4092737             -11.1369
       100        2.0000           -0.4085508             -11.1172
       101        2.0000           -0.4044072             -11.0045
       102        2.0000           -0.4008853             -10.9086
       103        2.0000           -0.3861655             -10.5081
       104        2.0000           -0.3841342             -10.4528
       105        2.0000           -0.3837527             -10.4424
       106        1.7456           -0.3696673             -10.0592
       107        1.2544           -0.3676241             -10.0036
       108        0.9999           -0.2795136              -7.6060 (HOMO)
       109        0.0001           -0.2624063              -7.1404 (LUMO)
       110        0.0000           -0.2604119              -7.0862
       111                         -0.2500897              -6.8053
       112                         -0.2496837              -6.7942
       113                         -0.2445814              -6.6554
       114                         -0.2251433              -6.1265
       115                         -0.2225524              -6.0560
       116                         -0.2213600              -6.0235
       117                         -0.2200936              -5.9891
       118                         -0.2020094              -5.4970
       119                         -0.1950564              -5.3078
       ...                                ...                  ...
       206                          0.7543917              20.5280
      -------------------------------------------------------------
                  HL-Gap            0.0171073 Eh            0.4655 eV

     #   Z          covCN         q      C6AA      α(0)
     1   6 C        2.926    -0.032    28.786     8.799
     2   6 C        2.920    -0.037    28.924     8.819
     3   6 C        2.912    -0.034    28.835     8.805
     4   6 C        3.058    -0.018    28.389     8.738
     5   6 C        3.100     0.126    25.131     8.215
     6   6 C        2.908    -0.052    29.285     8.873
     7   8 O        1.714    -0.232    17.846     5.704
     8   6 C        3.095     0.128    25.090     8.209
     9   6 C        3.050    -0.026    28.592     8.770
    10   6 C        2.915    -0.039    28.972     8.826
    11   6 C        2.910    -0.050    29.237     8.866
    12   6 C        3.065     0.048    26.870     8.500
    13   6 C        3.059    -0.037    28.869     8.811
    14   6 C        3.060    -0.008    28.160     8.702
    15   6 C        2.911    -0.030    28.755     8.793
    16   6 C        2.920    -0.034    28.849     8.808
    17   6 C        2.922    -0.033    28.823     8.804
    18   6 C        2.909    -0.046    29.139     8.851
    19   6 C        3.069     0.042    26.990     8.519
    20   7 N        2.802    -0.024    21.716     6.921
    21   6 C        2.875     0.117    25.426     8.266
    22   6 C        2.883     0.031    27.314     8.568
    23   7 N        1.841    -0.268    27.799     7.814
    24   6 C        2.875     0.117    25.418     8.265
    25   7 N        2.802    -0.024    21.714     6.921
    26   6 C        3.073     0.051    26.792     8.487
    27   6 C        2.909    -0.041    29.015     8.833
    28   6 C        2.923    -0.033    28.821     8.804
    29   6 C        2.920    -0.034    28.843     8.807
    30   6 C        2.911    -0.031    28.768     8.795
    31   6 C        3.059    -0.009    28.196     8.708
    32   6 C        3.060    -0.036    28.839     8.806
    33   6 C        3.094     0.128    25.087     8.209
    34   8 O        1.714    -0.232    17.838     5.703
    35   6 C        3.101     0.126    25.132     8.215
    36   6 C        2.908    -0.052    29.285     8.873
    37   6 C        2.926    -0.032    28.789     8.799
    38   6 C        2.920    -0.037    28.923     8.819
    39   6 C        2.912    -0.034    28.843     8.807
    40   6 C        3.058    -0.018    28.397     8.739
    41   6 C        3.050    -0.026    28.609     8.772
    42   6 C        2.914    -0.040    28.988     8.829
    43   6 C        2.910    -0.055    29.361     8.885
    44   6 C        3.060     0.038    27.083     8.534
    45   6 C        2.883     0.030    27.320     8.569
    46   7 N        1.841    -0.268    27.805     7.815
    47   1 H        0.926     0.047     2.352     2.398
    48   1 H        0.926     0.045     2.385     2.415
    49   1 H        0.926     0.045     2.379     2.412
    50   1 H        0.926     0.049     2.332     2.388
    51   1 H        0.926     0.051     2.309     2.376
    52   1 H        0.926     0.055     2.254     2.348
    53   1 H        0.926     0.047     2.360     2.402
    54   1 H        0.926     0.044     2.399     2.422
    55   1 H        0.926     0.044     2.401     2.423
    56   1 H        0.926     0.035     2.511     2.478
    57   1 H        0.926     0.048     2.342     2.393
    58   1 H        0.926     0.050     2.326     2.385
    59   1 H        0.926     0.043     2.404     2.425
    60   1 H        0.926     0.043     2.404     2.425
    61   1 H        0.926     0.046     2.371     2.408
    62   1 H        0.926     0.049     2.332     2.388
    63   1 H        0.926     0.047     2.353     2.399
    64   1 H        0.926     0.045     2.386     2.415
    65   1 H        0.926     0.045     2.384     2.414
    66   1 H        0.926     0.051     2.311     2.377
    67   1 H        0.926     0.041     2.439     2.442
    68   1 H        0.926     0.048     2.344     2.394

molecular dipole:
                 x           y           z       tot (Debye)
 q only:       -0.065       0.572       0.118
   full:       -0.062       0.504       0.109       1.320

 projected vibrational frequencies (cm⁻¹)
eigval :       -0.00    -0.00    -0.00    -0.00     0.00     0.00
eigval :        7.61    13.38    17.19    36.81    41.55    53.18
eigval :       55.93    79.17    80.51    91.03   102.96   107.65
eigval :      127.99   132.80   136.88   145.20   154.40   160.94
eigval :      203.85   228.91   234.53   257.50   258.42   265.68
eigval :      287.11   291.39   304.79   309.83   320.27   323.62
eigval :      341.81   362.71   385.11   394.15   401.11   405.87
eigval :      424.79   428.85   435.88   438.76   447.94   477.02
eigval :      490.80   499.25   500.13   511.55   532.08   534.16
eigval :      539.46   540.78   550.64   551.64   560.66   564.85
eigval :      570.67   589.46   596.57   599.56   615.25   619.24
eigval :      626.62   654.82   656.01   668.63   676.54   677.13
eigval :      693.89   699.14   699.25   707.45   707.78   708.43
eigval :      732.49   767.49   770.65   771.98   772.15   781.53
eigval :      803.08   812.79   819.63   822.77   826.63   837.04
eigval :      840.30   857.15   859.68   866.52   866.84   867.25
eigval :      876.44   888.98   897.13   898.77   899.30   901.30
eigval :      901.67   905.32   916.29   919.36   919.66   920.45
eigval :      926.11   968.66   997.64   999.97  1046.74  1048.91
eigval :     1059.08  1059.77  1067.11  1072.65  1084.52  1092.98
eigval :     1093.64  1124.26  1127.19  1137.84  1140.70  1165.48
eigval :     1167.19  1169.39  1172.31  1176.91  1179.68  1186.96
eigval :     1194.46  1196.89  1203.18  1216.20  1221.86  1237.82
eigval :     1241.17  1244.59  1262.22  1268.96  1271.68  1276.81
eigval :     1283.80  1293.51  1300.25  1305.72  1345.15  1346.96
eigval :     1349.87  1350.03  1359.68  1361.05  1377.21  1391.84
eigval :     1393.80  1399.51  1401.07  1404.50  1408.75  1421.59
eigval :     1424.24  1449.62  1451.12  1465.78  1469.77  1470.79
eigval :     1474.89  1475.67  1540.00  1548.76  1559.50  1561.27
eigval :     1573.62  1578.40  1584.78  1585.40  1588.15  1590.64
eigval :     1602.38  1604.97  3065.07  3066.70  3081.38  3082.54
eigval :     3082.58  3082.66  3087.31  3088.82  3090.43  3090.61
eigval :     3092.91  3094.95  3097.44  3097.69  3098.14  3099.37
eigval :     3101.43  3102.62  3104.84  3105.09  3107.09  3109.08

   temp. (K)  partition function   enthalpy   heat capacity  entropy
                                   cal/mol     cal/K/mol   cal/K/mol   J/K/mol
 298.15  VIB  0.136E+15            19300.264    128.081    117.860
         ROT  0.954E+08              888.752      2.981     39.494
         INT  0.129E+23            20189.017    131.062    157.354
         TR   0.139E+29             1481.254      4.968     44.992
         TOT                       21670.2706   136.0302   202.3455   846.6134

       T/K    H(0)-H(T)+PV         H(T)/Eh          T*S/Eh         G(T)/Eh
   ------------------------------------------------------------------------
    298.15    0.345338E-01    0.530406E+00    0.961409E-01    0.434265E+00
   ------------------------------------------------------------------------

         :::::::::::::::::::::::::::::::::::::::::::::::::::::
         ::                  THERMODYNAMIC                  ::
         :::::::::::::::::::::::::::::::::::::::::::::::::::::
         :: total free energy        -116.360495282315 Eh   ::
         ::.................................................::
         :: total energy             -116.794759980344 Eh   ::
         :: zero point energy           0.495871782574 Eh   ::
         :: G(RRHO) w/o ZPVE           -0.061607084545 Eh   ::
         :: G(RRHO) contrib.            0.434264698029 Eh   ::
         :::::::::::::::::::::::::::::::::::::::::::::::::::::

           -------------------------------------------------
          | TOTAL ENERGY             -116.794759980344 Eh   |
          | TOTAL ENTHALPY           -116.264354423454 Eh   |
          | TOTAL FREE ENERGY        -116.360495282315 Eh   |
          | GRADIENT NORM               0.000048829484 Eh/α |
          | HOMO-LUMO GAP               0.465513855678 eV   |
           -------------------------------------------------

 * finished run on 2025/08/21 at 18:59:25.254
