   * xtb version 6.7.1 (edcfbbe) compiled by 'albert@albert-system' on 2024-07-22

   ID    Z sym.   atoms
    1    6 C      1-6, 8-19, 21, 22, 24, 26-33, 35-45
    2    8 O      7, 34
    3    7 N      20, 23, 25, 46
    4    1 H      47-68

          program call               : xtb data2507/toluene/BFCZPZ2/BFCZPZ2_toluene_T1_crest.xyz --gfn 2 --uhf 2 --gbsa toluene --ohess vtight --parallel 40 --molden --ceasefiles --namespace data2507/toluene/BFCZPZ2/BFCZPZ2_toluene_T1_finalOpt
      * Solvation model:               GBSA
        Solvent                        toluene
        Solvent mass                       9.2140E+01 g/mol
          :  Hamiltonian                  GFN2-xTB          :
 * total energy  :  -116.7992015 Eh     change       -0.1065744E-07 Eh
 * total energy  :  -116.7992576 Eh     change       -0.5609222E-04 Eh
 * total energy  :  -116.7992884 Eh     change       -0.3085230E-04 Eh
 * total energy  :  -116.7992968 Eh     change       -0.8391153E-05 Eh
 * total energy  :  -116.7993042 Eh     change       -0.7362962E-05 Eh
 * total energy  :  -116.7993087 Eh     change       -0.4516626E-05 Eh
 * total energy  :  -116.7993123 Eh     change       -0.3589349E-05 Eh
 * total energy  :  -116.7993148 Eh     change       -0.2560871E-05 Eh
 * total energy  :  -116.7993180 Eh     change       -0.3161113E-05 Eh
 * total energy  :  -116.7993219 Eh     change       -0.3933187E-05 Eh
 * total energy  :  -116.7993341 Eh     change       -0.2488577E-05 Eh
 * total energy  :  -116.7993366 Eh     change       -0.2578547E-05 Eh
 * total energy  :  -116.7993391 Eh     change       -0.2498897E-05 Eh
 * total energy  :  -116.7993416 Eh     change       -0.2452346E-05 Eh
 * total energy  :  -116.7993438 Eh     change       -0.2172481E-05 Eh
 * total energy  :  -116.7993453 Eh     change       -0.1547746E-05 Eh
 * total energy  :  -116.7993464 Eh     change       -0.1088691E-05 Eh
 * total energy  :  -116.7993472 Eh     change       -0.8299031E-06 Eh
 * total energy  :  -116.7993473 Eh     change       -0.3779626E-07 Eh
   *** GEOMETRY OPTIMIZATION CONVERGED AFTER 22 ITERATIONS ***

 final structure:
================
68
 xtb: 6.7.1 (edcfbbe)
C          -10.37839093284449        1.16724656911626       -0.02214823894458
C           -9.77518545540870        2.41742476052956       -0.14127138505227
C           -8.40158114086026        2.54975282892084       -0.19135126589578
C           -7.62465965847199        1.39804994638363       -0.11799386869145
C           -8.25185362959018        0.14016980110355        0.00268613184410
C           -9.62615277947388        0.00608397806067        0.05236104199869
O           -7.33436185719697       -0.87173277326771        0.06031219618648
C           -6.11510013529515       -0.27974431276507       -0.02036835603487
C           -6.21563301451426        1.12299045559356       -0.13494594466696
C           -5.07131378377969        1.91613096235872       -0.26288863269327
C           -3.82615541838488        1.32434116410923       -0.24978194740016
C           -3.73049838115472       -0.06091003147980       -0.10031958680720
C           -4.87466615512216       -0.89582449206972       -0.01032447655526
C           -4.40664544914179       -2.25031116049355        0.04432787906751
C           -5.04512838616868       -3.47937882773279        0.12800688183588
C           -4.26679857171584       -4.62265885104626        0.15956983180194
C           -2.87647359485752       -4.54979499590908        0.10446091350139
C           -2.22064082287498       -3.33343885634116        0.02428699999182
C           -2.99520955552206       -2.18505529779713       -0.01127225658387
N           -2.59918137038754       -0.85670117897783       -0.08126916135487
C           -1.29418926971940       -0.41793248117647       -0.04390641491931
C           -0.90771642701374        0.66422683531667        0.72703594698262
N            0.34924547198218        1.06815343836153        0.83845219085379
C            1.29551001220635        0.36200188786131        0.13678162347424
N            2.59567765539852        0.81429199205472        0.16171247539854
C            2.97145608389095        2.15064242560788        0.12195242269188
C            2.18173845293017        3.28894218688870        0.14837770649178
C            2.81885605502175        4.51659613236633        0.09308587136793
C            4.20596151902982        4.61117764151843        0.00171079032605
C            4.99941175397141        3.47847509026830       -0.03031025069603
C            4.37964440815437        2.23836858532937        0.02823444549556
C            4.86773014021068        0.89027967300432        0.02544937349838
C            6.11690945842010        0.29441156794565       -0.02467687730193
O            7.32324303801604        0.90869167131200       -0.13006665028525
C            8.25769830556359       -0.08918973121565       -0.13456383654336
C            9.62719641800780        0.06899409528039       -0.22740869586945
C           10.39960836133605       -1.08114659713030       -0.21305152452464
C            9.82049658573279       -2.34404548135028       -0.10985389319162
C            8.45159211524169       -2.50050779453140       -0.01685843931777
C            7.65467283825809       -1.36022271351583       -0.02892040607105
C            6.24308029656588       -1.10900077205292        0.04534405301796
C            5.11573453357753       -1.92329211481353        0.19052228096736
C            3.86181484588965       -1.35164138721761        0.23487517659924
C            3.73888115475292        0.03542361142342        0.12577916336398
C            0.90821442443230       -0.72029123337103       -0.63432262405245
N           -0.34766538537412       -1.12950519896872       -0.73922308302543
H          -11.45513347508512        1.10042666316088        0.01364326343466
H          -10.39754366398838        3.29807472777659       -0.19636960152815
H           -7.93647266004141        3.51882643568970       -0.28454278735811
H          -10.08593758276076       -0.96499887939590        0.14509373264746
H           -5.16709601570660        2.98341164343645       -0.38180035179452
H           -2.93860360452955        1.92359471572618       -0.37861525811772
H           -6.12239058718918       -3.53008913265849        0.16659810750670
H           -4.74210659815114       -5.58974813589934        0.22809441930149
H           -2.29747560349734       -5.46061067104252        0.13028861964180
H           -1.14481370952084       -3.27333287946792       -0.01934763948088
H           -1.62489866903872        1.16648951811913        1.36078091736351
H            1.10854884860508        3.21232613981477        0.22038509410925
H            2.22727862575648        5.41933645499823        0.11690002081147
H            4.66652192451246        5.58665570304820       -0.04476675904120
H            6.07442116843679        3.54549304205378       -0.09695937406120
H           10.06820568760349        1.04983082328718       -0.30752740291117
H           11.47326671180550       -0.99517648418804       -0.28382747502075
H           10.45797301291070       -3.21552193009013       -0.10226207578721
H            8.00523579593268       -3.47949659976777        0.06354574207517
H            5.23151945508425       -2.99168813047026        0.27718306613591
H            2.98974297513764       -1.96959508366647        0.37935987383281
H            1.62218940110762       -1.21712670426031       -1.27572795553783

          :  Hamiltonian                  GFN2-xTB          :
         :: gradient norm              0.000089686395 Eh/a0 ::
         :: HOMO-LUMO gap              0.437358226215 eV    ::
         :: SCC energy              -118.810795657797 Eh    ::
         :: -> dispersion             -0.096562298426 Eh    ::
         :: -> Gsolv                  -0.047972546620 Eh    ::
         :: repulsion energy           2.011448394323 Eh    ::

    * Orbital Energies and Occupations

         #    Occupation            Energy/Eh            Energy/eV
      -------------------------------------------------------------
         1        2.0000           -0.7428231             -20.2132
       ...           ...                  ...                  ...
        96        2.0000           -0.4281698             -11.6511
        97        2.0000           -0.4226365             -11.5005
        98        2.0000           -0.4220199             -11.4837
        99        2.0000           -0.4090549             -11.1310
       100        2.0000           -0.4086657             -11.1204
       101        2.0000           -0.4039656             -10.9925
       102        2.0000           -0.4016597             -10.9297
       103        2.0000           -0.3849827             -10.4759
       104        2.0000           -0.3848137             -10.4713
       105        2.0000           -0.3812313             -10.3738
       106        2.0000           -0.3803779             -10.3506
       107        1.0001           -0.3613246              -9.8321
       108        0.9998           -0.2797879              -7.6134 (HOMO)
       109        0.0002           -0.2637152              -7.1761 (LUMO)
       110        0.0000           -0.2608216              -7.0973
       111                         -0.2504371              -6.8147
       112                         -0.2501557              -6.8071
       113                         -0.2451339              -6.6704
       114                         -0.2248957              -6.1197
       115                         -0.2229110              -6.0657
       116                         -0.2213645              -6.0236
       117                         -0.2205134              -6.0005
       118                         -0.2030204              -5.5245
       119                         -0.1959278              -5.3315
       ...                                ...                  ...
       206                          0.7539372              20.5157
      -------------------------------------------------------------
                  HL-Gap            0.0160727 Eh            0.4374 eV

     #   Z          covCN         q      C6AA      α(0)
     1   6 C        2.926    -0.032    28.796     8.800
     2   6 C        2.920    -0.037    28.924     8.819
     3   6 C        2.912    -0.034    28.847     8.807
     4   6 C        3.058    -0.018    28.406     8.740
     5   6 C        3.101     0.125    25.134     8.216
     6   6 C        2.908    -0.052    29.288     8.874
     7   8 O        1.714    -0.232    17.836     5.702
     8   6 C        3.094     0.128    25.089     8.209
     9   6 C        3.050    -0.026    28.602     8.771
    10   6 C        2.914    -0.040    28.985     8.828
    11   6 C        2.910    -0.054    29.342     8.882
    12   6 C        3.060     0.037    27.116     8.539
    13   6 C        3.060    -0.035    28.816     8.803
    14   6 C        3.058    -0.009    28.174     8.705
    15   6 C        2.911    -0.031    28.764     8.794
    16   6 C        2.920    -0.033    28.828     8.805
    17   6 C        2.923    -0.033    28.817     8.803
    18   6 C        2.909    -0.040    28.985     8.828
    19   6 C        3.072     0.050    26.809     8.490
    20   7 N        2.802    -0.020    21.632     6.908
    21   6 C        2.877     0.116    25.444     8.269
    22   6 C        2.883     0.036    27.192     8.549
    23   7 N        1.840    -0.274    27.971     7.838
    24   6 C        2.876     0.116    25.441     8.269
    25   7 N        2.801    -0.020    21.626     6.907
    26   6 C        3.072     0.050    26.814     8.490
    27   6 C        2.910    -0.040    28.990     8.829
    28   6 C        2.923    -0.033    28.821     8.804
    29   6 C        2.920    -0.033    28.828     8.805
    30   6 C        2.911    -0.031    28.767     8.795
    31   6 C        3.058    -0.009    28.176     8.705
    32   6 C        3.060    -0.035    28.818     8.803
    33   6 C        3.094     0.128    25.089     8.210
    34   8 O        1.714    -0.232    17.839     5.703
    35   6 C        3.101     0.125    25.135     8.216
    36   6 C        2.908    -0.052    29.290     8.874
    37   6 C        2.926    -0.032    28.798     8.801
    38   6 C        2.920    -0.037    28.925     8.820
    39   6 C        2.912    -0.034    28.849     8.807
    40   6 C        3.058    -0.018    28.407     8.741
    41   6 C        3.050    -0.026    28.604     8.771
    42   6 C        2.914    -0.040    28.992     8.829
    43   6 C        2.910    -0.054    29.345     8.883
    44   6 C        3.059     0.036    27.128     8.541
    45   6 C        2.884     0.036    27.197     8.550
    46   7 N        1.840    -0.274    27.973     7.838
    47   1 H        0.926     0.047     2.356     2.400
    48   1 H        0.926     0.045     2.388     2.417
    49   1 H        0.926     0.045     2.385     2.415
    50   1 H        0.926     0.049     2.334     2.389
    51   1 H        0.926     0.051     2.304     2.373
    52   1 H        0.926     0.040     2.442     2.444
    53   1 H        0.926     0.047     2.362     2.404
    54   1 H        0.926     0.044     2.393     2.419
    55   1 H        0.926     0.044     2.394     2.420
    56   1 H        0.926     0.048     2.347     2.396
    57   1 H        0.926     0.047     2.359     2.402
    58   1 H        0.926     0.049     2.330     2.387
    59   1 H        0.926     0.044     2.396     2.420
    60   1 H        0.926     0.044     2.395     2.420
    61   1 H        0.926     0.046     2.364     2.405
    62   1 H        0.926     0.049     2.336     2.390
    63   1 H        0.926     0.047     2.357     2.401
    64   1 H        0.926     0.045     2.389     2.417
    65   1 H        0.926     0.045     2.387     2.416
    66   1 H        0.926     0.051     2.306     2.375
    67   1 H        0.926     0.041     2.438     2.442
    68   1 H        0.926     0.047     2.352     2.398

molecular dipole:
                 x           y           z       tot (Debye)
 q only:       -0.024       0.012      -0.017
   full:       -0.022       0.011      -0.015       0.073

 projected vibrational frequencies (cm⁻¹)
eigval :       -0.00    -0.00    -0.00     0.00     0.00     0.00
eigval :        9.56    14.32    22.63    33.38    50.38    58.02
eigval :       60.92    76.74    82.88    98.61   104.37   107.91
eigval :      127.34   130.96   137.48   149.79   155.91   160.63
eigval :      211.18   232.23   240.94   249.20   262.33   263.11
eigval :      284.12   303.77   310.73   318.73   332.49   339.73
eigval :      362.94   364.12   375.12   399.94   401.88   410.96
eigval :      427.89   435.28   436.01   439.37   449.48   473.37
eigval :      492.83   499.33   503.85   514.95   536.08   539.46
eigval :      540.28   541.81   553.54   556.83   557.30   565.00
eigval :      569.88   594.12   594.78   601.98   616.88   620.63
eigval :      632.04   650.95   663.95   668.37   678.39   679.92
eigval :      695.62   700.55   703.85   708.88   710.16   710.92
eigval :      734.72   771.99   772.75   773.87   775.07   802.72
eigval :      806.11   820.94   828.10   829.36   837.90   839.30
eigval :      841.76   857.63   860.69   868.64   868.91   869.41
eigval :      869.51   896.35   899.05   899.41   901.01   901.40
eigval :      902.32   902.51   918.09   918.41   920.61   921.86
eigval :      925.34   968.68   999.31  1001.86  1043.22  1046.71
eigval :     1059.05  1059.50  1065.16  1065.65  1091.33  1094.38
eigval :     1094.85  1124.28  1125.69  1140.17  1140.63  1166.57
eigval :     1168.72  1169.84  1171.81  1177.76  1180.56  1192.57
eigval :     1194.67  1197.89  1204.12  1218.03  1218.68  1238.51
eigval :     1240.50  1243.75  1258.54  1269.48  1271.66  1279.09
eigval :     1280.70  1296.52  1300.56  1305.65  1349.21  1349.44
eigval :     1350.36  1350.55  1364.43  1369.95  1389.98  1395.39
eigval :     1400.38  1401.05  1402.23  1407.86  1414.04  1421.59
eigval :     1437.30  1450.38  1452.07  1454.66  1470.04  1470.73
eigval :     1475.22  1477.35  1542.79  1553.33  1563.69  1564.32
eigval :     1576.39  1580.11  1585.96  1586.28  1590.18  1592.91
eigval :     1603.18  1604.57  3058.64  3059.38  3080.38  3081.46
eigval :     3082.66  3082.68  3089.20  3089.79  3090.32  3090.44
eigval :     3094.84  3095.36  3097.66  3097.74  3098.70  3099.30
eigval :     3103.22  3104.10  3104.26  3105.79  3107.70  3108.06

   temp. (K)  partition function   enthalpy   heat capacity  entropy
                                   cal/mol     cal/K/mol   cal/K/mol   J/K/mol
 298.15  VIB  0.486E+14            19145.373    127.909    116.372
         ROT  0.875E+08              888.752      2.981     39.321
         INT  0.425E+22            20034.126    130.890    155.693
         TR   0.139E+29             1481.254      4.968     44.992
         TOT                       21515.3795   135.8582   200.6847   839.6648

       T/K    H(0)-H(T)+PV         H(T)/Eh          T*S/Eh         G(T)/Eh
   ------------------------------------------------------------------------
    298.15    0.342869E-01    0.531000E+00    0.953518E-01    0.435648E+00
   ------------------------------------------------------------------------

         :::::::::::::::::::::::::::::::::::::::::::::::::::::
         ::                  THERMODYNAMIC                  ::
         :::::::::::::::::::::::::::::::::::::::::::::::::::::
         :: total free energy        -116.363698963300 Eh   ::
         ::.................................................::
         :: total energy             -116.799347268349 Eh   ::
         :: zero point energy           0.496713149015 Eh   ::
         :: G(RRHO) w/o ZPVE           -0.061064843966 Eh   ::
         :: G(RRHO) contrib.            0.435648305049 Eh   ::
         :::::::::::::::::::::::::::::::::::::::::::::::::::::

           -------------------------------------------------
          | TOTAL ENERGY             -116.799347268349 Eh   |
          | TOTAL ENTHALPY           -116.268347179616 Eh   |
          | TOTAL FREE ENERGY        -116.363698963300 Eh   |
          | GRADIENT NORM               0.000089575220 Eh/α |
          | HOMO-LUMO GAP               0.437360655387 eV   |
           -------------------------------------------------

 * finished run on 2025/08/21 at 19:03:02.774
