   * xtb version 6.7.1 (edcfbbe) compiled by 'albert@albert-system' on 2024-07-22

   ID    Z sym.   atoms
    1    6 C      1-6, 8-19, 21, 22, 24, 26-33, 35-45
    2    8 O      7, 34
    3    7 N      20, 23, 25, 46
    4    1 H      47-68

          program call               : xtb data2507/toluene/BFCZPZ2/BFCZPZ2_toluene_S0_crest.xyz --gfn 2 --gbsa toluene --ohess vtight --parallel 40 --molden --ceasefiles --namespace data2507/toluene/BFCZPZ2/BFCZPZ2_toluene_S0_finalOpt
      * Solvation model:               GBSA
        Solvent                        toluene
        Solvent mass                       9.2140E+01 g/mol
          :  Hamiltonian                  GFN2-xTB          :
 * total energy  :  -116.8793806 Eh     change       -0.4957514E-08 Eh
 * total energy  :  -116.8794151 Eh     change       -0.3445053E-04 Eh
 * total energy  :  -116.8794260 Eh     change       -0.1097063E-04 Eh
 * total energy  :  -116.8794276 Eh     change       -0.1589795E-05 Eh
 * total energy  :  -116.8794286 Eh     change       -0.9722596E-06 Eh
 * total energy  :  -116.8794297 Eh     change       -0.1049975E-05 Eh
 * total energy  :  -116.8794309 Eh     change       -0.1275231E-05 Eh
 * total energy  :  -116.8794321 Eh     change       -0.1193989E-05 Eh
 * total energy  :  -116.8794332 Eh     change       -0.1073098E-05 Eh
 * total energy  :  -116.8794343 Eh     change       -0.1127286E-05 Eh
 * total energy  :  -116.8794415 Eh     change       -0.2346093E-05 Eh
 * total energy  :  -116.8794440 Eh     change       -0.2433878E-05 Eh
 * total energy  :  -116.8794458 Eh     change       -0.1825269E-05 Eh
 * total energy  :  -116.8794471 Eh     change       -0.1302155E-05 Eh
 * total energy  :  -116.8794480 Eh     change       -0.8979298E-06 Eh
 * total energy  :  -116.8794486 Eh     change       -0.5939637E-06 Eh
 * total energy  :  -116.8794490 Eh     change       -0.4177474E-06 Eh
 * total energy  :  -116.8794494 Eh     change       -0.4047687E-06 Eh
 * total energy  :  -116.8794494 Eh     change       -0.5670998E-08 Eh
   *** GEOMETRY OPTIMIZATION CONVERGED AFTER 22 ITERATIONS ***

 final structure:
================
68
 xtb: 6.7.1 (edcfbbe)
C           -9.74601590541000        2.66284528363522        0.91243502641761
C           -8.87998439000173        3.49724540097609        1.61496589764760
C           -7.52093027044866        3.25200822528559        1.65365990220676
C           -7.03077628766525        2.14593473127155        0.97036546907513
C           -7.92046773444978        1.31199410184869        0.26399386223205
C           -9.28126168209474        1.55488519744456        0.22479633488411
O           -7.26305279512974        0.28146730717892       -0.34677917198790
C           -5.94772947035692        0.44295503957689       -0.04276551669897
C           -5.72665875612392        1.57019014475265        0.76937891748016
C           -4.43956109379741        1.90375286594217        1.19295454750904
C           -3.36746304909617        1.12599580305638        0.80811000215120
C           -3.59340692409836        0.01626291414510       -0.00359100945022
C           -4.88382130733036       -0.35397859227376       -0.44000850167190
C           -4.74389775953209       -1.53632788417440       -1.23998756875981
C           -5.65388574500031       -2.30802056300350       -1.94964085852496
C           -5.17749897319128       -3.37973904597752       -2.67896449851271
C           -3.81493308898635       -3.66203793882376       -2.72215004086870
C           -2.89386179318512       -2.90518082363318       -2.01911567676888
C           -3.36733599768114       -1.85217537136117       -1.24976348725218
N           -2.67971759031362       -0.91878984705440       -0.48004790740699
C           -1.32631086612126       -0.93388710765073       -0.20094780025563
C           -0.60751692383743       -2.12317661358805       -0.02073224474105
N            0.69286100468190       -2.12149225847336        0.18048995892305
C            1.32669401387913       -0.94674684669618        0.23883002249042
N            2.69665869068019       -0.96337280747307        0.41829812455314
C            3.39566270572671       -1.89620809319838        1.18054483428960
C            2.93591262688314       -3.01333381717238        1.85929394420031
C            3.85696103930893       -3.75391658976435        2.57869004735825
C            5.20239218884776       -3.39690619654282        2.62901886407282
C            5.66521098667887       -2.28000303170664        1.96145357973451
C            4.75548181491633       -1.52468232443677        1.23332662473107
C            4.88438916415705       -0.33753813635684        0.43824335027477
C            5.93941522956546        0.48112369359845        0.06248879651216
O            7.24334103106132        0.37157636276169        0.42876997850812
C            7.89776925159242        1.39778813051694       -0.19238692555387
C            9.24819059112925        1.68247262782368       -0.10485261161964
C            9.71143425167747        2.77623912019504       -0.81581174446236
C            8.85437322075150        3.55634409868255       -1.58826706176286
C            7.50569827343255        3.26973488207924       -1.67490452213818
C            7.01747242998411        2.17654774334416       -0.96980486052187
C            5.72326181416266        1.56894136958956       -0.80347455471568
C            4.45333210779024        1.82742353786593       -1.31896708420899
C            3.38894030008669        1.02972932223516       -0.95224890228698
C            3.60019249255858       -0.02197779929379       -0.06015804752090
C            0.58638653749759        0.24189695792839        0.18895057538544
N           -0.70919095740689        0.24025851099093       -0.04038769183662
H          -10.80265069348018        2.88385233870002        0.90284922342744
H           -9.28247745510363        4.35178022589923        2.13829194893345
H           -6.85194196391675        3.90019469303272        2.19837196892530
H           -9.94483717676912        0.90407847125703       -0.32230813335592
H           -4.28670075970015        2.76971840647375        1.81741471957085
H           -2.36577662751984        1.37430637757171        1.11666984739638
H           -6.70371974988465       -2.05927337309405       -1.93057115970586
H           -5.86388766930335       -3.99760238425814       -3.23791914365152
H           -3.46375995855851       -4.48707670922384       -3.32363092774058
H           -1.84030965220014       -3.12477799376892       -2.09586934345638
H           -1.08979183221845       -3.08977272572233        0.00305738128157
H            1.89755986025265       -3.29874027817786        1.81730270909937
H            3.52333938920270       -4.63165702561638        3.11192215051232
H            5.88972232735033       -4.00356471166750        3.19944811905706
H            6.70420061042926       -1.99030806605156        1.99666041480736
H            9.90496964882856        1.07321456102884        0.49559693984039
H           10.76010023574803        3.02842026306941       -0.77022669725170
H            9.25532274445737        4.40114554490732       -2.12818730118409
H            6.84363730493390        3.87585957487534       -2.27381998738270
H            4.30760370323683        2.64379939611790       -2.00836879468969
H            2.41386589810103        1.20932758080669       -1.37629252225142
H            1.03371895062411        1.20739265977348        0.37707918950645

          :  Hamiltonian                  GFN2-xTB          :
         :: gradient norm              0.000056942672 Eh/a0 ::
         :: HOMO-LUMO gap              2.171527219355 eV    ::
         :: SCC energy              -118.902316081411 Eh    ::
         :: -> dispersion             -0.096415706337 Eh    ::
         :: -> Gsolv                  -0.047047221932 Eh    ::
         :: repulsion energy           2.022866656500 Eh    ::

    * Orbital Energies and Occupations

         #    Occupation            Energy/Eh            Energy/eV
      -------------------------------------------------------------
         1        2.0000           -0.7412602             -20.1707
       ...           ...                  ...                  ...
        95        2.0000           -0.4271800             -11.6242
        96        2.0000           -0.4266974             -11.6110
        97        2.0000           -0.4253267             -11.5737
        98        2.0000           -0.4243000             -11.5458
        99        2.0000           -0.4077461             -11.0953
       100        2.0000           -0.4070166             -11.0755
       101        2.0000           -0.4037177             -10.9857
       102        2.0000           -0.4004266             -10.8962
       103        2.0000           -0.3878689             -10.5544
       104        2.0000           -0.3835676             -10.4374
       105        2.0000           -0.3829732             -10.4212
       106        2.0000           -0.3735334             -10.1644
       107        2.0000           -0.3703954             -10.0790 (HOMO)
       108                         -0.2905932              -7.9074 (LUMO)
       109                         -0.2729505              -7.4274
       110                         -0.2596256              -7.0648
       111                         -0.2519325              -6.8554
       112                         -0.2483229              -6.7572
       113                         -0.2473546              -6.7309
       114                         -0.2243242              -6.1042
       115                         -0.2215715              -6.0293
       116                         -0.2199905              -5.9862
       117                         -0.2190841              -5.9616
       118                         -0.2023868              -5.5072
       ...                                ...                  ...
       206                          0.7553251              20.5534
      -------------------------------------------------------------
                  HL-Gap            0.0798022 Eh            2.1715 eV

     #   Z          covCN         q      C6AA      α(0)
     1   6 C        2.926    -0.033    28.827     8.805
     2   6 C        2.920    -0.038    28.948     8.823
     3   6 C        2.913    -0.035    28.869     8.811
     4   6 C        3.059    -0.019    28.416     8.742
     5   6 C        3.101     0.125    25.153     8.219
     6   6 C        2.908    -0.053    29.310     8.877
     7   8 O        1.714    -0.235    17.891     5.711
     8   6 C        3.096     0.125    25.155     8.220
     9   6 C        3.050    -0.029    28.686     8.784
    10   6 C        2.916    -0.037    28.915     8.818
    11   6 C        2.911    -0.056    29.402     8.891
    12   6 C        3.056     0.049    26.850     8.498
    13   6 C        3.061    -0.036    28.832     8.805
    14   6 C        3.062    -0.008    28.147     8.700
    15   6 C        2.912    -0.031    28.783     8.797
    16   6 C        2.920    -0.037    28.914     8.818
    17   6 C        2.923    -0.032    28.797     8.800
    18   6 C        2.910    -0.051    29.274     8.872
    19   6 C        3.061     0.043    26.980     8.518
    20   7 N        2.804    -0.044    22.086     6.980
    21   6 C        2.890     0.138    24.983     8.195
    22   6 C        2.898     0.037    27.168     8.546
    23   7 N        1.847    -0.239    27.093     7.714
    24   6 C        2.890     0.138    24.980     8.194
    25   7 N        2.804    -0.044    22.086     6.980
    26   6 C        3.064     0.051    26.793     8.488
    27   6 C        2.910    -0.047    29.162     8.855
    28   6 C        2.924    -0.032    28.792     8.800
    29   6 C        2.920    -0.037    28.919     8.819
    30   6 C        2.912    -0.032    28.806     8.801
    31   6 C        3.061    -0.010    28.197     8.708
    32   6 C        3.061    -0.034    28.787     8.798
    33   6 C        3.096     0.126    25.141     8.218
    34   8 O        1.714    -0.233    17.865     5.707
    35   6 C        3.102     0.125    25.146     8.217
    36   6 C        2.908    -0.052    29.301     8.876
    37   6 C        2.926    -0.033    28.816     8.803
    38   6 C        2.920    -0.038    28.941     8.822
    39   6 C        2.913    -0.035    28.866     8.810
    40   6 C        3.058    -0.019    28.418     8.742
    41   6 C        3.051    -0.030    28.687     8.784
    42   6 C        2.915    -0.037    28.925     8.819
    43   6 C        2.911    -0.061    29.512     8.908
    44   6 C        3.054     0.040    27.045     8.529
    45   6 C        2.898     0.037    27.180     8.548
    46   7 N        1.847    -0.239    27.107     7.716
    47   1 H        0.926     0.045     2.383     2.414
    48   1 H        0.926     0.043     2.412     2.429
    49   1 H        0.926     0.043     2.404     2.425
    50   1 H        0.926     0.047     2.362     2.403
    51   1 H        0.926     0.050     2.318     2.381
    52   1 H        0.926     0.055     2.263     2.353
    53   1 H        0.926     0.045     2.378     2.411
    54   1 H        0.926     0.042     2.426     2.436
    55   1 H        0.926     0.043     2.414     2.430
    56   1 H        0.926     0.032     2.562     2.503
    57   1 H        0.926     0.053     2.285     2.364
    58   1 H        0.926     0.048     2.342     2.393
    59   1 H        0.926     0.042     2.420     2.433
    60   1 H        0.926     0.040     2.443     2.444
    61   1 H        0.926     0.044     2.401     2.423
    62   1 H        0.926     0.048     2.351     2.398
    63   1 H        0.926     0.046     2.372     2.409
    64   1 H        0.926     0.043     2.403     2.424
    65   1 H        0.926     0.044     2.402     2.424
    66   1 H        0.926     0.050     2.316     2.380
    67   1 H        0.926     0.037     2.484     2.464
    68   1 H        0.926     0.053     2.287     2.365

molecular dipole:
                 x           y           z       tot (Debye)
 q only:        0.024       0.440       0.071
   full:        0.031       0.374       0.024       0.957

 projected vibrational frequencies (cm⁻¹)
eigval :       -0.00    -0.00    -0.00    -0.00     0.00     0.00
eigval :       11.48    15.13    22.45    39.93    43.78    57.69
eigval :       60.02    81.41    84.14    94.42   106.79   110.16
eigval :      132.76   134.74   139.93   147.91   158.03   169.42
eigval :      210.77   231.80   240.67   259.02   263.28   266.92
eigval :      292.39   294.92   309.89   317.14   342.27   348.43
eigval :      365.94   389.16   399.71   403.00   408.39   411.67
eigval :      430.45   436.15   438.30   441.07   450.63   480.95
eigval :      493.40   500.96   501.93   514.81   536.68   537.60
eigval :      543.12   544.16   556.71   556.91   564.22   566.58
eigval :      590.48   593.18   613.24   620.23   623.70   628.46
eigval :      651.82   661.99   672.02   680.45   680.81   699.02
eigval :      703.15   704.69   711.08   711.11   714.10   728.51
eigval :      753.20   774.48   776.20   776.77   778.14   821.84
eigval :      826.38   826.81   831.41   841.14   845.28   853.29
eigval :      860.88   862.94   870.58   871.24   873.88   876.86
eigval :      895.94   900.80   901.86   903.02   905.81   908.38
eigval :      916.81   919.30   920.97   922.42   922.80   928.44
eigval :      942.06  1000.00  1002.54  1017.28  1057.50  1060.57
eigval :     1061.82  1062.59  1074.84  1080.43  1096.62  1099.87
eigval :     1133.78  1138.71  1142.43  1148.57  1170.18  1170.59
eigval :     1174.78  1176.89  1182.19  1184.37  1198.32  1200.22
eigval :     1203.05  1207.89  1221.94  1232.47  1241.27  1242.74
eigval :     1245.43  1248.48  1272.98  1275.39  1284.41  1290.21
eigval :     1295.80  1305.55  1313.04  1349.83  1349.99  1352.37
eigval :     1355.12  1375.23  1381.16  1392.03  1395.82  1402.55
eigval :     1408.74  1411.53  1422.02  1424.27  1428.91  1437.12
eigval :     1452.54  1458.66  1472.94  1473.26  1479.51  1481.64
eigval :     1494.12  1567.75  1569.56  1572.39  1579.00  1580.76
eigval :     1590.69  1590.86  1597.34  1598.37  1607.18  1607.38
eigval :     1622.37  1622.69  3069.09  3071.09  3080.48  3080.51
eigval :     3081.87  3082.83  3088.32  3088.74  3088.87  3088.92
eigval :     3095.97  3096.11  3096.86  3098.08  3098.53  3100.47
eigval :     3102.36  3103.83  3104.28  3108.79  3114.53  3121.89

   temp. (K)  partition function   enthalpy   heat capacity  entropy
                                   cal/mol     cal/K/mol   cal/K/mol   J/K/mol
 298.15  VIB  0.268E+14            18906.392    126.339    114.707
         ROT  0.954E+08              888.752      2.981     39.494
         INT  0.256E+22            19795.144    129.320    154.201
         TR   0.139E+29             1481.254      4.968     44.992
         TOT                       21276.3983   134.2881   199.1929   833.4230

       T/K    H(0)-H(T)+PV         H(T)/Eh          T*S/Eh         G(T)/Eh
   ------------------------------------------------------------------------
    298.15    0.339061E-01    0.534515E+00    0.946430E-01    0.439872E+00
   ------------------------------------------------------------------------

         :::::::::::::::::::::::::::::::::::::::::::::::::::::
         ::                  THERMODYNAMIC                  ::
         :::::::::::::::::::::::::::::::::::::::::::::::::::::
         :: total free energy        -116.439577065907 Eh   ::
         ::.................................................::
         :: total energy             -116.879449425027 Eh   ::
         :: zero point energy           0.500609223039 Eh   ::
         :: G(RRHO) w/o ZPVE           -0.060736863918 Eh   ::
         :: G(RRHO) contrib.            0.439872359121 Eh   ::
         :::::::::::::::::::::::::::::::::::::::::::::::::::::

           -------------------------------------------------
          | TOTAL ENERGY             -116.879449425027 Eh   |
          | TOTAL ENTHALPY           -116.344934103043 Eh   |
          | TOTAL FREE ENERGY        -116.439577065907 Eh   |
          | GRADIENT NORM               0.000056935567 Eh/α |
          | HOMO-LUMO GAP               2.171527195827 eV   |
           -------------------------------------------------

 * finished run on 2025/08/21 at 18:59:19.076
