   * xtb version 6.7.1 (edcfbbe) compiled by 'albert@albert-system' on 2024-07-22

   ID    Z sym.   atoms
    1    6 C      1-4, 6-25, 27-36
    2    8 O      5, 26
    3    1 H      37-70

          program call               : xtb data2507/gas/BBPA/BBPA_gas_S0_crest.xyz --gfn 2 --ohess vtight --parallel 40 --molden --ceasefiles --namespace data2507/gas/BBPA/BBPA_gas_S0_finalOpt
          :  Hamiltonian                  GFN2-xTB          :
 * total energy  :   -98.2984035 Eh     change       -0.2108933E-08 Eh
 * total energy  :   -98.2984089 Eh     change       -0.5385560E-05 Eh
 * total energy  :   -98.2984127 Eh     change       -0.3795359E-05 Eh
 * total energy  :   -98.2984200 Eh     change       -0.7302786E-05 Eh
 * total energy  :   -98.2984221 Eh     change       -0.2031984E-05 Eh
 * total energy  :   -98.2984243 Eh     change       -0.2226145E-05 Eh
 * total energy  :   -98.2984280 Eh     change       -0.3707869E-05 Eh
 * total energy  :   -98.2984328 Eh     change       -0.4789950E-05 Eh
 * total energy  :   -98.2984372 Eh     change       -0.4460239E-05 Eh
 * total energy  :   -98.2984415 Eh     change       -0.4204091E-05 Eh
 * total energy  :   -98.2984873 Eh     change       -0.3864281E-06 Eh
 * total energy  :   -98.2984878 Eh     change       -0.4495398E-06 Eh
 * total energy  :   -98.2984883 Eh     change       -0.4884810E-06 Eh
 * total energy  :   -98.2984886 Eh     change       -0.3342226E-06 Eh
 * total energy  :   -98.2984888 Eh     change       -0.2176359E-06 Eh
 * total energy  :   -98.2984890 Eh     change       -0.2019813E-06 Eh
 * total energy  :   -98.2984892 Eh     change       -0.1705549E-06 Eh
 * total energy  :   -98.2984893 Eh     change       -0.1000117E-06 Eh
 * total energy  :   -98.2984894 Eh     change       -0.7004871E-07 Eh
   *** GEOMETRY OPTIMIZATION CONVERGED AFTER 34 ITERATIONS ***

 final structure:
================
70
 xtb: 6.7.1 (edcfbbe)
C           -0.46357016168332        1.40694242263651       -3.53437700110243
C            0.99432570053485        1.32386481180500       -3.10246010488878
C            1.56916015461121       -0.07999197069388       -3.29025811401651
C            2.86466879526811       -0.26191228838740       -2.50322613722777
O            2.49572120688001       -0.21625125772513       -1.14429028535307
C            3.43405569002323       -0.15853912915345       -0.16610338612169
C            4.79827188273629       -0.34079969936773       -0.33563580212049
C            5.64080201273680       -0.27811063247127        0.76468960070640
C            5.13542494630809       -0.03934964632053        2.02821021296319
C            3.77146724028279        0.14780693159720        2.20094572780966
C            2.91626984139843        0.09688388185402        1.11659635321626
C            1.45289290561181        0.31044175129149        1.20200257416621
C            0.60717718758868       -0.73768647753078        1.58104646422686
C            1.11783605325118       -1.98908231002758        2.01498269880430
C            0.28500551215434       -2.99833481934956        2.38764158892312
C           -1.11232650875627       -2.81398978396722        2.35917113527075
C           -1.64158497982817       -1.63476766574892        1.93404715426243
C           -0.80998834459340       -0.56516126129676        1.51009835789402
C           -1.34253731257521        0.63284759263068        1.01552843853033
C           -2.80546017233961        0.74869245590050        0.82616276016661
C           -3.59491003864707        1.51295183060194        1.66869386096705
C           -4.96840389688778        1.57104343216318        1.49389350976551
C           -5.55562556539512        0.85622194579403        0.46766921751403
C           -4.78257795936550        0.09190519599999       -0.39248202005291
C           -3.40477049157157        0.03767750119118       -0.22759213464356
O           -2.55074314641226       -0.65249707894031       -1.03226631576298
C           -3.07094357455583       -1.64395496413787       -1.89105798891509
C           -1.90000313262733       -2.42364622351124       -2.48372138668034
C           -1.01281217191802       -3.03030780975937       -1.39838152069150
C            0.11174648965529       -3.87205079372056       -1.98595943851589
C           -0.49701395069764        1.69063717595278        0.66064650633471
C           -1.00223926257534        2.91613165943346        0.15270174290349
C           -0.16775442623117        3.93588704387590       -0.18688643628845
C            1.22684400534869        3.79497282769319       -0.03646676975996
C            1.75236794181707        2.62867529933096        0.42804111502268
C            0.91861006765902        1.53361753788429        0.77674847221576
H           -1.07746585613240        0.77297021524120       -2.89870828089679
H           -0.58113536914029        1.08865519340115       -4.56894767122958
H           -0.82579627026898        2.42831691270478       -3.44400622257807
H            1.06202682048469        1.58805244845887       -2.04683022222433
H            1.59239027565284        2.04147380544494       -3.66982381565498
H            1.74950675765037       -0.28576319118410       -4.34691646762263
H            0.85249230092933       -0.80843006120598       -2.90841714823893
H            3.57696608138603        0.54129922564579       -2.73783093434267
H            3.33173649257853       -1.22845109236760       -2.74323238490117
H            5.20929206397572       -0.53507967974467       -1.31469916721206
H            6.70228827627773       -0.42080438901972        0.62464060627853
H            5.79830879048784        0.00535887611545        2.87902536635221
H            3.36590566941286        0.34452105153097        3.18285678738433
H            2.18949247724997       -2.12162579720121        2.04660557336343
H            0.68635630650596       -3.94613970009422        2.71644893070073
H           -1.75774101546864       -3.61941214358504        2.67943481851392
H           -2.71237252118309       -1.49148814606633        1.91809261225852
H           -3.12370973681766        2.05393759675600        2.47664534815338
H           -5.57433440161239        2.16624333361537        2.16003976181819
H           -6.62592656839743        0.88913461515312        0.32641789370823
H           -5.26194603999088       -0.45273228756412       -1.19126002394730
H           -3.72467254146002       -2.32181992431018       -1.32387603364679
H           -3.65911269436249       -1.18448004554118       -2.69920052120864
H           -2.30302506966661       -3.21015441016344       -3.12561835133352
H           -1.30628992480988       -1.74980557249563       -3.10357386548435
H           -0.58965020205760       -2.22422247081318       -0.79797160020784
H           -1.62339864634401       -3.64993402817305       -0.73732124213594
H            0.73298405964172       -4.27547260960636       -1.19012615918025
H           -0.28894656358651       -4.70122369662573       -2.56626630767014
H            0.74100766047822       -3.27073172744208       -2.63838417144451
H           -2.07110361522629        3.02390234519439        0.04119246902247
H           -0.56617519943640        4.86357711038212       -0.57171798631422
H            1.87311860065863        4.62041294806155       -0.29810002299923
H            2.82114211347671        2.51688968456808        0.54194045250034

          :  Hamiltonian                  GFN2-xTB          :
         :: gradient norm              0.000030323941 Eh/a0 ::
         :: HOMO-LUMO gap              2.150288269823 eV    ::
         :: SCC energy               -99.961025231524 Eh    ::
         :: -> dispersion             -0.092883593816 Eh    ::
         :: repulsion energy           1.662535852371 Eh    ::

    * Orbital Energies and Occupations

         #    Occupation            Energy/Eh            Energy/eV
      -------------------------------------------------------------
         1        2.0000           -0.7086346             -19.2829
       ...           ...                  ...                  ...
        79        2.0000           -0.4191833             -11.4066
        80        2.0000           -0.4180847             -11.3767
        81        2.0000           -0.4170382             -11.3482
        82        2.0000           -0.4134044             -11.2493
        83        2.0000           -0.4114627             -11.1965
        84        2.0000           -0.3978476             -10.8260
        85        2.0000           -0.3967638             -10.7965
        86        2.0000           -0.3950195             -10.7490
        87        2.0000           -0.3927399             -10.6870
        88        2.0000           -0.3893171             -10.5939
        89        2.0000           -0.3733492             -10.1593
        90        2.0000           -0.3705291             -10.0826
        91        2.0000           -0.3489289              -9.4948 (HOMO)
        92                         -0.2699072              -7.3445 (LUMO)
        93                         -0.2222747              -6.0484
        94                         -0.2195636              -5.9746
        95                         -0.2180202              -5.9326
        96                         -0.2120189              -5.7693
        97                         -0.2104197              -5.7258
        98                         -0.2087539              -5.6805
        99                         -0.1664942              -4.5305
       100                         -0.1637427              -4.4557
       101                         -0.0897887              -2.4433
       102                         -0.0874172              -2.3787
       ...                                ...                  ...
       178                          0.7255859              19.7442
      -------------------------------------------------------------
                  HL-Gap            0.0790216 Eh            2.1503 eV

     #   Z          covCN         q      C6AA      α(0)
     1   6 C        3.752    -0.102    22.513     6.766
     2   6 C        3.801    -0.053    21.528     6.606
     3   6 C        3.803    -0.063    21.704     6.633
     4   6 C        3.689     0.088    19.306     6.288
     5   8 O        1.708    -0.272    18.507     5.808
     6   6 C        2.868     0.142    24.913     8.182
     7   6 C        2.915    -0.069    29.712     8.938
     8   6 C        2.921    -0.034    28.850     8.808
     9   6 C        2.918    -0.044    29.103     8.846
    10   6 C        2.921    -0.035    28.873     8.812
    11   6 C        2.979    -0.006    28.171     8.706
    12   6 C        2.980     0.005    27.907     8.665
    13   6 C        2.984     0.010    27.793     8.648
    14   6 C        2.917    -0.033    28.815     8.803
    15   6 C        2.914    -0.031    28.774     8.796
    16   6 C        2.914    -0.031    28.771     8.796
    17   6 C        2.917    -0.030    28.747     8.792
    18   6 C        2.985     0.011    27.755     8.642
    19   6 C        2.978     0.004    27.926     8.668
    20   6 C        2.978    -0.005    28.148     8.703
    21   6 C        2.923    -0.035    28.866     8.811
    22   6 C        2.917    -0.043    29.078     8.843
    23   6 C        2.921    -0.034    28.849     8.808
    24   6 C        2.916    -0.068    29.699     8.937
    25   6 C        2.868     0.141    24.921     8.183
    26   8 O        1.706    -0.276    18.586     5.821
    27   6 C        3.693     0.088    19.282     6.283
    28   6 C        3.802    -0.062    21.689     6.630
    29   6 C        3.801    -0.051    21.495     6.601
    30   6 C        3.752    -0.102    22.502     6.765
    31   6 C        2.984     0.010    27.786     8.647
    32   6 C        2.917    -0.032    28.807     8.801
    33   6 C        2.914    -0.031    28.770     8.796
    34   6 C        2.914    -0.031    28.779     8.797
    35   6 C        2.917    -0.031    28.784     8.798
    36   6 C        2.986     0.011    27.753     8.642
    37   1 H        0.925     0.044     2.391     2.418
    38   1 H        0.925     0.030     2.593     2.518
    39   1 H        0.925     0.033     2.546     2.495
    40   1 H        0.924     0.048     2.350     2.397
    41   1 H        0.924     0.026     2.649     2.545
    42   1 H        0.924     0.033     2.551     2.498
    43   1 H        0.924     0.056     2.241     2.341
    44   1 H        0.923     0.025     2.662     2.552
    45   1 H        0.923     0.023     2.694     2.567
    46   1 H        0.926     0.029     2.606     2.525
    47   1 H        0.926     0.031     2.577     2.510
    48   1 H        0.926     0.031     2.578     2.511
    49   1 H        0.926     0.034     2.527     2.486
    50   1 H        0.926     0.030     2.584     2.514
    51   1 H        0.926     0.025     2.651     2.546
    52   1 H        0.926     0.025     2.664     2.552
    53   1 H        0.926     0.027     2.633     2.538
    54   1 H        0.926     0.035     2.518     2.481
    55   1 H        0.926     0.031     2.568     2.506
    56   1 H        0.926     0.031     2.571     2.507
    57   1 H        0.926     0.029     2.595     2.519
    58   1 H        0.923     0.024     2.668     2.554
    59   1 H        0.923     0.023     2.686     2.563
    60   1 H        0.924     0.036     2.503     2.474
    61   1 H        0.924     0.047     2.352     2.398
    62   1 H        0.924     0.050     2.324     2.384
    63   1 H        0.924     0.029     2.598     2.520
    64   1 H        0.925     0.036     2.499     2.472
    65   1 H        0.925     0.032     2.557     2.501
    66   1 H        0.925     0.034     2.528     2.486
    67   1 H        0.926     0.031     2.575     2.509
    68   1 H        0.926     0.026     2.650     2.546
    69   1 H        0.926     0.025     2.653     2.547
    70   1 H        0.926     0.027     2.625     2.534

molecular dipole:
                 x           y           z       tot (Debye)
 q only:       -0.088      -0.284      -0.546
   full:       -0.087      -0.378      -0.761       2.172

 projected vibrational frequencies (cm⁻¹)
eigval :       -0.00    -0.00     0.00     0.00     0.00     0.00
eigval :       18.40    20.77    29.84    37.46    39.06    41.28
eigval :       47.41    56.38    62.71    66.80    73.27    74.64
eigval :       79.62   108.05   114.27   120.54   131.30   136.33
eigval :      171.64   175.35   182.81   188.28   195.50   215.24
eigval :      216.45   225.35   246.77   257.66   265.49   286.56
eigval :      287.05   297.35   305.32   369.37   374.76   381.76
eigval :      396.49   400.52   442.15   444.34   449.59   457.94
eigval :      459.84   467.94   478.51   489.45   498.29   518.42
eigval :      585.16   586.02   589.16   590.10   594.88   598.43
eigval :      615.30   631.97   673.01   688.02   692.41   707.41
eigval :      726.90   741.08   766.78   772.49   774.13   775.57
eigval :      776.25   778.20   821.45   825.24   862.61   863.09
eigval :      874.38   874.76   876.42   884.20   896.41   899.14
eigval :      904.72   906.92   909.67   914.07   916.91   917.72
eigval :      917.97   921.27   921.94   927.16   927.40   933.27
eigval :      975.89   986.59  1002.45  1005.92  1072.72  1078.79
eigval :     1078.99  1080.25  1092.44  1094.66  1098.12  1104.62
eigval :     1113.86  1124.94  1135.50  1138.03  1138.55  1148.12
eigval :     1153.24  1160.66  1180.45  1180.99  1181.29  1183.68
eigval :     1202.88  1205.48  1211.83  1222.59  1226.49  1237.51
eigval :     1240.22  1245.94  1253.94  1258.42  1259.55  1261.78
eigval :     1268.46  1280.38  1283.71  1303.60  1306.66  1316.50
eigval :     1321.80  1332.61  1335.81  1345.22  1351.02  1368.62
eigval :     1368.84  1369.72  1386.16  1414.55  1415.21  1418.71
eigval :     1429.97  1437.02  1440.42  1444.66  1459.07  1464.35
eigval :     1474.26  1476.93  1483.24  1487.06  1490.27  1493.33
eigval :     1497.08  1503.02  1504.63  1506.05  1509.20  1527.30
eigval :     1535.71  1544.00  1578.04  1579.77  1592.98  1595.88
eigval :     1608.40  1622.82  2862.19  2863.97  2891.22  2895.10
eigval :     2964.42  2968.54  2975.47  2980.80  2992.72  3001.06
eigval :     3007.93  3010.22  3024.85  3026.10  3033.79  3036.94
eigval :     3041.76  3042.62  3067.51  3068.89  3074.29  3075.03
eigval :     3076.27  3076.89  3079.82  3080.14  3083.70  3084.72
eigval :     3089.09  3090.68  3090.88  3092.93  3096.88  3099.40

   temp. (K)  partition function   enthalpy   heat capacity  entropy
                                   cal/mol     cal/K/mol   cal/K/mol   J/K/mol
 298.15  VIB  0.119E+16            19375.291    117.419    122.605
         ROT  0.225E+08              888.752      2.981     36.625
         INT  0.269E+23            20264.043    120.400    159.230
         TR   0.100E+29             1481.254      4.968     44.340
         TOT                       21745.2974   125.3685   203.5705   851.7391

       T/K    H(0)-H(T)+PV         H(T)/Eh          T*S/Eh         G(T)/Eh
   ------------------------------------------------------------------------
    298.15    0.346533E-01    0.609940E+00    0.967229E-01    0.513217E+00
   ------------------------------------------------------------------------

         :::::::::::::::::::::::::::::::::::::::::::::::::::::
         ::                  THERMODYNAMIC                  ::
         :::::::::::::::::::::::::::::::::::::::::::::::::::::
         :: total free energy         -97.785272465276 Eh   ::
         ::.................................................::
         :: total energy              -98.298489379136 Eh   ::
         :: zero point energy           0.575286502563 Eh   ::
         :: G(RRHO) w/o ZPVE           -0.062069588703 Eh   ::
         :: G(RRHO) contrib.            0.513216913861 Eh   ::
         :::::::::::::::::::::::::::::::::::::::::::::::::::::

           -------------------------------------------------
          | TOTAL ENERGY              -98.298489379136 Eh   |
          | TOTAL ENTHALPY            -97.688549539454 Eh   |
          | TOTAL FREE ENERGY         -97.785272465276 Eh   |
          | GRADIENT NORM               0.000030368995 Eh/α |
          | HOMO-LUMO GAP               2.150288354474 eV   |
           -------------------------------------------------

 * finished run on 2025/07/20 at 08:24:09.492
