   * xtb version 6.7.1 (edcfbbe) compiled by 'albert@albert-system' on 2024-07-22

   ID    Z sym.   atoms
    1    6 C      1-4, 6-25, 27-36
    2    8 O      5, 26
    3    1 H      37-70

          program call               : xtb data2507/gas/BBPA/BBPA.xyz --gfn 2 --ohess vtight --parallel 40 --molden --ceasefiles --namespace data2507/gas/BBPA/BBPA_gas_S0_preOpt
          :  Hamiltonian                  GFN2-xTB          :
 * total energy  :   -98.2729070 Eh     change       -0.2457995E-08 Eh
 * total energy  :   -98.2848160 Eh     change       -0.1190897E-01 Eh
 * total energy  :   -98.2876910 Eh     change       -0.2875018E-02 Eh
 * total energy  :   -98.2881507 Eh     change       -0.4597063E-03 Eh
 * total energy  :   -98.2885852 Eh     change       -0.4345246E-03 Eh
 * total energy  :   -98.2888345 Eh     change       -0.2492568E-03 Eh
 * total energy  :   -98.2891672 Eh     change       -0.3327385E-03 Eh
 * total energy  :   -98.2895247 Eh     change       -0.3574536E-03 Eh
 * total energy  :   -98.2898881 Eh     change       -0.3634063E-03 Eh
 * total energy  :   -98.2902289 Eh     change       -0.3408148E-03 Eh
 * total energy  :   -98.2939312 Eh     change       -0.7467371E-06 Eh
 * total energy  :   -98.2939321 Eh     change       -0.9247225E-06 Eh
 * total energy  :   -98.2939332 Eh     change       -0.1120366E-05 Eh
 * total energy  :   -98.2939343 Eh     change       -0.1117863E-05 Eh
 * total energy  :   -98.2939346 Eh     change       -0.2502745E-06 Eh
 * total energy  :   -98.2939350 Eh     change       -0.4222616E-06 Eh
 * total energy  :   -98.2939349 Eh     change        0.1004199E-06 Eh
 * total energy  :   -98.2939352 Eh     change       -0.2678410E-06 Eh
 * total energy  :   -98.2939352 Eh     change       -0.1901134E-07 Eh
   *** GEOMETRY OPTIMIZATION CONVERGED AFTER 98 ITERATIONS ***

 final structure:
================
70
 xtb: 6.7.1 (edcfbbe)
C            5.66893808902979        2.15218213175990        2.45796489774800
C            4.93561500420985        2.32536335391463        1.13365470969474
C            3.97540342673360        1.16971554575861        0.86920555623490
C            3.22482105159410        1.35027267324420       -0.45124412906237
O            2.28637412174781        0.32246471373709       -0.68469738398972
C            2.72284859047395       -0.92932248695695       -1.00681923560127
C            4.01206839148356       -1.25087907012628       -1.41416609346731
C            4.33337766180028       -2.55409425531069       -1.75702158482701
C            3.37963006157916       -3.55228387975211       -1.69918479501110
C            2.09318290237876       -3.23974644927023       -1.29394800378199
C            1.75166908821406       -1.94292498016768       -0.94249808241051
C            0.38064763304726       -1.62410875630821       -0.48904081581293
C           -0.68762363334233       -1.68258059883167       -1.39419569145399
C           -0.49432077268938       -1.99054368625833       -2.76670025124648
C           -1.54442076474899       -2.06061906802619       -3.62932093000197
C           -2.85860440588241       -1.82812945694829       -3.17473313284855
C           -3.08570965285148       -1.50867667207851       -1.87202908400763
C           -2.01638955398667       -1.41215934892541       -0.94225416465169
C           -2.23798815459070       -1.03423329271539        0.38792601157867
C           -3.62035533010105       -0.78872481315321        0.87365556339312
C           -4.31396981418107       -1.90711230520690        1.33574094928175
C           -5.58962321914001       -1.81638607589820        1.85301597069866
C           -6.20282956811155       -0.57549755306590        1.92457337007156
C           -5.53998107244944        0.54152112636581        1.46635695168473
C           -4.25049703075979        0.45934477847226        0.93095524133018
O           -3.74644004906985        1.66165728140640        0.53818949638831
C           -2.59473253853589        1.74763188200770       -0.27816421630719
C           -2.45246427151690        3.20403033915877       -0.71121613739089
C           -1.39467916618696        3.38531446118909       -1.79740897972336
C            0.01214574526741        3.03487567126267       -1.32642012703190
C           -1.16846818655875       -0.96730736096978        1.29143604579865
C           -1.36486855697234       -0.59073546179124        2.64609005317705
C           -0.32395058329066       -0.54464947120624        3.52103733662156
C            0.97474935601444       -0.89234273833452        3.09776845440440
C            1.20365112269509       -1.25575165669964        1.80648295037670
C            0.15418256279840       -1.28218870544209        0.85158260609258
H            6.24601155258762        1.23005713261100        2.45733896098698
H            4.96032150928692        2.11162188832626        3.28197414741866
H            6.34914838604851        2.98280733558142        2.62997937418279
H            5.66305230041267        2.38591485971456        0.32048530257028
H            4.37608129337940        3.26326563930055        1.14644164824195
H            3.24083037900096        1.10337612120803        1.67476389999268
H            4.53073857199860        0.22903302179261        0.84855104188301
H            3.92742370223473        1.44205234815134       -1.28950832077187
H            2.62324287488393        2.26193191840623       -0.41241394386008
H            4.77775808146033       -0.49334585463907       -1.47454716517239
H            5.34121725114218       -2.78320368831802       -2.07062114264912
H            3.63383426698635       -4.56719965754372       -1.96407464568110
H            1.33749683663701       -4.00972497662321       -1.23498192436496
H            0.51202936730270       -2.16453705448072       -3.11745981490474
H           -1.38026596714815       -2.29465392650440       -4.67112157444574
H           -3.68058788870343       -1.89827890900368       -3.87218010145099
H           -4.08990349757526       -1.31962112662248       -1.51936114487190
H           -3.81781776076720       -2.86619452440197        1.28420269340265
H           -6.09859358362892       -2.70214037850511        2.20134352621905
H           -7.19811769007534       -0.48017739755748        2.33209327584260
H           -5.99765128111800        1.51781636681309        1.50739035295176
H           -1.70675785008121        1.42554335623223        0.27592452326875
H           -2.71009585935321        1.11196355978952       -1.16487392538849
H           -3.42143056846950        3.53979283418349       -1.08621312058627
H           -2.20417077224633        3.81263266698981        0.15989994855718
H           -1.65212219097366        2.76425191110631       -2.65833176935509
H           -1.41198373782365        4.42794743036752       -2.12323595915305
H            0.25797183854351        3.59383257899605       -0.42554145790218
H            0.10375760313372        1.97290520229434       -1.11298645703422
H            0.73699223567361        3.28809877981324       -2.09734800533410
H           -2.36537246749530       -0.34281386542867        2.97002256786136
H           -0.48608060060239       -0.25388072924050        4.54870886042511
H            1.78562415294888       -0.87354706317372        3.81203362735611
H            2.19603102831951       -1.53890261451069        1.48907339582694

          :  Hamiltonian                  GFN2-xTB          :
         :: gradient norm              0.000147272277 Eh/a0 ::
         :: HOMO-LUMO gap              2.130649926001 eV    ::
         :: SCC energy               -99.954759852666 Eh    ::
         :: -> dispersion             -0.088851249552 Eh    ::
         :: repulsion energy           1.660824634806 Eh    ::

    * Orbital Energies and Occupations

         #    Occupation            Energy/Eh            Energy/eV
      -------------------------------------------------------------
         1        2.0000           -0.7125201             -19.3887
       ...           ...                  ...                  ...
        79        2.0000           -0.4235239             -11.5247
        80        2.0000           -0.4222126             -11.4890
        81        2.0000           -0.4201459             -11.4328
        82        2.0000           -0.4155222             -11.3069
        83        2.0000           -0.4133104             -11.2467
        84        2.0000           -0.4017604             -10.9325
        85        2.0000           -0.4003005             -10.8927
        86        2.0000           -0.3977700             -10.8239
        87        2.0000           -0.3950517             -10.7499
        88        2.0000           -0.3925708             -10.6824
        89        2.0000           -0.3763549             -10.2411
        90        2.0000           -0.3689706             -10.0402
        91        2.0000           -0.3534043              -9.6166 (HOMO)
        92                         -0.2751044              -7.4860 (LUMO)
        93                         -0.2269606              -6.1759
        94                         -0.2234123              -6.0794
        95                         -0.2177857              -5.9263
        96                         -0.2163203              -5.8864
        97                         -0.2139877              -5.8229
        98                         -0.2082596              -5.6670
        99                         -0.1718830              -4.6772
       100                         -0.1683053              -4.5798
       101                         -0.0946849              -2.5765
       102                         -0.0907311              -2.4689
       ...                                ...                  ...
       178                          0.7195835              19.5809
      -------------------------------------------------------------
                  HL-Gap            0.0783000 Eh            2.1307 eV

     #   Z          covCN         q      C6AA      α(0)
     1   6 C        3.752    -0.104    22.538     6.770
     2   6 C        3.801    -0.055    21.560     6.611
     3   6 C        3.801    -0.067    21.782     6.645
     4   6 C        3.692     0.078    19.453     6.311
     5   8 O        1.705    -0.280    18.652     5.831
     6   6 C        2.863     0.142    24.896     8.179
     7   6 C        2.917    -0.067    29.675     8.933
     8   6 C        2.921    -0.034    28.856     8.809
     9   6 C        2.917    -0.043    29.076     8.842
    10   6 C        2.925    -0.034    28.849     8.808
    11   6 C        2.978    -0.007    28.193     8.710
    12   6 C        2.977     0.002    27.967     8.675
    13   6 C        2.983     0.006    27.875     8.661
    14   6 C        2.917    -0.034    28.837     8.806
    15   6 C        2.915    -0.031    28.773     8.796
    16   6 C        2.914    -0.031    28.775     8.796
    17   6 C        2.918    -0.035    28.871     8.811
    18   6 C        2.984     0.003    27.941     8.671
    19   6 C        2.980    -0.002    28.081     8.692
    20   6 C        2.972    -0.020    28.492     8.756
    21   6 C        2.932    -0.034    28.853     8.809
    22   6 C        2.917    -0.043    29.080     8.843
    23   6 C        2.919    -0.033    28.815     8.803
    24   6 C        2.923    -0.056    29.394     8.891
    25   6 C        2.856     0.141    24.919     8.182
    26   8 O        1.707    -0.282    18.673     5.834
    27   6 C        3.687     0.086    19.336     6.295
    28   6 C        3.801    -0.065    21.742     6.639
    29   6 C        3.801    -0.056    21.582     6.614
    30   6 C        3.751    -0.105    22.567     6.775
    31   6 C        2.985     0.005    27.913     8.666
    32   6 C        2.918    -0.034    28.835     8.806
    33   6 C        2.914    -0.031    28.766     8.795
    34   6 C        2.915    -0.031    28.781     8.797
    35   6 C        2.917    -0.030    28.746     8.792
    36   6 C        2.984     0.010    27.797     8.648
    37   1 H        0.925     0.037     2.488     2.466
    38   1 H        0.925     0.038     2.476     2.461
    39   1 H        0.925     0.038     2.480     2.463
    40   1 H        0.924     0.030     2.586     2.515
    41   1 H        0.924     0.032     2.562     2.503
    42   1 H        0.924     0.045     2.383     2.414
    43   1 H        0.924     0.039     2.457     2.451
    44   1 H        0.924     0.026     2.644     2.543
    45   1 H        0.924     0.050     2.316     2.380
    46   1 H        0.926     0.034     2.537     2.491
    47   1 H        0.926     0.031     2.566     2.505
    48   1 H        0.926     0.032     2.561     2.503
    49   1 H        0.926     0.035     2.515     2.480
    50   1 H        0.926     0.032     2.562     2.503
    51   1 H        0.926     0.027     2.623     2.533
    52   1 H        0.926     0.027     2.622     2.532
    53   1 H        0.926     0.029     2.596     2.520
    54   1 H        0.926     0.031     2.579     2.511
    55   1 H        0.926     0.031     2.575     2.509
    56   1 H        0.926     0.034     2.536     2.490
    57   1 H        0.926     0.046     2.374     2.410
    58   1 H        0.924     0.032     2.561     2.503
    59   1 H        0.924     0.027     2.626     2.534
    60   1 H        0.924     0.048     2.351     2.398
    61   1 H        0.924     0.046     2.372     2.408
    62   1 H        0.924     0.032     2.552     2.498
    63   1 H        0.924     0.036     2.498     2.472
    64   1 H        0.925     0.034     2.528     2.486
    65   1 H        0.925     0.043     2.410     2.428
    66   1 H        0.925     0.035     2.523     2.484
    67   1 H        0.926     0.031     2.570     2.507
    68   1 H        0.926     0.027     2.624     2.533
    69   1 H        0.926     0.025     2.653     2.547
    70   1 H        0.926     0.029     2.593     2.518

molecular dipole:
                 x           y           z       tot (Debye)
 q only:        0.811       0.362      -0.080
   full:        1.061       0.287      -0.179       2.831

 projected vibrational frequencies (cm⁻¹)
eigval :       -0.00    -0.00     0.00     0.00     0.00     0.00
eigval :       11.54    16.23    23.70    25.02    37.40    47.04
eigval :       51.40    57.03    61.60    63.96    71.97    75.35
eigval :       83.13    97.53   113.00   118.57   131.89   150.55
eigval :      157.46   163.80   165.43   192.26   199.07   215.92
eigval :      217.31   233.76   239.64   272.97   278.19   285.71
eigval :      299.52   306.58   331.10   359.77   389.23   397.89
eigval :      399.11   413.14   426.16   428.99   445.55   455.71
eigval :      459.73   460.74   492.85   508.38   511.38   515.69
eigval :      563.89   570.87   585.88   589.15   593.03   607.87
eigval :      611.42   635.98   667.01   686.93   692.87   703.52
eigval :      718.64   741.39   773.65   774.92   777.18   779.58
eigval :      783.26   791.59   795.85   823.84   839.72   845.07
eigval :      869.08   875.84   876.59   877.84   896.43   907.18
eigval :      910.18   912.79   913.00   918.96   919.34   922.73
eigval :      923.17   928.54   928.86   933.06   938.15   944.83
eigval :      953.54   971.49  1020.64  1026.87  1059.38  1069.67
eigval :     1079.02  1080.70  1092.60  1100.21  1102.06  1106.99
eigval :     1124.49  1125.93  1131.08  1135.21  1138.53  1151.51
eigval :     1154.77  1167.61  1174.99  1180.34  1181.43  1184.67
eigval :     1205.07  1206.27  1206.52  1222.23  1226.99  1237.10
eigval :     1243.96  1250.86  1254.71  1258.34  1259.40  1264.79
eigval :     1269.07  1272.50  1274.85  1280.38  1307.39  1314.43
eigval :     1320.17  1328.98  1338.90  1350.33  1351.60  1360.56
eigval :     1365.97  1368.88  1385.94  1416.20  1416.45  1420.40
eigval :     1422.06  1429.60  1436.33  1444.04  1464.15  1480.12
eigval :     1483.13  1484.12  1487.88  1492.37  1493.82  1497.17
eigval :     1499.50  1502.79  1505.80  1506.28  1512.81  1526.76
eigval :     1532.03  1543.00  1572.23  1577.77  1591.96  1597.30
eigval :     1608.66  1622.80  2897.61  2906.97  2935.55  2962.18
eigval :     2967.11  2972.81  2977.54  2979.71  2984.80  2986.22
eigval :     2991.26  2995.30  3026.54  3031.33  3033.48  3037.10
eigval :     3041.77  3048.08  3069.21  3070.44  3073.20  3075.89
eigval :     3076.94  3077.70  3080.59  3081.77  3085.72  3088.00
eigval :     3092.34  3093.36  3094.05  3094.66  3101.09  3103.59

   temp. (K)  partition function   enthalpy   heat capacity  entropy
                                   cal/mol     cal/K/mol   cal/K/mol   J/K/mol
 298.15  VIB  0.386E+16            19377.265    117.152    123.438
         ROT  0.276E+08              888.752      2.981     37.026
         INT  0.106E+24            20266.017    120.133    160.464
         TR   0.100E+29             1481.254      4.968     44.340
         TOT                       21747.2710   125.1009   204.8043   856.9014

       T/K    H(0)-H(T)+PV         H(T)/Eh          T*S/Eh         G(T)/Eh
   ------------------------------------------------------------------------
    298.15    0.346565E-01    0.610466E+00    0.973092E-01    0.513156E+00
   ------------------------------------------------------------------------

         :::::::::::::::::::::::::::::::::::::::::::::::::::::
         ::                  THERMODYNAMIC                  ::
         :::::::::::::::::::::::::::::::::::::::::::::::::::::
         :: total free energy         -97.780778832799 Eh   ::
         ::.................................................::
         :: total energy              -98.293935217848 Eh   ::
         :: zero point energy           0.575809057475 Eh   ::
         :: G(RRHO) w/o ZPVE           -0.062652672426 Eh   ::
         :: G(RRHO) contrib.            0.513156385049 Eh   ::
         :::::::::::::::::::::::::::::::::::::::::::::::::::::

           -------------------------------------------------
          | TOTAL ENERGY              -98.293935217848 Eh   |
          | TOTAL ENTHALPY            -97.683469678021 Eh   |
          | TOTAL FREE ENERGY         -97.780778832799 Eh   |
          | GRADIENT NORM               0.000147196309 Eh/α |
          | HOMO-LUMO GAP               2.130650111839 eV   |
           -------------------------------------------------

 * finished run on 2025/07/20 at 08:09:47.326
