   * xtb version 6.7.1 (edcfbbe) compiled by 'albert@albert-system' on 2024-07-22

   ID    Z sym.   atoms
    1    6 C      1-4, 6-25, 27-36
    2    8 O      5, 26
    3    1 H      37-70

          program call               : xtb data2507/gas/BBPA/BBPA_gas_S0_finalOpt.xtbopt.xyz --gfn 2 --spinpol --tblite --uhf 2 --ohess vtight --parallel 40 --molden --ceasefiles --namespace data2507/gas/BBPA/BBPA_gas_T1_preOpt
 * total energy  :   -98.2250261 Eh     change       -0.7768520E-08 Eh
 * total energy  :   -98.2316308 Eh     change       -0.6604700E-02 Eh
 * total energy  :   -98.2330579 Eh     change       -0.1427168E-02 Eh
 * total energy  :   -98.2331487 Eh     change       -0.9073698E-04 Eh
 * total energy  :   -98.2332031 Eh     change       -0.5445462E-04 Eh
 * total energy  :   -98.2332277 Eh     change       -0.2455872E-04 Eh
 * total energy  :   -98.2332701 Eh     change       -0.4236138E-04 Eh
 * total energy  :   -98.2333235 Eh     change       -0.5346575E-04 Eh
 * total energy  :   -98.2333848 Eh     change       -0.6125198E-04 Eh
 * total energy  :   -98.2334344 Eh     change       -0.4959341E-04 Eh
 * total energy  :   -98.2337076 Eh     change       -0.1443940E-05 Eh
 * total energy  :   -98.2337091 Eh     change       -0.1540645E-05 Eh
 * total energy  :   -98.2337107 Eh     change       -0.1583009E-05 Eh
 * total energy  :   -98.2337123 Eh     change       -0.1569963E-05 Eh
 * total energy  :   -98.2337138 Eh     change       -0.1501369E-05 Eh
 * total energy  :   -98.2337152 Eh     change       -0.1404448E-05 Eh
 * total energy  :   -98.2337165 Eh     change       -0.1358078E-05 Eh
 * total energy  :   -98.2337177 Eh     change       -0.1191970E-05 Eh
 * total energy  :   -98.2337178 Eh     change       -0.6624150E-07 Eh
   *** GEOMETRY OPTIMIZATION CONVERGED AFTER 44 ITERATIONS ***

 final structure:
================
70
 xtb: 6.7.1 (edcfbbe)
C           -0.61063074719930        1.42798314414109       -3.52855720279117
C            0.85380300769174        1.44676228736803       -3.11145243944857
C            1.52362677954231        0.08831461298121       -3.31685254807658
C            2.83778459337051       -0.00997217264612       -2.54609258479066
O            2.48467735928624        0.03379701787488       -1.18336105546156
C            3.42239718209201       -0.06609292829660       -0.20952572894154
C            4.77938589276912       -0.27112076049619       -0.40421445742590
C            5.61885857022886       -0.40645238683346        0.69217368345211
C            5.11429447062197       -0.34746745411997        1.97749749742597
C            3.75855284194467       -0.13734907987369        2.17746568513531
C            2.90382258639435        0.01853204942616        1.09896154310680
C            1.45957562751338        0.27098304233114        1.22230179759489
C            0.57527030413337       -0.77243501325178        1.62055001856183
C            1.04732798485011       -2.00716784354404        2.06905649648509
C            0.16875677324022       -3.01450413008627        2.47130515164045
C           -1.18934236395233       -2.79673245186467        2.43254777357674
C           -1.68721736932304       -1.57973238381912        1.96131048177682
C           -0.83280916514588       -0.56776793766517        1.52496944781156
C           -1.33545287432061        0.65975452052982        0.99116528587375
C           -2.77907527057665        0.78985030734148        0.75460286041809
C           -3.57078076973322        1.67201229503231        1.47650077978838
C           -4.93801280394945        1.73437653884659        1.26678435334474
C           -5.52393872929467        0.90946244520106        0.32498790973814
C           -4.75133439800655        0.03484519099974       -0.42409242308199
C           -3.37897055298923       -0.02414580652464       -0.22730288330636
O           -2.51791165474212       -0.79291728051401       -0.94576041456375
C           -3.02577324569182       -1.78892362655749       -1.80546252764292
C           -1.83897933375880       -2.54062486699161       -2.40219626830495
C           -0.95556116071158       -3.15973635899310       -1.32129017577792
C            0.22894629898069       -3.90910407336466       -1.91585238067068
C           -0.45214582322272        1.72890185279048        0.66223923505403
C           -0.91773251810209        2.94453627252471        0.15811174943882
C           -0.03931515302937        3.98717287903459       -0.14274317668048
C            1.31334759242787        3.82480231692630        0.05138043025205
C            1.80771950971413        2.60505857593897        0.51987717491451
C            0.95347000605614        1.54059929888300        0.80550447941558
H           -1.16980545949210        0.74241619526799       -2.89586829401047
H           -0.71538594686701        1.11404387310340       -4.56580397207939
H           -1.04609533765514        2.41862141696058       -3.42180257049398
H            0.91486594620270        1.70735050546360       -2.05464161268860
H            1.39318971588149        2.20872701280717       -3.67945309268137
H            1.70616846589886       -0.09655975356107       -4.37699281838995
H            0.86310286538481       -0.69206503775893       -2.93489218885642
H            3.50282320235643        0.82755519807875       -2.80034055656588
H            3.35224603865273       -0.95293065480273       -2.78137174929676
H            5.18882668657407       -0.32921559506103       -1.40129363054687
H            6.67534595628326       -0.56319465022524        0.53168317014867
H            5.77357100153936       -0.45748966241556        2.82525608567264
H            3.35729092172759       -0.07237259557857        3.17846290664586
H            2.11163243533543       -2.18490191555558        2.10371680465512
H            0.56389002251685       -3.95879889441123        2.81610473983548
H           -1.87780915286343       -3.56347896391355        2.75649890661265
H           -2.75519073282081       -1.42215483467829        1.93211970760669
H           -3.10535743691693        2.29234317854450        2.22866856902487
H           -5.54298475530396        2.41650455056579        1.84472404641381
H           -6.59099776807756        0.94325992398964        0.16204500033312
H           -5.22839093127570       -0.59140333295005       -1.16209605292959
H           -3.66719965702974       -2.48014004383748       -1.24016542678102
H           -3.62183135754231       -1.33588046167270       -2.61116102904556
H           -2.22152153124660       -3.31622730916764       -3.06917950546464
H           -1.24726199944378       -1.84189037324637       -2.99631199263438
H           -0.59300304463321       -2.36623155828813       -0.66722303168384
H           -1.55287119671810       -3.84376009000612       -0.71386374712216
H            0.84022403054277       -4.33448463236438       -1.12379557129515
H           -0.10938033799796       -4.71614155512002       -2.56317054091257
H            0.85100811858251       -3.23708374750988       -2.50309061294057
H           -1.97569229009940        3.07825197984255       -0.00923133322748
H           -0.43066310786771        4.91807670149006       -0.52602070366500
H            2.00036470073008        4.62913107053772       -0.16692823339749
H            2.87170333509908        2.48232679496081        0.65976813633853

 projected vibrational frequencies (cm⁻¹)
eigval :       -0.00    -0.00     0.00     0.00     0.00     0.00
eigval :       16.83    18.21    23.96    35.74    37.99    39.80
eigval :       44.89    54.18    55.88    63.88    68.76    71.15
eigval :       75.40   104.54   109.23   114.91   124.69   138.23
eigval :      167.96   174.86   180.86   184.42   194.53   217.73
eigval :      223.02   227.21   244.09   257.01   263.64   283.38
eigval :      285.63   297.11   304.38   345.55   369.82   373.90
eigval :      389.28   393.72   402.06   438.59   443.20   453.67
eigval :      466.16   469.30   470.28   478.89   494.17   514.18
eigval :      575.21   577.58   582.15   586.75   588.51   590.18
eigval :      603.94   616.36   663.23   670.62   684.62   701.18
eigval :      713.44   726.36   742.94   756.27   766.10   769.72
eigval :      772.75   774.58   820.62   823.60   835.33   836.01
eigval :      860.43   861.13   877.17   881.13   881.34   886.25
eigval :      891.96   898.98   902.62   902.95   903.60   907.30
eigval :      909.09   911.57   914.39   919.74   920.17   944.27
eigval :      976.04   985.69  1003.11  1006.73  1071.72  1078.55
eigval :     1090.59  1092.61  1094.09  1096.80  1099.02  1103.99
eigval :     1109.44  1111.30  1123.05  1137.75  1138.15  1141.15
eigval :     1151.74  1153.41  1178.52  1179.77  1180.38  1181.34
eigval :     1184.74  1186.41  1210.57  1219.86  1227.94  1235.93
eigval :     1237.81  1241.67  1244.39  1251.74  1253.25  1259.54
eigval :     1260.50  1279.32  1282.50  1290.22  1300.80  1303.42
eigval :     1305.79  1315.95  1325.87  1333.61  1341.45  1342.66
eigval :     1367.47  1368.96  1373.76  1374.55  1383.90  1407.17
eigval :     1413.09  1413.46  1432.24  1435.18  1438.18  1451.85
eigval :     1456.04  1464.45  1472.79  1476.09  1480.93  1482.38
eigval :     1484.60  1489.73  1494.37  1502.26  1502.71  1504.56
eigval :     1507.67  1510.38  1531.62  1562.76  1569.04  1572.41
eigval :     1582.10  1585.80  2863.43  2865.46  2890.29  2892.11
eigval :     2965.45  2968.24  2975.84  2981.03  2988.80  2992.63
eigval :     3009.48  3011.16  3025.44  3026.26  3031.87  3037.01
eigval :     3041.14  3041.67  3070.97  3071.98  3076.20  3077.00
eigval :     3079.25  3079.30  3079.98  3080.92  3087.91  3088.12
eigval :     3090.02  3092.19  3093.23  3094.89  3096.79  3099.30

   temp. (K)  partition function   enthalpy   heat capacity  entropy
                                   cal/mol     cal/K/mol   cal/K/mol   J/K/mol
 298.15  VIB  0.390E+16            19633.002    118.190    124.550
         ROT  0.226E+08              888.752      2.981     36.633
         INT  0.883E+23            20521.754    121.171    161.183
         TR   0.100E+29             1481.254      4.968     44.340
         TOT                       22003.0082   126.1395   205.5233   859.9094

       T/K    H(0)-H(T)+PV         H(T)/Eh          T*S/Eh         G(T)/Eh
   ------------------------------------------------------------------------
    298.15    0.350640E-01    0.607198E+00    0.976507E-01    0.509547E+00
   ------------------------------------------------------------------------

         :::::::::::::::::::::::::::::::::::::::::::::::::::::
         ::                  THERMODYNAMIC                  ::
         :::::::::::::::::::::::::::::::::::::::::::::::::::::
         :: total free energy         -97.724170717269 Eh   ::
         ::.................................................::
         :: total energy              -98.233717776851 Eh   ::
         :: zero point energy           0.572133781092 Eh   ::
         :: G(RRHO) w/o ZPVE           -0.062586721510 Eh   ::
         :: G(RRHO) contrib.            0.509547059582 Eh   ::
         :::::::::::::::::::::::::::::::::::::::::::::::::::::

           -------------------------------------------------
          | TOTAL ENERGY              -98.233717776851 Eh   |
          | TOTAL ENTHALPY            -97.626519970193 Eh   |
          | TOTAL FREE ENERGY         -97.724170717269 Eh   |
          | GRADIENT NORM               0.000069903265 Eh/α |
           -------------------------------------------------

 * finished run on 2025/07/20 at 08:24:14.952
