   * xtb version 6.7.1 (edcfbbe) compiled by 'albert@albert-system' on 2024-07-22

   ID    Z sym.   atoms
    1    6 C      1-4, 6-25, 27-36
    2    8 O      5, 26
    3    1 H      37-70

          program call               : xtb data2507/gas/BBPA/BBPA_gas_T1_crest.xyz --gfn 2 --spinpol --tblite --uhf 2 --ohess vtight --parallel 40 --molden --ceasefiles --namespace data2507/gas/BBPA/BBPA_gas_T1_finalOpt
 * total energy  :   -98.2339256 Eh     change        0.1693769E-07 Eh
 * total energy  :   -98.2339628 Eh     change       -0.3719854E-04 Eh
 * total energy  :   -98.2339723 Eh     change       -0.9486484E-05 Eh
 * total energy  :   -98.2339764 Eh     change       -0.4050341E-05 Eh
 * total energy  :   -98.2339854 Eh     change       -0.9077630E-05 Eh
 * total energy  :   -98.2339933 Eh     change       -0.7888592E-05 Eh
 * total energy  :   -98.2339992 Eh     change       -0.5849810E-05 Eh
 * total energy  :   -98.2340054 Eh     change       -0.6190532E-05 Eh
 * total energy  :   -98.2340114 Eh     change       -0.6065360E-05 Eh
 * total energy  :   -98.2340157 Eh     change       -0.4285053E-05 Eh
 * total energy  :   -98.2340395 Eh     change       -0.2098688E-06 Eh
 * total energy  :   -98.2340397 Eh     change       -0.1972287E-06 Eh
 * total energy  :   -98.2340399 Eh     change       -0.2151705E-06 Eh
 * total energy  :   -98.2340401 Eh     change       -0.2014336E-06 Eh
 * total energy  :   -98.2340402 Eh     change       -0.1812294E-06 Eh
 * total energy  :   -98.2340404 Eh     change       -0.1325089E-06 Eh
 * total energy  :   -98.2340405 Eh     change       -0.1364196E-06 Eh
 * total energy  :   -98.2340406 Eh     change       -0.1251921E-06 Eh
 * total energy  :   -98.2340407 Eh     change       -0.1685488E-07 Eh
   *** GEOMETRY OPTIMIZATION CONVERGED AFTER 44 ITERATIONS ***

 final structure:
================
70
 xtb: 6.7.1 (edcfbbe)
C           -0.22656449098694        3.22213439359166       -2.89610582438064
C            1.04725795173319        2.78625277386676       -2.18557992837616
C            1.83154313342857        1.76241575549337       -3.00302874864705
C            3.02580853446161        1.21449508373104       -2.22707447624048
O            2.51953047303731        0.56682861887138       -1.08198512605686
C            3.37114350355171       -0.01242272188510       -0.19758348634848
C            4.73896624052655       -0.15772164354665       -0.37927073331860
C            5.49910093217348       -0.82491020760483        0.56967085849842
C            4.90488557895887       -1.35639842044181        1.69892982149475
C            3.54167388486879       -1.20717495740452        1.89131790770486
C            2.76219750753074       -0.52749872999474        0.96581758968299
C            1.32220320907111       -0.31266091203948        1.15210343603284
C            0.41828882395366       -1.41402184106353        1.13722098518369
C            0.86010250215512       -2.73373789626402        1.01879856310114
C           -0.03646886161031       -3.80171682062295        1.05049487341727
C           -1.38371319623292       -3.56359710647403        1.20590364835907
C           -1.85326805554195       -2.25104813066893        1.28256572252444
C           -0.98259460703108       -1.16543167343790        1.20756310911279
C           -1.46852198911947        0.18182291505906        1.18898921390175
C           -2.89800243522374        0.40610912798753        0.95165478094208
C           -3.73739595253051        1.04987279555878        1.85035469464261
C           -5.08324314157675        1.21601211786195        1.56800123839620
C           -5.59907747157390        0.75027442608679        0.37255762954912
C           -4.77876377032173        0.11713197793068       -0.54975712257297
C           -3.43319015043204       -0.06113918370089       -0.26897148104543
O           -2.52155318327679       -0.62242788822342       -1.10063779554700
C           -2.91598077172192       -1.37747279582597       -2.22302113224572
C           -1.74731952288213       -2.30433837696350       -2.55631805619959
C           -0.46427755056129       -1.51989398714724       -2.82385986221575
C            0.74053274609576       -2.44046711881967       -2.96083580874475
C           -0.56289970139370        1.28031128358393        1.28482299092184
C           -1.00135795889770        2.60552465295690        1.31532252980913
C           -0.10164532587566        3.66389393139991        1.44722012753726
C            1.24765057137835        3.41105438639455        1.54729149189062
C            1.71546224610208        2.09809309458370        1.47109672145371
C            0.83999972675471        1.02502277064429        1.30630663140147
H           -0.88283492748130        2.36871448080914       -3.05082146709986
H            0.00147736535215        3.66302158415615       -3.86480491689536
H           -0.75927131349442        3.95757638886746       -2.29828210425306
H            0.78867555512434        2.34023248864524       -1.22526509399322
H            1.67770619527256        3.65743555724077       -1.99183481924100
H            2.19099077454766        2.21102994237119       -3.93139946327706
H            1.17536532910526        0.92787820254946       -3.25331698737935
H            3.69934602767926        2.03227161721777       -1.93276041623880
H            3.58701967928850        0.50606159704104       -2.85378654817785
H            5.22198310902339        0.24133916784890       -1.25790055741631
H            6.56301855205104       -0.92875406153953        0.41591563159316
H            5.50045323021906       -1.87709560530472        2.43344804894574
H            3.07117978961703       -1.59599048993374        2.78278594887189
H            1.91447653001647       -2.93022655316956        0.89552112736840
H            0.33509807663368       -4.81211473416543        0.95902861634737
H           -2.08450498855456       -4.38448244290095        1.25439321753158
H           -2.91300961556209       -2.07452256984147        1.39561181317879
H           -3.33285584383671        1.39120213208449        2.79220084731340
H           -5.72757860640483        1.70510859639290        2.28296013531536
H           -6.64687339529522        0.88115994507096        0.14609045493403
H           -5.19191091044640       -0.22272755988198       -1.48757255590043
H           -3.81203035686109       -1.97067507068936       -1.99909043548412
H           -3.13758580836792       -0.71002497284629       -3.06885016416160
H           -1.58456672811542       -2.96541344338302       -1.70272666171088
H           -2.01068692996679       -2.91442750617456       -3.42255895378415
H           -0.58628827935076       -0.92975811864596       -3.73616463740864
H           -0.29715085124361       -0.83413909767099       -1.99205390454749
H            0.88163470067990       -3.01041800343082       -2.04514239232030
H            0.60478947622658       -3.13752723755620       -3.78580476720365
H            1.64255278176886       -1.86116861061756       -3.14250809989914
H           -2.05608571755658        2.81742768128393        1.23057374070482
H           -0.47370517545723        4.67751365878242        1.47485010857635
H            1.95122764742847        4.22136651222609        1.66935987250614
H            2.77698680757597        1.91053934439430        1.53618293268926

 projected vibrational frequencies (cm⁻¹)
eigval :       -0.00    -0.00     0.00     0.00     0.00     0.00
eigval :       14.15    16.11    26.77    28.83    41.11    46.35
eigval :       48.74    51.55    58.28    64.06    68.28    73.17
eigval :       78.97    99.13   111.21   117.83   129.91   140.82
eigval :      169.89   175.63   185.15   186.24   202.87   222.65
eigval :      225.72   230.73   232.84   254.05   261.31   283.13
eigval :      287.59   296.60   301.45   346.72   368.31   374.19
eigval :      390.21   394.52   406.37   438.03   446.37   454.97
eigval :      467.79   471.22   471.40   479.59   493.90   512.44
eigval :      574.73   576.41   582.61   585.72   587.64   589.70
eigval :      606.18   616.05   663.20   671.80   683.89   699.68
eigval :      713.83   725.92   745.51   758.52   768.20   772.16
eigval :      773.34   775.14   819.14   822.16   838.80   842.00
eigval :      860.56   863.62   881.47   882.82   884.11   885.67
eigval :      892.12   901.50   902.82   904.20   904.66   908.42
eigval :      909.93   910.84   914.11   920.37   922.00   944.57
eigval :      978.14   980.23  1003.41  1006.08  1070.57  1077.72
eigval :     1090.94  1093.01  1095.37  1096.83  1100.04  1103.40
eigval :     1110.07  1110.97  1123.33  1138.98  1139.73  1140.77
eigval :     1150.46  1153.15  1178.75  1179.32  1180.51  1181.25
eigval :     1185.56  1186.85  1215.83  1218.13  1229.07  1237.27
eigval :     1238.60  1241.36  1243.70  1251.45  1254.74  1260.03
eigval :     1262.25  1280.97  1282.52  1289.28  1301.64  1304.74
eigval :     1305.81  1316.21  1325.82  1334.77  1338.96  1340.22
eigval :     1368.38  1369.20  1371.40  1375.37  1381.47  1408.24
eigval :     1412.76  1414.06  1431.13  1435.68  1436.76  1448.07
eigval :     1452.98  1468.20  1471.32  1476.30  1479.82  1483.41
eigval :     1484.90  1492.11  1494.12  1501.01  1502.59  1505.08
eigval :     1505.50  1513.02  1532.22  1561.48  1566.59  1568.49
eigval :     1579.50  1581.77  2862.01  2867.25  2889.05  2903.42
eigval :     2958.49  2968.14  2977.01  2977.12  2987.78  3000.62
eigval :     3003.77  3014.03  3024.37  3028.60  3033.81  3035.12
eigval :     3039.48  3041.09  3068.80  3072.15  3076.19  3076.44
eigval :     3076.81  3079.74  3080.31  3080.64  3085.42  3088.48
eigval :     3089.55  3091.65  3093.11  3095.97  3097.54  3098.83

   temp. (K)  partition function   enthalpy   heat capacity  entropy
                                   cal/mol     cal/K/mol   cal/K/mol   J/K/mol
 298.15  VIB  0.373E+16            19588.788    118.305    124.401
         ROT  0.226E+08              888.752      2.981     36.633
         INT  0.844E+23            20477.540    121.286    161.034
         TR   0.100E+29             1481.254      4.968     44.340
         TOT                       21958.7938   126.2544   205.3736   859.2832

       T/K    H(0)-H(T)+PV         H(T)/Eh          T*S/Eh         G(T)/Eh
   ------------------------------------------------------------------------
    298.15    0.349936E-01    0.607264E+00    0.975796E-01    0.509685E+00
   ------------------------------------------------------------------------

         :::::::::::::::::::::::::::::::::::::::::::::::::::::
         ::                  THERMODYNAMIC                  ::
         :::::::::::::::::::::::::::::::::::::::::::::::::::::
         :: total free energy         -97.724355944823 Eh   ::
         ::.................................................::
         :: total energy              -98.234040658564 Eh   ::
         :: zero point energy           0.572270778482 Eh   ::
         :: G(RRHO) w/o ZPVE           -0.062586064741 Eh   ::
         :: G(RRHO) contrib.            0.509684713742 Eh   ::
         :::::::::::::::::::::::::::::::::::::::::::::::::::::

           -------------------------------------------------
          | TOTAL ENERGY              -98.234040658564 Eh   |
          | TOTAL ENTHALPY            -97.626776314702 Eh   |
          | TOTAL FREE ENERGY         -97.724355944823 Eh   |
          | GRADIENT NORM               0.000026252162 Eh/α |
           -------------------------------------------------

 * finished run on 2025/07/20 at 08:35:42.565
