   * xtb version 6.7.1 (edcfbbe) compiled by 'albert@albert-system' on 2024-07-22

   ID    Z sym.   atoms
    1    7 N      1, 7, 9, 22, 24, 37
    2    6 C      2-6, 8, 10-21, 23, 25-36, 38, 39, 41-59
    3   14 Si     40
    4    1 H      60-93

          program call               : xtb data2507/gas/SiCN2Cz/SiCN2Cz_gas_T1_crest.xyz --gfn 2 --spinpol --tblite --uhf 2 --ohess vtight --parallel 40 --molden --ceasefiles --namespace data2507/gas/SiCN2Cz/SiCN2Cz_gas_T1_finalOpt
 * total energy  :  -147.8907381 Eh     change       -0.2896317E-07 Eh
 * total energy  :  -147.8907905 Eh     change       -0.5241759E-04 Eh
 * total energy  :  -147.8908212 Eh     change       -0.3071927E-04 Eh
 * total energy  :  -147.8908233 Eh     change       -0.2024868E-05 Eh
 * total energy  :  -147.8908244 Eh     change       -0.1137794E-05 Eh
 * total energy  :  -147.8908256 Eh     change       -0.1221212E-05 Eh
 * total energy  :  -147.8908272 Eh     change       -0.1570376E-05 Eh
 * total energy  :  -147.8908286 Eh     change       -0.1408913E-05 Eh
 * total energy  :  -147.8908306 Eh     change       -0.1953040E-05 Eh
 * total energy  :  -147.8908327 Eh     change       -0.2138237E-05 Eh
 * total energy  :  -147.8908417 Eh     change       -0.1320135E-06 Eh
 * total energy  :  -147.8908420 Eh     change       -0.2464009E-06 Eh
 * total energy  :  -147.8908422 Eh     change       -0.1936862E-06 Eh
 * total energy  :  -147.8908423 Eh     change       -0.1638181E-06 Eh
 * total energy  :  -147.8908424 Eh     change       -0.6964282E-07 Eh
 * total energy  :  -147.8908426 Eh     change       -0.1651213E-06 Eh
 * total energy  :  -147.8908427 Eh     change       -0.1347787E-06 Eh
 * total energy  :  -147.8908428 Eh     change       -0.1295360E-06 Eh
 * total energy  :  -147.8908429 Eh     change       -0.6015381E-07 Eh
   *** GEOMETRY OPTIMIZATION CONVERGED AFTER 30 ITERATIONS ***

 final structure:
================
93
 xtb: 6.7.1 (edcfbbe)
N            1.90069420102029        5.97300679829250        1.08578919771601
C            1.80926975466948        4.84610460160259        0.89112395259455
C            1.69889968268909        3.45994511311073        0.64065359268923
C            0.44604041582018        2.87641613283785        0.56557474141867
C            0.33006281694632        1.49603355385781        0.32113522795552
C           -0.92507494821035        0.85395040942315        0.23718819923644
N           -2.08388601652859        1.57310369884759        0.25953018172934
C           -3.21186752356311        0.93643154260009        0.12756055020533
N           -4.37990656363043        1.65776579429633        0.10515903619796
C           -5.65486451435393        1.16710972954414        0.35957372237582
C           -6.06100527978429       -0.10303907633937        0.73771251989385
C           -7.41446549326412       -0.32068287899768        0.92681691587017
C           -8.34370599464587        0.70214664700728        0.76668454942511
C           -7.94088559501246        1.97907479163931        0.41786584878320
C           -6.59023795669893        2.21695556650332        0.21679218776516
C           -5.84110214491793        3.39607023014539       -0.13229807859100
C           -6.20463437406113        4.70861572773066       -0.39098580324997
C           -5.21282737027026        5.61928600301370       -0.71002588417384
C           -3.87930145771056        5.22898375140290       -0.78166324066172
C           -3.49617223939580        3.92288912652713       -0.53206574226171
C           -4.48315443595402        3.01237188506117       -0.18975698757490
N           -3.31877648279010       -0.40665314197481        0.01822321327229
C           -2.15145720078911       -1.08156335005012        0.05436680296462
N           -2.20793652685056       -2.45189320554036        0.00921424107544
C           -3.24821743662320       -3.22233073104539       -0.49394751928104
C           -4.41954374924462       -2.83032304789456       -1.12221950285302
C           -5.29239953788437       -3.82078111974073       -1.53655537604445
C           -5.00268615999818       -5.16891614676360       -1.34991477735914
C           -3.82249846662454       -5.56542768929861       -0.74728026388895
C           -2.93602944653005       -4.58927437845077       -0.31842518673763
C           -1.64894354441201       -4.64206161340175        0.32522006625947
C           -0.84652826816553       -5.68574204703417        0.76116740629811
C            0.34824736057524       -5.38350239793578        1.38915355463576
C            0.74075235381835       -4.06337278845130        1.58572394338593
C           -0.03979883738933       -3.00783605059250        1.14965662975351
C           -1.23119439733547       -3.30579993600218        0.50867803516806
N           -0.98957115517330       -0.50323826185791        0.12575827705457
C            1.51645187236995        0.74553048837089        0.14806974175112
C            2.75817496566031        1.33250569103579        0.20751760558160
Si           4.33123323326276        0.31728422046317       -0.11809656582503
C            3.94445122393832       -1.53768010777631       -0.12419844767624
C            4.48245373899638       -2.39789860862936        0.82745791760375
C            4.22823169499178       -3.75737708937870        0.78340365734054
C            3.41771786116105       -4.27978863125639       -0.21026229163369
C            2.86730091896255       -3.43656157571674       -1.16096557579432
C            3.13632306298798       -2.08121505839555       -1.11999491234882
C            5.04317297398592        0.76488555385094       -1.81683769548169
C            5.93274109633809       -0.10595698825318       -2.44217869231928
C            6.49391900505149        0.20546007716721       -3.66677214198616
C            6.17064081084943        1.39776325008478       -4.29334046799000
C            5.28228731555767        2.27136175575423       -3.68949026894882
C            4.72550256550711        1.95514910475227       -2.46311072884019
C            5.57403069823468        0.73290074552031        1.25091366512086
C            6.91768796320511        0.95262762287900        0.96549686895486
C            7.82127901142441        1.23870570373057        1.97324122357063
C            7.39325954573427        1.31176251924629        3.28808051098959
C            6.05812517537403        1.09882423034680        3.58909516724351
C            5.15931884562040        0.81367974308667        2.57778941171989
C            2.86433474861432        2.69945859755584        0.46737904781056
H           -0.44491802165738        3.46735301174410        0.71398946395506
H           -5.34449956750410       -0.89473650011254        0.88153145667335
H           -7.75255475819823       -1.30516926255166        1.21334222392736
H           -9.39130739304503        0.49652835389110        0.92791030490431
H           -8.65935394322191        2.77658461204918        0.30559639244811
H           -7.24003730177509        5.00953903074637       -0.34309835582518
H           -5.47521346153263        6.64642300525156       -0.91419331566761
H           -3.12667824579660        5.95763333877527       -1.04207537821262
H           -2.46539950988843        3.61696186439456       -0.60307644045827
H           -4.64222447688136       -1.78830815824276       -1.28237805706292
H           -6.21516067847793       -3.53872269851366       -2.02088995832961
H           -5.70680391257867       -5.91370862037993       -1.68944341576506
H           -3.59165568727369       -6.61123336917741       -0.61336197494031
H           -1.15558428214545       -6.71003892138075        0.61823587744461
H            0.98283794090638       -6.18184934271549        1.74379932566908
H            1.67023326445464       -3.85433658502499        2.09217172500319
H            0.26390122038832       -1.98632858397771        1.31042724250841
H            1.41197423725784       -0.31048974772266       -0.04914838914372
H            5.11460762660416       -1.99543620077881        1.60662989381659
H            4.66316573639918       -4.41138025572503        1.52620912428229
H            3.21404385103207       -5.33999466450718       -0.24485905063366
H            2.23164020531312       -3.83933238236441       -1.93629518752484
H            2.72117671550754       -1.43112735080061       -1.87745716400922
H            6.18355810360161       -1.04056910232514       -1.95962282184233
H            7.18429297625547       -0.48179356495487       -4.13482608033708
H            6.60755196530512        1.64328855676116       -5.25042962823496
H            5.02326681887950        3.20099037889148       -4.17559679207723
H            4.02950101231156        2.64062950375265       -2.00130765566450
H            7.25605989245206        0.90105834301428       -0.05965291122114
H            8.86132893805266        1.40707791528128        1.73311612074427
H            8.09714280978545        1.53755505028305        4.07591477000564
H            5.71847885087514        1.15794201716181        4.61322761505504
H            4.11700700990903        0.65362021406058        2.81626829169117
H            3.83048237343127        3.17472278168479        0.54364105352852

 projected vibrational frequencies (cm⁻¹)
eigval :       -0.00    -0.00     0.00     0.00     0.00     0.00
eigval :        4.47     9.74    12.19    14.33    20.35    24.42
eigval :       25.81    27.44    28.80    30.37    36.04    39.99
eigval :       41.62    46.00    61.98    72.00    81.13    85.27
eigval :       86.32   100.51   115.44   118.87   128.36   137.40
eigval :      139.83   151.84   155.43   162.16   163.24   169.54
eigval :      178.45   180.47   192.45   207.91   212.38   215.73
eigval :      218.23   220.24   228.90   266.41   272.07   275.06
eigval :      284.87   315.59   318.00   354.69   357.23   358.41
eigval :      359.81   366.48   375.30   390.55   395.92   410.60
eigval :      414.12   419.05   422.78   426.87   430.13   433.68
eigval :      434.44   439.14   468.05   472.69   478.47   485.45
eigval :      508.11   513.29   514.83   518.75   534.89   537.92
eigval :      547.28   557.94   568.36   584.20   585.73   587.42
eigval :      588.34   588.82   589.33   592.32   596.46   620.65
eigval :      623.19   631.94   650.01   660.72   661.39   662.38
eigval :      665.38   674.19   675.08   682.22   702.86   705.00
eigval :      710.15   710.95   733.91   734.68   734.76   736.04
eigval :      753.74   758.33   768.78   771.05   777.95   782.31
eigval :      791.42   817.51   832.34   859.45   866.00   868.11
eigval :      870.57   878.45   879.16   879.49   881.18   882.24
eigval :      892.85   901.80   903.52   904.37   904.66   904.98
eigval :      906.91   907.36   910.05   919.97   920.95   923.12
eigval :      927.39   930.59   931.71   932.70   933.48   934.06
eigval :      934.36   947.70   966.04   973.96   974.77   975.34
eigval :      997.30  1013.23  1016.25  1018.79  1062.74  1065.67
eigval :     1065.84  1070.82  1071.53  1084.37  1085.12  1085.35
eigval :     1099.61  1120.89  1121.86  1122.47  1133.65  1138.09
eigval :     1141.26  1141.50  1142.62  1144.00  1145.01  1151.71
eigval :     1171.40  1172.54  1176.36  1177.20  1181.72  1181.87
eigval :     1182.47  1195.91  1204.70  1205.99  1206.48  1207.69
eigval :     1208.81  1222.60  1226.08  1234.66  1240.38  1248.32
eigval :     1283.14  1286.75  1287.40  1287.60  1288.87  1291.19
eigval :     1292.08  1311.04  1311.56  1312.27  1314.71  1323.91
eigval :     1334.89  1338.58  1343.50  1359.67  1360.86  1364.49
eigval :     1391.62  1404.16  1407.81  1408.68  1412.16  1418.17
eigval :     1418.92  1419.97  1430.92  1446.14  1460.25  1461.99
eigval :     1462.78  1463.10  1465.19  1465.75  1479.46  1480.96
eigval :     1512.37  1545.00  1563.13  1566.08  1574.74  1575.23
eigval :     1575.61  1578.56  1581.61  1583.09  1586.19  1586.38
eigval :     1588.58  1592.21  1599.30  1601.80  2369.32  3061.26
eigval :     3063.02  3063.65  3064.06  3067.09  3068.36  3072.39
eigval :     3072.86  3073.32  3077.18  3079.20  3079.46  3081.96
eigval :     3082.56  3082.72  3084.40  3086.50  3087.58  3087.67
eigval :     3088.08  3088.52  3089.75  3090.03  3092.30  3092.97
eigval :     3095.02  3098.02  3098.27  3099.93  3100.32  3110.85
eigval :     3112.20  3115.08  3115.60

   temp. (K)  partition function   enthalpy   heat capacity  entropy
                                   cal/mol     cal/K/mol   cal/K/mol   J/K/mol
 298.15  VIB  0.135E+26            29240.723    175.500    185.745
         ROT  0.141E+09              888.752      2.981     40.271
         INT  0.190E+34            30129.475    178.480    226.015
         TR   0.207E+29             1481.254      4.968     45.785
         TOT                       31610.7290   183.4486   271.8008  1137.2146

       T/K    H(0)-H(T)+PV         H(T)/Eh          T*S/Eh         G(T)/Eh
   ------------------------------------------------------------------------
    298.15    0.503749E-01    0.743436E+00    0.129141E+00    0.614294E+00
   ------------------------------------------------------------------------

         :::::::::::::::::::::::::::::::::::::::::::::::::::::
         ::                  THERMODYNAMIC                  ::
         :::::::::::::::::::::::::::::::::::::::::::::::::::::
         :: total free energy        -147.276548546913 Eh   ::
         ::.................................................::
         :: total energy             -147.890842955516 Eh   ::
         :: zero point energy           0.693060844125 Eh   ::
         :: G(RRHO) w/o ZPVE           -0.078766435522 Eh   ::
         :: G(RRHO) contrib.            0.614294408604 Eh   ::
         :::::::::::::::::::::::::::::::::::::::::::::::::::::

           -------------------------------------------------
          | TOTAL ENERGY             -147.890842955516 Eh   |
          | TOTAL ENTHALPY           -147.147407208151 Eh   |
          | TOTAL FREE ENERGY        -147.276548546913 Eh   |
          | GRADIENT NORM               0.000095233140 Eh/α |
           -------------------------------------------------

 * finished run on 2025/09/12 at 03:23:28.849
