   * xtb version 6.7.1 (edcfbbe) compiled by 'albert@albert-system' on 2024-07-22

   ID    Z sym.   atoms
    1    7 N      1, 7, 9, 22, 24, 37
    2    6 C      2-6, 8, 10-21, 23, 25-36, 38, 39, 41-59
    3   14 Si     40
    4    1 H      60-93

          program call               : xtb data2507/gas/SiCN2Cz/SiCN2Cz.xyz --gfn 2 --ohess vtight --parallel 40 --molden --ceasefiles --namespace data2507/gas/SiCN2Cz/SiCN2Cz_gas_S0_preOpt
          :  Hamiltonian                  GFN2-xTB          :
 * total energy  :  -147.9457061 Eh     change       -0.6389484E-09 Eh
 * total energy  :  -147.9675106 Eh     change       -0.2180458E-01 Eh
 * total energy  :  -147.9739136 Eh     change       -0.6403006E-02 Eh
 * total energy  :  -147.9754891 Eh     change       -0.1575510E-02 Eh
 * total energy  :  -147.9762714 Eh     change       -0.7822312E-03 Eh
 * total energy  :  -147.9764728 Eh     change       -0.2013739E-03 Eh
 * total energy  :  -147.9765794 Eh     change       -0.1066145E-03 Eh
 * total energy  :  -147.9766476 Eh     change       -0.6819481E-04 Eh
 * total energy  :  -147.9767075 Eh     change       -0.5998715E-04 Eh
 * total energy  :  -147.9767995 Eh     change       -0.9198672E-04 Eh
 * total energy  :  -147.9774059 Eh     change       -0.7218916E-06 Eh
 * total energy  :  -147.9774067 Eh     change       -0.7160190E-06 Eh
 * total energy  :  -147.9774073 Eh     change       -0.6614057E-06 Eh
 * total energy  :  -147.9774079 Eh     change       -0.6083108E-06 Eh
 * total energy  :  -147.9774084 Eh     change       -0.5117939E-06 Eh
 * total energy  :  -147.9774089 Eh     change       -0.4399322E-06 Eh
 * total energy  :  -147.9774093 Eh     change       -0.4284502E-06 Eh
 * total energy  :  -147.9774098 Eh     change       -0.4812541E-06 Eh
 * total energy  :  -147.9774098 Eh     change       -0.9144401E-08 Eh
   *** GEOMETRY OPTIMIZATION CONVERGED AFTER 94 ITERATIONS ***

 final structure:
================
93
 xtb: 6.7.1 (edcfbbe)
N            1.71588485546199        6.09609411165942       -1.06460328680597
C            1.63829275294481        4.97249962059653       -0.85122863941881
C            1.54774601545199        3.58640370210515       -0.58235933666654
C            0.30226156474165        2.96674475560239       -0.55488620953944
C            0.22711984271381        1.60491083136534       -0.28589498458592
C           -1.07629059342344        0.93558860940201       -0.25093482080164
N           -2.15917621934645        1.69993894244104       -0.28047192334638
C           -3.32151623852502        1.04857970924178       -0.28005400332561
N           -4.46576231131356        1.78561577850628       -0.35547285226555
C           -5.72553154408800        1.31305744999624       -0.73224210593386
C           -6.10790143472244        0.06432917404902       -1.19209493940132
C           -7.43882260706522       -0.12411927744067       -1.52413202678812
C           -8.36892021277165        0.90362125273502       -1.41658741510854
C           -7.98532697836420        2.16084975164253       -0.98967845510767
C           -6.65651282711345        2.36900011264560       -0.65112696231538
C           -5.93282438882754        3.53299893481514       -0.20891066179813
C           -6.32265382667695        4.83727201675992        0.05736462703869
C           -5.36653762010461        5.73747736634540        0.48763599768152
C           -4.04529887972206        5.34131378725420        0.66245271049075
C           -3.63774469945229        4.04369291606594        0.40386483710783
C           -4.58780623247812        3.14308110779797       -0.04645749745033
N           -3.43815592719397       -0.27398224101071       -0.20807099659046
C           -2.29536067918162       -0.95112503718215       -0.14672731918067
N           -2.36594757056087       -2.30787344971105       -0.03254918899592
C           -3.49194034972691       -3.04229964337395        0.35181150006251
C           -4.73718026697822       -2.61152647151009        0.77747606529488
C           -5.67232311938752       -3.57195959279349        1.12446903884738
C           -5.37958813201493       -4.92965603354121        1.06443899883834
C           -4.12781722551652       -5.36384907042937        0.67170945230856
C           -3.17800218660156       -4.41653036569594        0.31955952651663
C           -1.80298074682375       -4.52312374724222       -0.09399252091118
C           -0.96851681049188       -5.61112471349416       -0.30219329881380
C            0.33163993248630       -5.37698802327775       -0.70743767666681
C            0.78807487972240       -4.08051076875035       -0.91554453719223
C           -0.03243973159326       -2.98272557084342       -0.71937715202023
C           -1.32991414774121       -3.20969699618391       -0.29295432448191
N           -1.08775928382101       -0.38896501317058       -0.18994895044607
C            1.39370722147089        0.88121736278288       -0.05345756898109
C            2.64323019981203        1.48853395226216       -0.08223751332218
Si           4.20920280113321        0.45970598953248        0.22937153842463
C            4.09935255145266       -1.10899367904358       -0.82639628651603
C            3.45374924401026       -1.09378883408613       -2.06030612750497
C            3.42489754703654       -2.21826762626743       -2.86469490716965
C            4.04523256416014       -3.38443476040392       -2.44628480340603
C            4.68473530795967       -3.41976018139751       -1.21784834887187
C            4.70898668614065       -2.29147745005655       -0.41801479571021
C            5.72371188476555        1.47270978311426       -0.28757353314526
C            6.38383715588568        1.22828492328195       -1.48795196684232
C            7.48150494896809        1.98148727825954       -1.86402882804254
C            7.93910079979608        2.99773255829695       -1.04238528609535
C            7.29582113047835        3.25344937414458        0.15737423482517
C            6.20025957353656        2.49601537117112        0.52877255259681
C            4.34415578288433        0.03552470587391        2.06955221537542
C            5.58578431039568       -0.26586026886106        2.62398159735922
C            5.70959924078949       -0.59625911521471        3.96093062918716
C            4.58751141160999       -0.63080717272571        4.77205551556604
C            3.34564133325809       -0.33152611624422        4.23805851908848
C            3.22798119587823       -0.00211153825964        2.89969768184464
C            2.70949943443795        2.84881036670344       -0.34787686660402
H           -0.59872589518424        3.52729758612315       -0.75052568845544
H           -5.39524797544013       -0.73595976434145       -1.29403430776331
H           -7.75710826715482       -1.09346522052082       -1.87775332175184
H           -9.39920552110211        0.71773475968361       -1.68109065460608
H           -8.69864907549022        2.96823113466298       -0.92470936278564
H           -7.35212624718721        5.13625237629869       -0.06816010151935
H           -5.64646619142793        6.75913371625164        0.69658562200649
H           -3.31768345709176        6.06041772476669        1.00798358617754
H           -2.61477178520355        3.74253398159896        0.55045804086008
H           -4.97412431203742       -1.56378919294899        0.84277062654698
H           -6.65077766422269       -3.25373048961691        1.45198779268922
H           -6.13620638973963       -5.64949908611016        1.33888598985079
H           -3.88694961141989       -6.41558095770563        0.64300777249870
H           -1.33272126028822       -6.61571452641787       -0.14993861276729
H            1.00178406404942       -6.20797576008421       -0.86984404989383
H            1.80546313791828       -3.92015666097028       -1.23810813314989
H            0.32987057203853       -1.98502982245459       -0.89649765059931
H            1.31194375705664       -0.17533980890533        0.15091265702373
H            2.96909642514936       -0.18647695926358       -2.39352945804894
H            2.91819749716144       -2.18813315616089       -3.81860223524962
H            4.02640605132152       -4.26346544604833       -3.07450113203220
H            5.16423056446004       -4.32892009309534       -0.88437519082682
H            5.20721437337667       -2.32508087042316        0.54029757720591
H            6.03238929016234        0.43440132694971       -2.13192527529446
H            7.98177866343841        1.77629651674109       -2.79956643797185
H            8.79535959094501        3.58785492754491       -1.33467541350342
H            7.64977556492467        4.04422527715269        0.80307015342543
H            5.70584241271941        2.69516659897532        1.46975474839865
H            6.46606480696516       -0.23251061613297        1.99710778889299
H            6.68192501582474       -0.82571117643361        4.37283050504420
H            4.68133251226226       -0.88734082624509        5.81724890566409
H            2.46721146065469       -0.35416774234223        4.86698507609037
H            2.25494057554265        0.23469556641150        2.49367650633278
H            3.66797493926881        3.34660584474893       -0.38131764284245

          :  Hamiltonian                  GFN2-xTB          :
         :: gradient norm              0.000087120101 Eh/a0 ::
         :: HOMO-LUMO gap              2.391911843858 eV    ::
         :: SCC energy              -150.746043066971 Eh    ::
         :: -> dispersion             -0.139544948200 Eh    ::
         :: repulsion energy           2.768633274904 Eh    ::

    * Orbital Energies and Occupations

         #    Occupation            Energy/Eh            Energy/eV
      -------------------------------------------------------------
         1        2.0000           -0.7651423             -20.8206
       ...           ...                  ...                  ...
       126        2.0000           -0.4094892             -11.1428
       127        2.0000           -0.4083535             -11.1119
       128        2.0000           -0.4079154             -11.0999
       129        2.0000           -0.4071737             -11.0798
       130        2.0000           -0.3970659             -10.8047
       131        2.0000           -0.3931711             -10.6987
       132        2.0000           -0.3918419             -10.6626
       133        2.0000           -0.3859707             -10.5028
       134        2.0000           -0.3850565             -10.4779
       135        2.0000           -0.3848452             -10.4722
       136        2.0000           -0.3841869             -10.4543
       137        2.0000           -0.3801885             -10.3455
       138        2.0000           -0.3786607             -10.3039 (HOMO)
       139                         -0.2907595              -7.9120 (LUMO)
       140                         -0.2727676              -7.4224
       141                         -0.2698916              -7.3441
       142                         -0.2521582              -6.8616
       143                         -0.2471421              -6.7251
       144                         -0.2467286              -6.7138
       145                         -0.2429367              -6.6106
       146                         -0.2403521              -6.5403
       147                         -0.2335733              -6.3559
       148                         -0.2282204              -6.2102
       149                         -0.2274607              -6.1895
       ...                                ...                  ...
       275                          1.1712461              31.8712
      -------------------------------------------------------------
                  HL-Gap            0.0879012 Eh            2.3919 eV

     #   Z          covCN         q      C6AA      α(0)
     1   7 N        0.911    -0.231    26.066     7.384
     2   6 C        1.913     0.112    28.327     8.595
     3   6 C        2.970     0.020    27.553     8.610
     4   6 C        2.932    -0.017    28.434     8.745
     5   6 C        2.982     0.002    27.964     8.674
     6   6 C        2.994     0.205    23.661     7.979
     7   7 N        1.848    -0.323    29.240     8.014
     8   6 C        2.926     0.260    22.634     7.802
     9   7 N        2.808    -0.038    21.974     6.962
    10   6 C        3.054     0.053    26.755     8.483
    11   6 C        2.911    -0.044    29.102     8.846
    12   6 C        2.925    -0.031    28.779     8.798
    13   6 C        2.920    -0.036    28.891     8.814
    14   6 C        2.913    -0.032    28.797     8.800
    15   6 C        3.063    -0.010    28.198     8.708
    16   6 C        3.063    -0.010    28.205     8.709
    17   6 C        2.913    -0.032    28.792     8.799
    18   6 C        2.920    -0.035    28.879     8.813
    19   6 C        2.924    -0.030    28.761     8.795
    20   6 C        2.911    -0.044    29.091     8.844
    21   6 C        3.054     0.054    26.749     8.482
    22   7 N        1.850    -0.335    29.536     8.055
    23   6 C        2.926     0.260    22.640     7.803
    24   7 N        2.808    -0.038    21.971     6.962
    25   6 C        3.053     0.053    26.757     8.483
    26   6 C        2.911    -0.045    29.106     8.847
    27   6 C        2.925    -0.031    28.778     8.797
    28   6 C        2.920    -0.036    28.889     8.814
    29   6 C        2.913    -0.032    28.802     8.800
    30   6 C        3.063    -0.010    28.202     8.708
    31   6 C        3.064    -0.010    28.208     8.709
    32   6 C        2.913    -0.032    28.804     8.801
    33   6 C        2.920    -0.036    28.887     8.814
    34   6 C        2.924    -0.033    28.824     8.804
    35   6 C        2.911    -0.044    29.105     8.846
    36   6 C        3.052     0.054    26.747     8.482
    37   7 N        1.847    -0.324    29.259     8.017
    38   6 C        2.943    -0.022    28.559     8.765
    39   6 C        2.860    -0.093    30.325     9.026
    40  14 Si       3.615     0.489    98.148    19.016
    41   6 C        2.863    -0.092    30.302     9.023
    42   6 C        2.937    -0.029    28.720     8.789
    43   6 C        2.917    -0.028    28.689     8.783
    44   6 C        2.921    -0.026    28.660     8.779
    45   6 C        2.917    -0.028    28.700     8.785
    46   6 C        2.937    -0.030    28.756     8.795
    47   6 C        2.863    -0.095    30.377     9.034
    48   6 C        2.936    -0.031    28.783     8.799
    49   6 C        2.917    -0.028    28.704     8.786
    50   6 C        2.921    -0.026    28.660     8.779
    51   6 C        2.917    -0.028    28.708     8.786
    52   6 C        2.938    -0.031    28.765     8.796
    53   6 C        2.863    -0.092    30.312     9.025
    54   6 C        2.939    -0.030    28.756     8.795
    55   6 C        2.917    -0.028    28.712     8.787
    56   6 C        2.921    -0.027    28.666     8.780
    57   6 C        2.918    -0.028    28.698     8.785
    58   6 C        2.935    -0.031    28.768     8.796
    59   6 C        2.943    -0.021    28.531     8.761
    60   1 H        0.926     0.063     2.168     2.302
    61   1 H        0.926     0.055     2.257     2.349
    62   1 H        0.926     0.036     2.500     2.473
    63   1 H        0.926     0.034     2.526     2.485
    64   1 H        0.926     0.037     2.494     2.469
    65   1 H        0.926     0.037     2.495     2.470
    66   1 H        0.926     0.035     2.510     2.478
    67   1 H        0.926     0.039     2.468     2.457
    68   1 H        0.926     0.054     2.267     2.354
    69   1 H        0.926     0.057     2.233     2.337
    70   1 H        0.926     0.037     2.493     2.469
    71   1 H        0.926     0.034     2.524     2.484
    72   1 H        0.926     0.036     2.498     2.471
    73   1 H        0.926     0.037     2.495     2.470
    74   1 H        0.926     0.034     2.536     2.490
    75   1 H        0.926     0.037     2.489     2.467
    76   1 H        0.926     0.054     2.269     2.355
    77   1 H        0.926     0.051     2.304     2.374
    78   1 H        0.925     0.018     2.763     2.600
    79   1 H        0.926     0.030     2.585     2.514
    80   1 H        0.926     0.031     2.577     2.510
    81   1 H        0.926     0.030     2.588     2.516
    82   1 H        0.926     0.022     2.700     2.570
    83   1 H        0.926     0.021     2.714     2.576
    84   1 H        0.926     0.030     2.584     2.514
    85   1 H        0.926     0.032     2.560     2.502
    86   1 H        0.926     0.031     2.572     2.508
    87   1 H        0.925     0.021     2.723     2.580
    88   1 H        0.926     0.020     2.728     2.583
    89   1 H        0.926     0.030     2.583     2.514
    90   1 H        0.926     0.031     2.568     2.506
    91   1 H        0.926     0.030     2.588     2.516
    92   1 H        0.926     0.021     2.712     2.575
    93   1 H        0.926     0.037     2.486     2.465

molecular dipole:
                 x           y           z       tot (Debye)
 q only:        0.207      -1.350       0.323
   full:        0.219      -1.723       0.384       4.521

 projected vibrational frequencies (cm⁻¹)
eigval :       -0.00    -0.00    -0.00    -0.00     0.00     0.00
eigval :        6.75     9.87    16.12    20.94    22.62    23.45
eigval :       25.99    29.22    31.48    32.55    34.84    37.40
eigval :       40.97    42.81    56.85    73.56    82.02    87.04
eigval :       91.33   101.64   102.39   127.46   129.09   137.77
eigval :      145.32   156.35   157.44   162.02   168.95   172.81
eigval :      187.59   190.67   195.10   205.87   215.65   219.62
eigval :      223.06   229.07   231.76   269.80   274.74   276.43
eigval :      292.80   322.93   328.96   357.86   358.18   360.00
eigval :      363.52   377.77   391.03   396.47   398.32   410.43
eigval :      414.92   421.12   425.81   429.00   434.31   436.43
eigval :      440.21   444.33   474.30   478.66   481.44   493.66
eigval :      515.70   515.77   533.62   539.50   540.22   541.30
eigval :      561.17   573.27   580.84   588.00   589.02   589.59
eigval :      589.91   597.43   633.64   640.57   646.39   651.07
eigval :      659.12   662.25   662.68   663.25   668.61   676.97
eigval :      679.83   686.05   704.22   708.09   709.86   713.22
eigval :      713.89   735.11   735.72   736.46   753.36   756.12
eigval :      761.20   774.35   776.75   783.19   784.06   787.87
eigval :      840.00   848.55   870.93   876.00   877.01   880.80
eigval :      882.42   883.22   886.07   894.36   897.86   901.28
eigval :      903.97   905.86   906.30   907.08   907.88   908.24
eigval :      908.91   915.14   918.51   923.53   925.73   927.57
eigval :      931.04   932.44   933.38   935.47   935.64   936.10
eigval :      937.75   975.55   977.00   977.21   986.80  1005.59
eigval :     1016.45  1024.32  1050.03  1055.73  1068.57  1070.19
eigval :     1072.86  1077.81  1084.20  1085.35  1086.07  1115.14
eigval :     1121.11  1121.83  1123.54  1144.63  1145.46  1147.21
eigval :     1149.89  1151.05  1151.44  1153.32  1156.34  1176.79
eigval :     1177.25  1179.13  1179.34  1182.58  1182.69  1182.89
eigval :     1204.74  1207.22  1207.65  1210.44  1221.65  1223.81
eigval :     1228.33  1236.56  1242.88  1248.90  1265.56  1273.35
eigval :     1287.38  1287.83  1288.18  1288.37  1290.14  1298.89
eigval :     1302.22  1310.61  1311.20  1312.26  1319.18  1350.50
eigval :     1352.41  1355.80  1359.64  1370.48  1407.69  1411.08
eigval :     1418.86  1419.05  1420.06  1421.24  1421.79  1422.69
eigval :     1423.60  1431.77  1463.97  1464.56  1465.26  1470.09
eigval :     1470.77  1482.26  1483.12  1494.21  1520.18  1533.78
eigval :     1563.84  1568.11  1575.12  1575.98  1576.81  1581.22
eigval :     1581.64  1590.91  1591.62  1592.69  1593.47  1594.43
eigval :     1598.71  1599.23  1610.58  1610.96  2376.58  3060.93
eigval :     3062.60  3063.49  3066.10  3067.74  3067.88  3073.21
eigval :     3073.47  3073.86  3079.34  3079.71  3080.27  3080.42
eigval :     3080.54  3081.69  3081.77  3082.40  3087.77  3088.10
eigval :     3088.56  3088.69  3089.42  3089.82  3093.25  3096.77
eigval :     3097.37  3097.45  3098.53  3103.08  3106.48  3130.16
eigval :     3130.84  3134.18  3134.47

   temp. (K)  partition function   enthalpy   heat capacity  entropy
                                   cal/mol     cal/K/mol   cal/K/mol   J/K/mol
 298.15  VIB  0.254E+25            28794.918    172.672    182.082
         ROT  0.141E+09              888.752      2.981     40.265
         INT  0.357E+33            29683.670    175.653    222.347
         TR   0.207E+29             1481.254      4.968     45.785
         TOT                       31164.9242   180.6211   268.1322  1121.8653

       T/K    H(0)-H(T)+PV         H(T)/Eh          T*S/Eh         G(T)/Eh
   ------------------------------------------------------------------------
    298.15    0.496645E-01    0.748577E+00    0.127398E+00    0.621178E+00
   ------------------------------------------------------------------------

         :::::::::::::::::::::::::::::::::::::::::::::::::::::
         ::                  THERMODYNAMIC                  ::
         :::::::::::::::::::::::::::::::::::::::::::::::::::::
         :: total free energy        -147.356231477085 Eh   ::
         ::.................................................::
         :: total energy             -147.977409792063 Eh   ::
         :: zero point energy           0.698912126944 Eh   ::
         :: G(RRHO) w/o ZPVE           -0.077733811966 Eh   ::
         :: G(RRHO) contrib.            0.621178314978 Eh   ::
         :::::::::::::::::::::::::::::::::::::::::::::::::::::

           -------------------------------------------------
          | TOTAL ENERGY             -147.977409792063 Eh   |
          | TOTAL ENTHALPY           -147.228833197112 Eh   |
          | TOTAL FREE ENERGY        -147.356231477085 Eh   |
          | GRADIENT NORM               0.000087205318 Eh/α |
          | HOMO-LUMO GAP               2.391912532744 eV   |
           -------------------------------------------------

 * finished run on 2025/09/12 at 02:54:24.853
