   * xtb version 6.7.1 (edcfbbe) compiled by 'albert@albert-system' on 2024-07-22

   ID    Z sym.   atoms
    1    7 N      1, 7, 9, 22, 24, 37
    2    6 C      2-6, 8, 10-21, 23, 25-36, 38, 39, 41-59
    3   14 Si     40
    4    1 H      60-93

          program call               : xtb data2507/gas/SiCN2Cz/SiCN2Cz_gas_S0_finalOpt.xtbopt.xyz --gfn 2 --spinpol --tblite --uhf 2 --ohess vtight --parallel 40 --molden --ceasefiles --namespace data2507/gas/SiCN2Cz/SiCN2Cz_gas_T1_preOpt
 * total energy  :  -147.8825058 Eh     change        0.2554833E-07 Eh
 * total energy  :  -147.8877334 Eh     change       -0.5227658E-02 Eh
 * total energy  :  -147.8901776 Eh     change       -0.2444200E-02 Eh
 * total energy  :  -147.8903012 Eh     change       -0.1235461E-03 Eh
 * total energy  :  -147.8905329 Eh     change       -0.2317535E-03 Eh
 * total energy  :  -147.8905863 Eh     change       -0.5338637E-04 Eh
 * total energy  :  -147.8906315 Eh     change       -0.4515920E-04 Eh
 * total energy  :  -147.8906491 Eh     change       -0.1765892E-04 Eh
 * total energy  :  -147.8906760 Eh     change       -0.2691186E-04 Eh
 * total energy  :  -147.8906853 Eh     change       -0.9313809E-05 Eh
 * total energy  :  -147.8908404 Eh     change       -0.5165306E-06 Eh
 * total energy  :  -147.8908408 Eh     change       -0.3975282E-06 Eh
 * total energy  :  -147.8908411 Eh     change       -0.3511028E-06 Eh
 * total energy  :  -147.8908415 Eh     change       -0.3483997E-06 Eh
 * total energy  :  -147.8908418 Eh     change       -0.2961242E-06 Eh
 * total energy  :  -147.8908421 Eh     change       -0.3514953E-06 Eh
 * total energy  :  -147.8908425 Eh     change       -0.3617773E-06 Eh
 * total energy  :  -147.8908427 Eh     change       -0.2512484E-06 Eh
 * total energy  :  -147.8908428 Eh     change       -0.3523166E-07 Eh
   *** GEOMETRY OPTIMIZATION CONVERGED AFTER 68 ITERATIONS ***

 final structure:
================
93
 xtb: 6.7.1 (edcfbbe)
N            1.96717173220890        5.92762968238635        1.21551224658129
C            1.86309757896887        4.80795782938709        0.98812645843444
C            1.73706023719161        3.43095572420715        0.69777731506599
C            0.47864120093106        2.85794914290825        0.63584440295857
C            0.34696257962907        1.48649781370999        0.35231224333627
C           -0.91443992857657        0.85545091949493        0.27864367985802
N           -2.06695392437621        1.58176311518936        0.34636661132777
C           -3.20228424384248        0.95724643019138        0.21928736805729
N           -4.36483672758736        1.68735350500605        0.23996286804589
C           -5.63872990106664        1.19874747368293        0.50353345610378
C           -6.04740119332710       -0.07837565955085        0.85444460754574
C           -7.39895280966998       -0.29197377399726        1.06100516180963
C           -8.32342862679929        0.74104298028359        0.94453516542434
C           -7.91746344452669        2.02425241868060        0.62353510048009
C           -6.56877029777510        2.25842539000698        0.40561278393484
C           -5.81721256836165        3.44147176269529        0.07556078062480
C           -6.17560896465892        4.76304226116350       -0.14097859781897
C           -5.18288207874787        5.67533207779004       -0.45239659022244
C           -3.85366786339333        5.27807262095244       -0.55790294650819
C           -3.47579600802461        3.96306326619049       -0.35068982344423
C           -4.46330058878405        3.05024184158032       -0.01613017089967
N           -3.32162782361643       -0.38148106168447        0.07466324737427
C           -2.15900222479012       -1.06550674640759        0.06775169123085
N           -2.22724281162749       -2.43363850663908       -0.01319063114453
C           -3.28546189104761       -3.18236120618799       -0.51175993789346
C           -4.46635918659831       -2.76477891566579       -1.10464974040166
C           -5.35767253673650       -3.73702735951834       -1.52279767638056
C           -5.07699420219042       -5.09183595138911       -1.37455441136709
C           -3.88759478747396       -5.51339535082800       -0.80813800087082
C           -2.98250931602603       -4.55589195154260       -0.37610232515491
C           -1.68210520971299       -4.63577768570166        0.23721882076256
C           -0.88037181814544       -5.69698368246637        0.62997985865960
C            0.33074587671522       -5.42092103077726        1.23838897875601
C            0.74018301764340       -4.10954320864213        1.45769747976342
C           -0.03953185059507       -3.03666580047637        1.06446987252202
C           -1.24771494199190       -3.30816862045620        0.44349739668733
N           -0.99152470050212       -0.49752744705240        0.13027866976942
C            1.52336943355940        0.73422323698182        0.12712912905537
C            2.77024890169153        1.31142440780961        0.17294124311784
Si           4.32538252960919        0.29730175410825       -0.23236909895236
C            3.93133866635660       -1.55586337346786       -0.25774030329680
C            4.49166557834220       -2.43277884775464        0.66536852309045
C            4.23191338934780       -3.79064694935322        0.60635037347466
C            3.39364753747134       -4.29466189661365       -0.37371852997670
C            2.82039719365324       -3.43461878686332       -1.29546747251721
C            3.09463489751617       -2.08085082311469       -1.23979771058099
C            4.96688096215304        0.77676155252716       -1.95057006473105
C            5.79565088363436       -0.09921300913125       -2.64798344027990
C            6.30542763211440        0.23641634502044       -3.88860377485139
C            5.99085218581382        1.45892440459274       -4.45878896718256
C            5.16265472867953        2.33862306495690       -3.78254744146826
C            4.65701054831365        1.99790566376900       -2.54074604291238
C            5.62857746238821        0.68166654748952        1.08862597132718
C            6.96652454338407        0.85788492612194        0.75054753298578
C            7.91682644887078        1.11998834483209        1.72106904170215
C            7.54227321834396        1.21250088388723        3.05096099567279
C            6.21381307040347        1.04266443865134        3.40423930563578
C            5.26815265837791        0.78085783683381        2.42992717979649
C            2.89248131695330        2.66898220275398        0.47176029931229
H           -0.40418784109250        3.44972813694994        0.82418078098121
H           -5.33421035762918       -0.87842358808313        0.96453826865347
H           -7.73915838161372       -1.28154888770081        1.32672826359960
H           -9.36958616208997        0.53814110937946        1.11810487580123
H           -8.63202498182205        2.82930012632655        0.54526594111276
H           -7.20781150173222        5.06957716857441       -0.06682083728131
H           -5.44127092849439        6.70943397273608       -0.62389123381683
H           -3.10034879577842        6.00842978482189       -0.81141638546674
H           -2.44865544464384        3.65220583680636       -0.44799281110089
H           -4.68235124812499       -1.71726076040779       -1.23529326937920
H           -6.28806809967790       -3.43504332489129       -1.97973347023312
H           -5.79567079748622       -5.82183044825001       -1.71571583738246
H           -3.66390565908260       -6.56416186286355       -0.70430559557350
H           -1.20237852883402       -6.71464449531669        0.46934315943079
H            0.96520803221756       -6.23337708771332        1.55966199801624
H            1.68256387364442       -3.92124444622098        1.94817688355799
H            0.27769926223854       -2.02217884649707        1.24264478608925
H            1.40661419335979       -0.31458688400677       -0.09948571871045
H            5.14588000917879       -2.04467238985533        1.43353458550012
H            4.68434030269082       -4.45778082093283        1.32668014366242
H            3.18601995922130       -5.35365121216861       -0.42020058955774
H            2.16281265711107       -3.82304939790634       -2.05975312691178
H            2.66136112586469       -1.41742852015464       -1.97523609893125
H            6.03946335949442       -1.05713149617946       -2.20956401751363
H            6.94889223039374       -0.45557451462707       -4.41312338938141
H            6.38762201670392        1.72334418242929       -5.42824494983357
H            4.91061996668071        3.29202944601074       -4.22423674624472
H            4.00731522241924        2.68836062551796       -2.02237076695187
H            7.26318764220394        0.79128987327936       -0.28659895800547
H            8.95159989823849        1.25446187472430        1.44017249983899
H            8.28270522691663        1.41980141485494        3.80984542314821
H            5.91591631437934        1.11710098104506        4.44029759063383
H            4.23148380938614        0.65416208859170        2.70944298220238
H            3.86349972368619        3.13575862360090        0.53812296092213

 projected vibrational frequencies (cm⁻¹)
eigval :       -0.00    -0.00    -0.00    -0.00     0.00     0.00
eigval :        6.47    10.23    12.81    16.03    20.82    23.97
eigval :       25.84    27.73    29.01    31.40    36.14    39.98
eigval :       41.38    46.11    62.59    71.42    81.37    85.50
eigval :       86.14   100.99   115.47   119.18   128.75   138.03
eigval :      139.94   151.90   154.97   162.60   163.51   169.56
eigval :      178.57   180.57   193.03   207.92   212.79   216.12
eigval :      217.73   220.31   228.99   266.26   271.98   275.26
eigval :      284.99   315.45   317.90   354.16   357.45   358.43
eigval :      359.80   366.52   375.16   390.63   395.99   410.64
eigval :      414.28   419.22   422.84   426.99   430.11   433.49
eigval :      434.32   439.08   467.82   472.99   478.60   485.47
eigval :      508.12   513.31   514.80   518.68   535.75   538.08
eigval :      547.23   557.95   568.26   584.23   585.68   587.80
eigval :      588.36   588.80   589.36   592.48   596.17   620.60
eigval :      623.32   632.08   650.11   660.79   661.35   662.38
eigval :      665.15   674.16   675.08   682.13   702.78   705.08
eigval :      710.09   710.98   734.34   734.84   734.97   735.63
eigval :      753.55   758.62   768.94   770.97   778.82   782.68
eigval :      791.91   818.09   832.82   859.62   866.20   868.56
eigval :      870.65   878.35   879.52   879.81   881.30   882.26
eigval :      892.94   901.90   903.68   904.52   904.88   905.12
eigval :      906.99   907.52   910.12   920.29   921.78   923.31
eigval :      927.37   930.84   932.15   932.99   933.73   934.35
eigval :      934.55   947.11   966.42   973.95   974.73   975.41
eigval :      997.40  1013.36  1016.24  1018.46  1062.28  1065.85
eigval :     1066.25  1070.76  1071.45  1084.34  1085.17  1085.39
eigval :     1099.27  1120.96  1121.71  1122.51  1133.12  1138.17
eigval :     1141.08  1141.89  1142.81  1143.80  1145.08  1151.45
eigval :     1171.53  1172.50  1176.64  1177.37  1182.02  1182.27
eigval :     1182.88  1196.34  1204.77  1206.12  1206.72  1207.75
eigval :     1209.24  1222.61  1225.98  1234.32  1240.43  1248.23
eigval :     1283.13  1286.92  1287.48  1287.69  1289.01  1291.74
eigval :     1292.17  1311.05  1311.50  1312.24  1314.80  1323.87
eigval :     1334.82  1338.62  1343.49  1359.20  1360.86  1364.62
eigval :     1391.64  1404.12  1407.76  1408.60  1412.21  1418.63
eigval :     1419.25  1420.23  1430.97  1446.36  1460.74  1462.16
eigval :     1462.98  1463.34  1465.30  1466.29  1479.66  1481.10
eigval :     1512.51  1545.15  1563.16  1566.06  1574.73  1575.24
eigval :     1575.61  1578.25  1581.66  1583.11  1586.25  1586.32
eigval :     1588.54  1592.24  1599.25  1601.78  2369.19  3061.48
eigval :     3063.07  3063.74  3064.03  3066.74  3068.38  3072.38
eigval :     3072.92  3073.19  3077.33  3079.20  3079.43  3081.86
eigval :     3082.46  3082.65  3084.22  3086.20  3087.45  3087.64
eigval :     3087.98  3088.46  3089.66  3090.01  3092.14  3092.89
eigval :     3094.64  3097.90  3098.12  3099.95  3100.25  3110.81
eigval :     3112.33  3115.59  3115.82

   temp. (K)  partition function   enthalpy   heat capacity  entropy
                                   cal/mol     cal/K/mol   cal/K/mol   J/K/mol
 298.15  VIB  0.707E+25            29225.797    175.508    185.096
         ROT  0.141E+09              888.752      2.981     40.271
         INT  0.998E+33            30114.550    178.489    225.367
         TR   0.207E+29             1481.254      4.968     45.785
         TOT                       31595.8036   183.4569   271.1525  1134.5019

       T/K    H(0)-H(T)+PV         H(T)/Eh          T*S/Eh         G(T)/Eh
   ------------------------------------------------------------------------
    298.15    0.503511E-01    0.743467E+00    0.128833E+00    0.614634E+00
   ------------------------------------------------------------------------

         :::::::::::::::::::::::::::::::::::::::::::::::::::::
         ::                  THERMODYNAMIC                  ::
         :::::::::::::::::::::::::::::::::::::::::::::::::::::
         :: total free energy        -147.276208591823 Eh   ::
         ::.................................................::
         :: total energy             -147.890842759830 Eh   ::
         :: zero point energy           0.693116334201 Eh   ::
         :: G(RRHO) w/o ZPVE           -0.078482166194 Eh   ::
         :: G(RRHO) contrib.            0.614634168007 Eh   ::
         :::::::::::::::::::::::::::::::::::::::::::::::::::::

           -------------------------------------------------
          | TOTAL ENERGY             -147.890842759830 Eh   |
          | TOTAL ENTHALPY           -147.147375307536 Eh   |
          | TOTAL FREE ENERGY        -147.276208591823 Eh   |
          | GRADIENT NORM               0.000090275086 Eh/α |
           -------------------------------------------------

 * finished run on 2025/09/12 at 03:06:51.786
