   * xtb version 6.7.1 (edcfbbe) compiled by 'albert@albert-system' on 2024-07-22

   ID    Z sym.   atoms
    1    7 N      1, 7, 9, 22, 24, 37
    2    6 C      2-6, 8, 10-21, 23, 25-36, 38, 39, 41-59
    3   14 Si     40
    4    1 H      60-93

          program call               : xtb data2507/gas/SiCN2Cz/SiCN2Cz_gas_S0_crest.xyz --gfn 2 --ohess vtight --parallel 40 --molden --ceasefiles --namespace data2507/gas/SiCN2Cz/SiCN2Cz_gas_S0_finalOpt
          :  Hamiltonian                  GFN2-xTB          :
 * total energy  :  -147.9780478 Eh     change       -0.4392575E-09 Eh
 * total energy  :  -147.9780476 Eh     change        0.1366412E-06 Eh
 * total energy  :  -147.9780487 Eh     change       -0.1034281E-05 Eh
 * total energy  :  -147.9780506 Eh     change       -0.1972346E-05 Eh
 * total energy  :  -147.9780518 Eh     change       -0.1189808E-05 Eh
 * total energy  :  -147.9780537 Eh     change       -0.1834618E-05 Eh
 * total energy  :  -147.9780556 Eh     change       -0.1914703E-05 Eh
 * total energy  :  -147.9780577 Eh     change       -0.2118327E-05 Eh
 * total energy  :  -147.9780601 Eh     change       -0.2369815E-05 Eh
 * total energy  :  -147.9780623 Eh     change       -0.2261716E-05 Eh
 * total energy  :  -147.9780806 Eh     change       -0.2681326E-06 Eh
 * total energy  :  -147.9780808 Eh     change       -0.2497679E-06 Eh
 * total energy  :  -147.9780810 Eh     change       -0.1648289E-06 Eh
 * total energy  :  -147.9780812 Eh     change       -0.1733549E-06 Eh
 * total energy  :  -147.9780814 Eh     change       -0.1909650E-06 Eh
 * total energy  :  -147.9780816 Eh     change       -0.2145041E-06 Eh
 * total energy  :  -147.9780818 Eh     change       -0.2198720E-06 Eh
 * total energy  :  -147.9780820 Eh     change       -0.1684028E-06 Eh
 * total energy  :  -147.9780820 Eh     change       -0.9941061E-09 Eh
   *** GEOMETRY OPTIMIZATION CONVERGED AFTER 44 ITERATIONS ***

 final structure:
================
93
 xtb: 6.7.1 (edcfbbe)
N            1.97457570063992        5.80776024015085        1.68389478235194
C            1.86187218020818        4.71243014595988        1.36500079190727
C            1.73222848152102        3.36200270107578        0.96373977372420
C            0.46785459218056        2.78720539360377        0.86161881181913
C            0.36206013284420        1.45836969758834        0.47268029567822
C           -0.94732951403499        0.81215699871149        0.35641191754656
N           -2.02464450752354        1.58048491952219        0.29441082501711
C           -3.18455736376127        0.93296486506728        0.17581965198481
N           -4.32579549940763        1.67550842622150        0.12987901171016
C           -5.62548595938859        1.20197504973140        0.33198795332181
C           -6.06908490105111       -0.05581460536820        0.70378481475784
C           -7.43237750169543       -0.24298460609768        0.85811175464812
C           -8.33711879388428        0.79396116986827        0.66126634959935
C           -7.89682338394601        2.05901801454731        0.32092535733900
C           -6.53481728914650        2.26587455341043        0.16081830573357
C           -5.75694691893339        3.43621536397738       -0.15451876750839
C           -6.10703232301116        4.74950767996868       -0.43107689394546
C           -5.10195168109154        5.65605714786738       -0.70970641383287
C           -3.77014698266511        5.25739876048155       -0.72321102098695
C           -3.40134845483310        3.95079739517024       -0.45123845822111
C           -4.40336176718629        3.04231333519975       -0.15532677086046
N           -3.29975226653904       -0.39043816568146        0.09551846033576
C           -2.16024617115464       -1.07099673525763        0.16920043559566
N           -2.21488520355207       -2.43182174371376        0.09525909049224
C           -3.26912517081764       -3.19058938292234       -0.41627429518205
C           -4.43986577642898       -2.78442332697312       -1.03368369277814
C           -5.31222487325039       -3.76473078431553       -1.47514262544011
C           -5.02668516020805       -5.11677440200441       -1.32053900270374
C           -3.84530918566197       -5.52666372468136       -0.73197462806458
C           -2.95872529049055       -4.55965366163951       -0.28155481736605
C           -1.66319465360207       -4.63573281954648        0.34315836145780
C           -0.87318741768777       -5.70358996143933        0.74305357717908
C            0.33408348671916       -5.43687490799862        1.36002703287664
C            0.74658402156223       -4.12746761462424        1.57959783081657
C           -0.02187806718546       -3.04897883319552        1.17761415232946
C           -1.22882106842080       -3.31049855230581        0.55141882991461
N           -0.96050086965872       -0.51253742699077        0.31117201268514
C            1.50975117547626        0.72600665960911        0.17915795702501
C            2.77379674758778        1.29154013010436        0.26370326707677
Si           4.32355336469503        0.29671664037636       -0.20446888314161
C            3.91061777711710       -1.55045333231902       -0.26118815412082
C            4.44683823479411       -2.44662488082577        0.65804914203370
C            4.15365744128347       -3.79707363994722        0.59077335268118
C            3.30600793665331       -4.27506171903253       -0.39426329986400
C            2.76008868458009       -3.39679786713848       -1.31499244654046
C            3.06777430699772       -2.05055525723463       -1.25156552757529
C            4.90947715047542        0.83783517096660       -1.92287866149897
C            5.71764619699354       -0.00928961095338       -2.67739159738673
C            6.18412307028343        0.37064079128618       -3.92230440002077
C            5.84732484413257        1.61093921997227       -4.43872725182227
C            5.04051312166068        2.46372252182134       -3.70467836413350
C            4.57800018396374        2.07820726925087       -2.45923628436069
C            5.65606946078667        0.65212930154118        1.09251544666646
C            6.98789437805020        0.82924179982637        0.73054715587429
C            7.95938031406113        1.07290470720949        1.68463231575270
C            7.61345488429226        1.14330090377986        3.02363077116999
C            6.29234775309844        0.97018658556532        3.40194412245040
C            5.32567259870203        0.72737154624882        2.44358960724631
C            2.87492611593117        2.61667767443677        0.66808200815725
H           -0.41965380725146        3.35588808552907        1.09357060266804
H           -5.37890245143254       -0.86407436354553        0.87321762179342
H           -7.79688558498868       -1.21918146031426        1.14127649381832
H           -9.39350526184016        0.60891284694847        0.78699741063106
H           -8.59257622856310        2.87317057097855        0.18680199652914
H           -7.14349619300324        5.05063284680076       -0.42918945979399
H           -5.35073950366140        6.68467571452094       -0.92390018366966
H           -3.00251052141093        5.98198672748978       -0.95051371746041
H           -2.36829488416911        3.64918267962787       -0.46994664275039
H           -4.66570654455716       -1.74071258310160       -1.17037699608971
H           -6.23413496371229       -3.46818114808278       -1.95268370882594
H           -5.73343357210924       -5.85257486093304       -1.67423505121846
H           -3.61064994864701       -6.57494615449986       -0.62682359196061
H           -1.20393336458665       -6.71830969209923        0.58134828383632
H            0.96266722011819       -6.25286365943528        1.68442159447075
H            1.68765961420510       -3.94247968590075        2.07456219397978
H            0.30818733285796       -2.03915837688173        1.35067096454730
H            1.39544324834931       -0.30323859718106       -0.12303264008933
H            5.10772244576900       -2.07893396860593        1.43058232833315
H            4.58692596066687       -4.47913881096759        1.30875548055199
H            3.07117676574996       -5.32791187372234       -0.44607316855001
H            2.09692813449826       -3.76483810243849       -2.08441634106926
H            2.65690518109688       -1.37393774757200       -1.98822908475648
H            5.97816191433351       -0.98077176977319       -2.28071873924242
H            6.81093726473769       -0.30028920181731       -4.49214259188115
H            6.21058904573568        1.91064058676828       -5.41094386808112
H            4.77179730950576        3.43117116180144       -4.10398559482421
H            3.94578802584347        2.74960393771339       -1.89539435640132
H            7.26215812191546        0.77908404440479       -0.31366506907686
H            8.98835395430567        1.20954201413148        1.38449129767781
H            8.37035788410884        1.33441303615784        3.77028753397222
H            6.01686314358210        1.02601220733020        4.44534239450011
H            4.29525911555336        0.59527233388008        2.74411469517853
H            3.84699913452690        3.08010122717690        0.76285525576207

          :  Hamiltonian                  GFN2-xTB          :
         :: gradient norm              0.000038797253 Eh/a0 ::
         :: HOMO-LUMO gap              2.419860238153 eV    ::
         :: SCC energy              -150.747473882273 Eh    ::
         :: -> dispersion             -0.140897058157 Eh    ::
         :: repulsion energy           2.769391899998 Eh    ::

    * Orbital Energies and Occupations

         #    Occupation            Energy/Eh            Energy/eV
      -------------------------------------------------------------
         1        2.0000           -0.7645661             -20.8049
       ...           ...                  ...                  ...
       126        2.0000           -0.4079997             -11.1022
       127        2.0000           -0.4079190             -11.1000
       128        2.0000           -0.4075136             -11.0890
       129        2.0000           -0.4066227             -11.0648
       130        2.0000           -0.3965642             -10.7911
       131        2.0000           -0.3927636             -10.6876
       132        2.0000           -0.3914321             -10.6514
       133        2.0000           -0.3861551             -10.5078
       134        2.0000           -0.3852799             -10.4840
       135        2.0000           -0.3851874             -10.4815
       136        2.0000           -0.3840235             -10.4498
       137        2.0000           -0.3800022             -10.3404
       138        2.0000           -0.3790392             -10.3142 (HOMO)
       139                         -0.2901109              -7.8943 (LUMO)
       140                         -0.2722348              -7.4079
       141                         -0.2700721              -7.3490
       142                         -0.2529812              -6.8840
       143                         -0.2471130              -6.7243
       144                         -0.2463888              -6.7046
       145                         -0.2415713              -6.5735
       146                         -0.2405181              -6.5448
       147                         -0.2338015              -6.3621
       148                         -0.2286098              -6.2208
       149                         -0.2273044              -6.1853
       ...                                ...                  ...
       275                          1.1706376              31.8547
      -------------------------------------------------------------
                  HL-Gap            0.0889283 Eh            2.4199 eV

     #   Z          covCN         q      C6AA      α(0)
     1   7 N        0.911    -0.232    26.074     7.385
     2   6 C        1.913     0.112    28.329     8.596
     3   6 C        2.971     0.020    27.564     8.612
     4   6 C        2.930    -0.017    28.426     8.744
     5   6 C        2.983     0.003    27.948     8.672
     6   6 C        2.996     0.205    23.653     7.978
     7   7 N        1.847    -0.323    29.220     8.011
     8   6 C        2.927     0.260    22.641     7.803
     9   7 N        2.808    -0.037    21.957     6.959
    10   6 C        3.053     0.053    26.759     8.484
    11   6 C        2.911    -0.045    29.106     8.846
    12   6 C        2.925    -0.031    28.778     8.797
    13   6 C        2.920    -0.036    28.887     8.814
    14   6 C        2.913    -0.032    28.798     8.800
    15   6 C        3.063    -0.010    28.195     8.707
    16   6 C        3.063    -0.010    28.200     8.708
    17   6 C        2.913    -0.032    28.794     8.799
    18   6 C        2.920    -0.035    28.878     8.812
    19   6 C        2.925    -0.031    28.762     8.795
    20   6 C        2.911    -0.044    29.097     8.845
    21   6 C        3.053     0.053    26.754     8.483
    22   7 N        1.849    -0.335    29.534     8.054
    23   6 C        2.928     0.260    22.632     7.802
    24   7 N        2.809    -0.038    21.982     6.963
    25   6 C        3.054     0.053    26.753     8.483
    26   6 C        2.911    -0.044    29.103     8.846
    27   6 C        2.925    -0.031    28.776     8.797
    28   6 C        2.920    -0.036    28.895     8.815
    29   6 C        2.913    -0.032    28.801     8.800
    30   6 C        3.063    -0.010    28.208     8.709
    31   6 C        3.063    -0.010    28.213     8.710
    32   6 C        2.913    -0.032    28.807     8.801
    33   6 C        2.920    -0.036    28.884     8.813
    34   6 C        2.925    -0.030    28.756     8.794
    35   6 C        2.911    -0.044    29.097     8.845
    36   6 C        3.054     0.054    26.739     8.480
    37   7 N        1.850    -0.324    29.261     8.017
    38   6 C        2.942    -0.025    28.620     8.774
    39   6 C        2.859    -0.092    30.310     9.024
    40  14 Si       3.615     0.489    98.168    19.018
    41   6 C        2.863    -0.093    30.333     9.028
    42   6 C        2.935    -0.032    28.787     8.799
    43   6 C        2.918    -0.028    28.698     8.785
    44   6 C        2.921    -0.025    28.624     8.774
    45   6 C        2.917    -0.027    28.676     8.781
    46   6 C        2.939    -0.029    28.721     8.789
    47   6 C        2.863    -0.093    30.322     9.026
    48   6 C        2.939    -0.030    28.753     8.794
    49   6 C        2.917    -0.028    28.710     8.786
    50   6 C        2.921    -0.027    28.667     8.780
    51   6 C        2.917    -0.028    28.702     8.785
    52   6 C        2.935    -0.030    28.761     8.795
    53   6 C        2.863    -0.094    30.346     9.030
    54   6 C        2.936    -0.031    28.778     8.798
    55   6 C        2.917    -0.028    28.701     8.785
    56   6 C        2.921    -0.026    28.662     8.779
    57   6 C        2.917    -0.028    28.707     8.786
    58   6 C        2.938    -0.030    28.750     8.794
    59   6 C        2.944    -0.019    28.490     8.754
    60   1 H        0.926     0.060     2.195     2.317
    61   1 H        0.926     0.056     2.241     2.341
    62   1 H        0.926     0.036     2.498     2.472
    63   1 H        0.926     0.034     2.525     2.485
    64   1 H        0.926     0.037     2.493     2.469
    65   1 H        0.926     0.037     2.494     2.469
    66   1 H        0.926     0.035     2.510     2.478
    67   1 H        0.926     0.038     2.471     2.458
    68   1 H        0.926     0.056     2.244     2.343
    69   1 H        0.926     0.055     2.255     2.348
    70   1 H        0.926     0.037     2.494     2.470
    71   1 H        0.926     0.034     2.525     2.485
    72   1 H        0.926     0.036     2.499     2.472
    73   1 H        0.926     0.037     2.495     2.470
    74   1 H        0.926     0.034     2.537     2.491
    75   1 H        0.926     0.035     2.512     2.478
    76   1 H        0.926     0.054     2.275     2.359
    77   1 H        0.926     0.054     2.267     2.354
    78   1 H        0.926     0.022     2.704     2.572
    79   1 H        0.926     0.029     2.602     2.522
    80   1 H        0.926     0.031     2.573     2.508
    81   1 H        0.926     0.029     2.607     2.525
    82   1 H        0.925     0.021     2.725     2.581
    83   1 H        0.926     0.020     2.731     2.584
    84   1 H        0.926     0.030     2.585     2.514
    85   1 H        0.926     0.031     2.565     2.505
    86   1 H        0.926     0.031     2.575     2.509
    87   1 H        0.926     0.019     2.747     2.592
    88   1 H        0.926     0.022     2.706     2.572
    89   1 H        0.926     0.030     2.580     2.512
    90   1 H        0.926     0.032     2.561     2.503
    91   1 H        0.926     0.031     2.578     2.511
    92   1 H        0.925     0.019     2.754     2.595
    93   1 H        0.926     0.036     2.508     2.477

molecular dipole:
                 x           y           z       tot (Debye)
 q only:        0.149      -1.331      -0.465
   full:        0.124      -1.696      -0.579       4.565

 projected vibrational frequencies (cm⁻¹)
eigval :       -0.00    -0.00    -0.00    -0.00     0.00     0.00
eigval :        6.72     9.72    13.33    18.41    20.76    24.53
eigval :       26.09    28.46    29.89    31.16    36.15    40.68
eigval :       41.78    47.63    61.46    71.62    79.74    86.97
eigval :       92.98   102.11   114.99   128.82   132.11   140.33
eigval :      145.46   155.07   157.15   164.64   167.57   175.22
eigval :      185.43   189.40   194.38   204.19   216.32   219.05
eigval :      223.49   227.73   232.12   268.93   275.40   278.36
eigval :      294.93   322.66   330.33   357.92   358.78   359.94
eigval :      363.51   376.04   391.24   397.55   398.29   411.70
eigval :      414.74   421.12   425.85   428.90   432.60   434.61
eigval :      439.91   443.87   471.03   480.13   482.07   500.58
eigval :      515.60   515.74   533.93   539.77   540.49   542.28
eigval :      559.01   575.46   580.75   587.95   589.03   589.52
eigval :      589.90   597.30   633.41   640.79   646.38   651.97
eigval :      659.29   662.62   662.88   663.50   668.24   676.92
eigval :      679.68   685.52   705.21   707.06   710.02   713.32
eigval :      714.00   735.13   735.65   736.46   753.29   756.04
eigval :      761.55   774.65   777.16   783.52   784.01   787.91
eigval :      840.27   848.58   871.18   875.78   876.98   881.27
eigval :      882.70   883.61   886.03   894.39   897.54   901.10
eigval :      904.05   905.49   905.94   906.94   907.69   908.20
eigval :      908.61   914.98   919.12   923.59   925.85   927.51
eigval :      931.37   932.49   934.80   935.09   935.67   936.09
eigval :      937.18   975.47   976.93   977.31   985.85  1005.98
eigval :     1016.55  1025.36  1049.82  1055.86  1068.91  1071.25
eigval :     1073.54  1077.68  1084.71  1085.79  1085.93  1116.73
eigval :     1121.28  1122.07  1122.97  1145.07  1145.45  1147.84
eigval :     1150.30  1150.67  1151.69  1154.34  1158.04  1176.85
eigval :     1177.01  1178.89  1179.15  1182.57  1182.68  1183.77
eigval :     1205.26  1207.03  1207.53  1210.01  1222.04  1224.76
eigval :     1228.93  1238.13  1243.35  1249.42  1265.86  1273.91
eigval :     1287.22  1287.52  1288.06  1289.62  1289.73  1298.81
eigval :     1302.04  1311.47  1311.74  1312.53  1318.39  1350.53
eigval :     1352.50  1355.80  1359.64  1370.82  1408.00  1411.18
eigval :     1419.18  1419.48  1420.11  1421.45  1421.81  1423.48
eigval :     1424.17  1434.79  1463.90  1465.10  1465.42  1470.06
eigval :     1470.92  1482.25  1483.19  1494.87  1521.58  1535.16
eigval :     1564.89  1567.91  1576.24  1576.39  1577.03  1581.14
eigval :     1581.59  1590.96  1591.59  1593.35  1593.54  1594.61
eigval :     1598.70  1599.22  1610.46  1610.75  2376.08  3060.18
eigval :     3061.08  3063.47  3063.75  3065.63  3067.49  3073.01
eigval :     3073.23  3073.45  3076.17  3078.06  3079.02  3079.52
eigval :     3079.93  3080.41  3080.76  3081.51  3088.03  3088.45
eigval :     3088.61  3089.05  3089.72  3090.47  3091.14  3096.73
eigval :     3097.01  3098.38  3098.81  3102.64  3104.45  3129.45
eigval :     3130.40  3131.42  3133.39

   temp. (K)  partition function   enthalpy   heat capacity  entropy
                                   cal/mol     cal/K/mol   cal/K/mol   J/K/mol
 298.15  VIB  0.277E+25            28765.993    172.824    182.111
         ROT  0.140E+09              888.752      2.981     40.256
         INT  0.388E+33            29654.745    175.805    222.367
         TR   0.207E+29             1481.254      4.968     45.785
         TOT                       31135.9991   180.7732   268.1525  1121.9502

       T/K    H(0)-H(T)+PV         H(T)/Eh          T*S/Eh         G(T)/Eh
   ------------------------------------------------------------------------
    298.15    0.496184E-01    0.748606E+00    0.127408E+00    0.621198E+00
   ------------------------------------------------------------------------

         :::::::::::::::::::::::::::::::::::::::::::::::::::::
         ::                  THERMODYNAMIC                  ::
         :::::::::::::::::::::::::::::::::::::::::::::::::::::
         :: total free energy        -147.356884116952 Eh   ::
         ::.................................................::
         :: total energy             -147.978081982273 Eh   ::
         :: zero point energy           0.698987417683 Eh   ::
         :: G(RRHO) w/o ZPVE           -0.077789552362 Eh   ::
         :: G(RRHO) contrib.            0.621197865321 Eh   ::
         :::::::::::::::::::::::::::::::::::::::::::::::::::::

           -------------------------------------------------
          | TOTAL ENERGY             -147.978081982273 Eh   |
          | TOTAL ENTHALPY           -147.229476191664 Eh   |
          | TOTAL FREE ENERGY        -147.356884116952 Eh   |
          | GRADIENT NORM               0.000038702501 Eh/α |
          | HOMO-LUMO GAP               2.419860916879 eV   |
           -------------------------------------------------

 * finished run on 2025/09/12 at 03:06:29.070
