   * xtb version 6.7.1 (edcfbbe) compiled by 'albert@albert-system' on 2024-07-22

   ID    Z sym.   atoms
    1    6 C      1-4, 6-19, 21-29, 31-53, 55-72, 74-79
    2    7 N      5, 20, 30, 54, 73
    3    1 H      80-130

          program call               : xtb data2507/gas/DBP-3TPA/DBP-3TPA.xyz --gfn 2 --ohess vtight --parallel 40 --molden --ceasefiles --namespace data2507/gas/DBP-3TPA/DBP-3TPA_gas_S0_preOpt
          :  Hamiltonian                  GFN2-xTB          :
 * total energy  :  -199.0907483 Eh     change       -0.1696179E-08 Eh
 * total energy  :  -199.1162510 Eh     change       -0.2550267E-01 Eh
 * total energy  :  -199.1265304 Eh     change       -0.1027938E-01 Eh
 * total energy  :  -199.1306204 Eh     change       -0.4090074E-02 Eh
 * total energy  :  -199.1334688 Eh     change       -0.2848348E-02 Eh
 * total energy  :  -199.1351494 Eh     change       -0.1680669E-02 Eh
 * total energy  :  -199.1360776 Eh     change       -0.9281592E-03 Eh
 * total energy  :  -199.1365643 Eh     change       -0.4866569E-03 Eh
 * total energy  :  -199.1368398 Eh     change       -0.2755736E-03 Eh
 * total energy  :  -199.1370387 Eh     change       -0.1988846E-03 Eh
 * total energy  :  -199.1383886 Eh     change       -0.3211990E-06 Eh
 * total energy  :  -199.1383890 Eh     change       -0.3654534E-06 Eh
 * total energy  :  -199.1383893 Eh     change       -0.3317295E-06 Eh
 * total energy  :  -199.1383897 Eh     change       -0.3521195E-06 Eh
 * total energy  :  -199.1383901 Eh     change       -0.3832441E-06 Eh
 * total energy  :  -199.1383905 Eh     change       -0.4125059E-06 Eh
 * total energy  :  -199.1383909 Eh     change       -0.4337568E-06 Eh
 * total energy  :  -199.1383914 Eh     change       -0.4579053E-06 Eh
 * total energy  :  -199.1383914 Eh     change       -0.3915687E-08 Eh
   *** GEOMETRY OPTIMIZATION CONVERGED AFTER 94 ITERATIONS ***

 final structure:
================
130
 xtb: 6.7.1 (edcfbbe)
C           13.04945522455347       -3.47580177527739       -0.30182747663248
C           13.77508424716129       -2.49656548416506       -0.96025724506253
C           13.39508321198494       -1.17098326376276       -0.88056647163182
C           12.27990879339267       -0.80417083477987       -0.12788489718635
N           11.89477697568993        0.53922400999238       -0.03882576337374
C           12.87136091430820        1.54001484039820        0.03182975087351
C           12.68466361885203        2.75817606078447       -0.62112072533048
C           13.65060171323901        3.74263111157414       -0.54661020293540
C           14.81746229277820        3.52874707977314        0.16870226471038
C           15.00982688673724        2.31873163901367        0.81512742670245
C           14.04610733544884        1.33115284036280        0.75377120157917
C           10.54127134881925        0.87923731884597       -0.02221556645237
C            9.61576780204204        0.15577118534310       -0.77660308481719
C            8.27964383394658        0.49076613773831       -0.75270478396416
C            7.81887183523842        1.56482726380753        0.00896908521279
C            6.39576788860601        1.91868043641574        0.02292884810542
C            6.00811189724125        3.28230600982841        0.04154513851242
C            4.69636950316631        3.65096941751304        0.04803409363856
C            3.68473920382241        2.66628691617355        0.04090157145564
N            2.39530136338783        3.02664905471690        0.04764834456375
C            1.48561127082584        2.06899741052913        0.04002474054866
C            0.08739349296737        2.42985350761167        0.04778167257173
C           -0.27414469939250        3.78038682994960        0.06684168474141
C           -1.59313231988414        4.15859778046555        0.07670582291015
C           -2.60058879623223        3.18743525155563        0.06368082674186
C           -4.01509686965398        3.57924925801082        0.07057576901416
C           -4.45780080017989        4.64272696013876        0.85606114793235
C           -5.78436878484661        5.01679310463072        0.86575567946308
C           -6.71743945570744        4.33654042959716        0.08207937704854
N           -8.06228609309734        4.71486233404105        0.08692680339385
C           -8.65927229273352        5.16063957131241        1.27215287863400
C           -9.59279195626611        6.19639731719596        1.24854835852503
C          -10.18225275094835        6.62848804649478        2.42058909846065
C           -9.84754775917141        6.04517333025008        3.63168184284257
C           -8.91782718696687        5.01867391343780        3.66106526517152
C           -8.32919766702820        4.57362741380525        2.49356196676987
C           -8.81182749848356        4.65645204236354       -1.09374815055786
C           -8.22935432974207        4.98158362922448       -2.31867724301491
C           -8.97334788553331        4.92121257341830       -3.48079076991439
C          -10.30637600966156        4.54626117491880       -3.44267765943333
C          -10.89074113245080        4.22604671784779       -2.22817647865841
C          -10.15290791284894        4.27481289961840       -1.06154566879423
C           -6.28040849254198        3.27174680908671       -0.70685001432317
C           -4.95230745893238        2.90241028760217       -0.70881142196778
C           -2.24212601896450        1.84781533030462        0.04400567979694
C           -0.90872698652049        1.43344299342033        0.03651683191154
C           -0.52632558918947        0.02702989915040        0.01740348870009
C           -1.46662963549672       -1.00512130199404        0.00087007412311
C           -1.09765078201807       -2.34201379197903       -0.01368762400226
C           -2.11963433195360       -3.39458312986824       -0.03089848292919
C           -3.27038313883289       -3.26620320408906       -0.80782935335079
C           -4.22775763189185       -4.25729339585670       -0.83205585515151
C           -4.07354405833504       -5.41004564302457       -0.06032703063626
N           -5.04583265886261       -6.41178543562189       -0.07373248575297
C           -6.40009233675868       -6.07596438575724       -0.18903431814923
C           -6.90452250741330       -4.93891182018540        0.44170606820411
C           -8.24075022780769       -4.61086142628181        0.32046173928964
C           -9.09595836954202       -5.41100673234372       -0.41934333720785
C           -8.60126156774603       -6.54473234905733       -1.04294887941070
C           -7.26469591444345       -6.87617311043617       -0.93550732054615
C           -4.66982600108962       -7.75663118588212        0.03106877970005
C           -3.51514702330236       -8.22007492801729       -0.59892693016985
C           -3.14772577243359       -9.54701017999015       -0.48922556157781
C           -3.92487988806440      -10.43295475707302        0.23887254036097
C           -5.07551207190843       -9.97870050747880        0.86231654734021
C           -5.44682960751997       -8.65182403675419        0.76572029879391
C           -2.92690792097004       -5.54083778564638        0.72484850876190
C           -1.96564988888481       -4.55326391286796        0.72933417603186
C            0.26268221802942       -2.67003153145513       -0.01127838344242
C            1.20876946516007       -1.67609394202075       -0.00024633578568
C            0.83700216426807       -0.32838687671195        0.01418144299267
C            1.86108026323334        0.69073111691208        0.02408755842655
N            3.12908313634129        0.32503706249425        0.01527696462596
C            4.06159890819369        1.29011620126927        0.02271096509219
C            5.42545027967676        0.94438960363245        0.01305459327128
C            8.74904090030958        2.28807061699190        0.75529531809729
C           10.08499015456062        1.94960706527760        0.74874756407439
C           11.55544849517101       -1.79323131587179        0.53687447421955
C           11.93855315008927       -3.11701040889075        0.44392035513485
H           13.34772838742077       -4.51098652958814       -0.36918437562630
H           14.63968125331400       -2.76744857707645       -1.54828448667356
H           13.95691606010987       -0.41024781537476       -1.40264653150832
H           11.78062220971940        2.92306458243905       -1.18897732184657
H           13.49454752817663        4.68065153233023       -1.05896579497093
H           15.57155879547437        4.29922358618778        0.22160894703827
H           15.91431524739806        2.14476167223141        1.37931685253069
H           14.19426170461949        0.39191865950464        1.26641498901073
H            9.95711377633849       -0.66685088956067       -1.38781657323577
H            7.58257459846788       -0.06746106791576       -1.35973221152406
H            6.77916079606682        4.03881198418456        0.02671527178889
H            4.39746845581150        4.68800950104304        0.05441397089113
H            0.51846131649041        4.51216177843609        0.07022213697620
H           -1.85917811434173        5.20515898350139        0.07225788330656
H           -3.75379304037677        5.17429517342666        1.47917373278701
H           -6.10936141778140        5.84423199823110        1.47943553655696
H           -9.84817879245845        6.65965046367335        0.30667841523938
H          -10.90208734065942        7.43316182588810        2.38850962016619
H          -10.30785517583162        6.38802860185374        4.54582918409371
H           -8.65455476361747        4.55396520293210        4.59995720401426
H           -7.61192640131690        3.76623589594171        2.51797944015875
H           -7.19304554109062        5.28494897567506       -2.35017752612090
H           -8.51044117579999        5.17815966005101       -4.42231083386176
H          -10.88555171952125        4.50428404506177       -4.35257418971839
H          -11.92810005694401        3.92750645075682       -2.18915897042045
H          -10.60855490348241        4.01554840584858       -0.11700245261077
H           -6.99279178695774        2.73579862257996       -1.31701753367722
H           -4.63234348432285        2.08549833118403       -1.33902013325425
H           -3.03432805398294        1.11634571256288        0.05812362053499
H           -2.52014853363512       -0.77604166664262        0.02214073243445
H           -3.39928070274387       -2.39198039412008       -1.42919179723103
H           -5.10276223301509       -4.14974556303757       -1.45634466653815
H           -6.24238980686193       -4.31946140442548        1.02891745018307
H           -8.61851961806352       -3.72805021152498        0.81515498030412
H          -10.14028674920828       -5.15313104311532       -0.50889144606258
H           -9.25949629696812       -7.17230754586186       -1.62566189538825
H           -6.87951512381318       -7.75540405022968       -1.43097666902971
H           -2.91326961801580       -7.53342314277936       -1.17615010213194
H           -2.25208956538197       -9.89348198444977       -0.98372151288280
H           -3.63613049431035      -11.46987992196901        0.31959472660857
H           -5.68514764798921      -10.66109647388088        1.43622887820424
H           -6.33946413367975       -8.29784320732839        1.26057197321599
H           -2.80054236827283       -6.42198655796873        1.33674876322464
H           -1.09525249736817       -4.66501127132608        1.35898505066795
H            0.56248846511568       -3.70703329620852       -0.04104726883444
H            2.26276597627162       -1.90576577871394       -0.00596839045355
H            5.68012709614123       -0.10429835922337        0.01993706262154
H            8.41596251283278        3.10518316066718        1.37820632961660
H           10.78799539247850        2.50890676700729        1.34862685700442
H           10.69516283199322       -1.51474487037298        1.12782166565816
H           11.36998404650225       -3.87294230229040        0.96542530193617

          :  Hamiltonian                  GFN2-xTB          :
         :: gradient norm              0.000046426940 Eh/a0 ::
         :: HOMO-LUMO gap              1.286449127881 eV    ::
         :: SCC energy              -202.905285046627 Eh    ::
         :: -> dispersion             -0.183006939986 Eh    ::
         :: repulsion energy           3.766893686468 Eh    ::

    * Orbital Energies and Occupations

         #    Occupation            Energy/Eh            Energy/eV
      -------------------------------------------------------------
         1        2.0000           -0.6653541             -18.1052
       ...           ...                  ...                  ...
       174        2.0000           -0.4046576             -11.0113
       175        2.0000           -0.4043061             -11.0017
       176        2.0000           -0.4042716             -11.0008
       177        2.0000           -0.4023174             -10.9476
       178        2.0000           -0.4004851             -10.8978
       179        2.0000           -0.3960533             -10.7772
       180        2.0000           -0.3903891             -10.6230
       181        2.0000           -0.3806175             -10.3571
       182        2.0000           -0.3786748             -10.3043
       183        2.0000           -0.3495296              -9.5112
       184        2.0000           -0.3489847              -9.4964
       185        2.0000           -0.3480223              -9.4702
       186        2.0000           -0.3397152              -9.2441 (HOMO)
       187                         -0.2924391              -7.9577 (LUMO)
       188                         -0.2641738              -7.1885
       189                         -0.2464848              -6.7072
       190                         -0.2419181              -6.5829
       191                         -0.2380541              -6.4778
       192                         -0.2307709              -6.2796
       193                         -0.2306456              -6.2762
       194                         -0.2303536              -6.2682
       195                         -0.2276136              -6.1937
       196                         -0.2275391              -6.1917
       197                         -0.2273497              -6.1865
       ...                                ...                  ...
       367                          0.7285434              19.8247
      -------------------------------------------------------------
                  HL-Gap            0.0472761 Eh            1.2864 eV

     #   Z          covCN         q      C6AA      α(0)
     1   6 C        2.919    -0.038    28.944     8.822
     2   6 C        2.920    -0.029    28.728     8.789
     3   6 C        2.922    -0.047    29.173     8.857
     4   6 C        2.925     0.065    26.545     8.449
     5   7 N        2.752    -0.074    22.674     7.072
     6   6 C        2.924     0.065    26.543     8.449
     7   6 C        2.922    -0.047    29.175     8.858
     8   6 C        2.920    -0.029    28.729     8.790
     9   6 C        2.919    -0.038    28.947     8.823
    10   6 C        2.920    -0.029    28.727     8.789
    11   6 C        2.922    -0.047    29.173     8.857
    12   6 C        2.924     0.065    26.554     8.451
    13   6 C        2.920    -0.048    29.200     8.861
    14   6 C        2.924    -0.033    28.833     8.806
    15   6 C        2.976     0.001    27.989     8.678
    16   6 C        2.973     0.012    27.735     8.638
    17   6 C        2.921    -0.033    28.823     8.804
    18   6 C        2.915    -0.042    29.036     8.836
    19   6 C        2.968     0.080    26.213     8.398
    20   7 N        1.848    -0.244    27.217     7.732
    21   6 C        2.962     0.081    26.181     8.393
    22   6 C        2.988    -0.004    28.122     8.699
    23   6 C        2.921    -0.029    28.721     8.789
    24   6 C        2.922    -0.035    28.873     8.812
    25   6 C        2.975     0.012    27.744     8.640
    26   6 C        2.976     0.001    27.997     8.679
    27   6 C        2.924    -0.034    28.837     8.806
    28   6 C        2.920    -0.049    29.205     8.862
    29   6 C        2.924     0.064    26.565     8.452
    30   7 N        2.752    -0.075    22.697     7.076
    31   6 C        2.924     0.065    26.542     8.449
    32   6 C        2.922    -0.047    29.178     8.858
    33   6 C        2.920    -0.029    28.729     8.790
    34   6 C        2.919    -0.038    28.951     8.823
    35   6 C        2.920    -0.029    28.730     8.790
    36   6 C        2.922    -0.047    29.178     8.858
    37   6 C        2.924     0.065    26.542     8.449
    38   6 C        2.922    -0.048    29.181     8.859
    39   6 C        2.920    -0.029    28.730     8.790
    40   6 C        2.919    -0.038    28.954     8.824
    41   6 C        2.920    -0.029    28.731     8.790
    42   6 C        2.922    -0.048    29.182     8.859
    43   6 C        2.920    -0.049    29.210     8.863
    44   6 C        2.924    -0.034    28.845     8.808
    45   6 C        2.929    -0.041    29.017     8.834
    46   6 C        2.975     0.005    27.904     8.665
    47   6 C        2.975     0.005    27.900     8.664
    48   6 C        2.929    -0.041    29.019     8.834
    49   6 C        2.975     0.012    27.741     8.640
    50   6 C        2.977     0.001    28.006     8.681
    51   6 C        2.924    -0.034    28.846     8.808
    52   6 C        2.920    -0.049    29.217     8.864
    53   6 C        2.924     0.064    26.567     8.453
    54   7 N        2.752    -0.074    22.685     7.074
    55   6 C        2.924     0.065    26.542     8.449
    56   6 C        2.922    -0.047    29.177     8.858
    57   6 C        2.920    -0.029    28.731     8.790
    58   6 C        2.919    -0.038    28.950     8.823
    59   6 C        2.920    -0.029    28.728     8.789
    60   6 C        2.922    -0.047    29.176     8.858
    61   6 C        2.925     0.065    26.543     8.449
    62   6 C        2.922    -0.047    29.172     8.857
    63   6 C        2.920    -0.029    28.729     8.790
    64   6 C        2.919    -0.038    28.947     8.823
    65   6 C        2.920    -0.029    28.728     8.789
    66   6 C        2.922    -0.047    29.173     8.857
    67   6 C        2.920    -0.049    29.214     8.863
    68   6 C        2.924    -0.034    28.837     8.806
    69   6 C        2.922    -0.035    28.875     8.812
    70   6 C        2.921    -0.029    28.718     8.788
    71   6 C        2.988    -0.005    28.128     8.700
    72   6 C        2.961     0.083    26.152     8.388
    73   7 N        1.849    -0.246    27.266     7.739
    74   6 C        2.965     0.080    26.209     8.397
    75   6 C        2.924    -0.049    29.206     8.862
    76   6 C        2.924    -0.033    28.832     8.806
    77   6 C        2.920    -0.049    29.213     8.863
    78   6 C        2.922    -0.047    29.171     8.857
    79   6 C        2.920    -0.029    28.726     8.789
    80   1 H        0.926     0.031     2.577     2.511
    81   1 H        0.926     0.032     2.562     2.503
    82   1 H        0.926     0.032     2.562     2.503
    83   1 H        0.926     0.032     2.560     2.502
    84   1 H        0.926     0.032     2.560     2.502
    85   1 H        0.926     0.031     2.579     2.511
    86   1 H        0.926     0.032     2.561     2.503
    87   1 H        0.926     0.032     2.560     2.502
    88   1 H        0.926     0.033     2.537     2.491
    89   1 H        0.926     0.037     2.490     2.467
    90   1 H        0.926     0.038     2.471     2.458
    91   1 H        0.926     0.049     2.337     2.390
    92   1 H        0.926     0.058     2.228     2.334
    93   1 H        0.926     0.035     2.519     2.482
    94   1 H        0.926     0.035     2.517     2.481
    95   1 H        0.926     0.032     2.551     2.498
    96   1 H        0.926     0.032     2.562     2.503
    97   1 H        0.926     0.032     2.565     2.504
    98   1 H        0.926     0.030     2.582     2.513
    99   1 H        0.926     0.032     2.564     2.504
   100   1 H        0.926     0.032     2.565     2.505
   101   1 H        0.926     0.032     2.562     2.503
   102   1 H        0.926     0.032     2.564     2.504
   103   1 H        0.926     0.030     2.584     2.514
   104   1 H        0.926     0.031     2.567     2.506
   105   1 H        0.926     0.031     2.566     2.505
   106   1 H        0.926     0.032     2.555     2.500
   107   1 H        0.926     0.033     2.543     2.494
   108   1 H        0.926     0.036     2.506     2.476
   109   1 H        0.926     0.036     2.507     2.476
   110   1 H        0.926     0.033     2.545     2.495
   111   1 H        0.926     0.032     2.556     2.500
   112   1 H        0.926     0.032     2.562     2.503
   113   1 H        0.926     0.031     2.565     2.505
   114   1 H        0.926     0.030     2.582     2.513
   115   1 H        0.926     0.032     2.564     2.504
   116   1 H        0.926     0.032     2.563     2.503
   117   1 H        0.926     0.032     2.556     2.500
   118   1 H        0.926     0.032     2.560     2.502
   119   1 H        0.926     0.031     2.579     2.511
   120   1 H        0.926     0.032     2.563     2.503
   121   1 H        0.926     0.032     2.563     2.503
   122   1 H        0.926     0.032     2.553     2.498
   123   1 H        0.926     0.035     2.520     2.482
   124   1 H        0.926     0.035     2.521     2.483
   125   1 H        0.926     0.058     2.228     2.334
   126   1 H        0.926     0.049     2.331     2.387
   127   1 H        0.926     0.035     2.522     2.483
   128   1 H        0.926     0.033     2.547     2.496
   129   1 H        0.926     0.032     2.552     2.498
   130   1 H        0.926     0.032     2.555     2.499

molecular dipole:
                 x           y           z       tot (Debye)
 q only:       -0.269      -0.287       0.002
   full:       -0.278      -0.278       0.004       0.999

 projected vibrational frequencies (cm⁻¹)
eigval :       -0.00    -0.00    -0.00     0.00     0.00     0.00
eigval :        4.63     7.03     8.60     8.69     9.37    10.95
eigval :       17.73    20.30    23.97    35.33    37.27    39.03
eigval :       42.71    44.18    47.70    49.42    52.76    57.94
eigval :       58.59    60.60    64.97    70.15    73.53    77.43
eigval :       80.36    87.26    94.21   100.57   101.33   106.10
eigval :      111.53   116.46   125.03   138.94   150.85   161.85
eigval :      180.41   191.00   192.62   203.89   212.95   215.59
eigval :      226.61   232.96   234.36   235.47   241.26   266.61
eigval :      277.13   287.52   297.51   303.66   309.29   315.80
eigval :      318.10   327.42   331.65   346.38   347.14   358.57
eigval :      369.38   376.30   377.51   378.19   378.27   379.18
eigval :      380.00   380.59   382.73   386.54   388.28   388.86
eigval :      392.65   397.82   401.90   418.39   421.99   431.15
eigval :      438.25   439.87   447.27   451.43   468.89   471.89
eigval :      482.33   489.13   490.98   491.25   492.11   506.57
eigval :      511.28   516.02   520.47   565.38   569.89   573.05
eigval :      582.14   582.90   583.31   585.18   585.92   588.65
eigval :      591.45   592.65   593.01   594.33   595.61   596.84
eigval :      606.78   613.96   617.98   620.63   631.05   636.74
eigval :      643.90   659.70   659.83   660.10   660.82   665.84
eigval :      667.82   672.09   677.52   680.13   689.77   691.84
eigval :      700.11   702.10   713.29   721.12   735.11   741.61
eigval :      757.01   757.21   757.25   759.02   760.85   762.00
eigval :      769.64   778.02   805.45   810.72   811.65   826.38
eigval :      833.52   838.77   840.26   862.87   866.40   868.33
eigval :      869.42   872.67   874.59   874.76   874.90   876.11
eigval :      876.33   876.66   877.69   879.88   890.41   892.09
eigval :      892.49   892.51   893.00   893.59   896.46   910.00
eigval :      910.26   910.28   914.75   916.28   917.30   917.68
eigval :      922.04   925.02   925.37   926.84   927.54   927.68
eigval :      927.75   927.86   928.37   929.05   929.17   929.21
eigval :      929.32   929.56   929.68   929.81   930.56   930.79
eigval :      931.92   934.10   954.16   984.02   984.90   985.44
eigval :     1005.04  1005.13  1005.16  1011.31  1016.80  1019.88
eigval :     1044.61  1062.87  1068.51  1083.00  1083.08  1083.19
eigval :     1083.92  1084.16  1084.22  1084.24  1101.08  1121.90
eigval :     1121.91  1121.97  1124.14  1124.15  1124.27  1142.07
eigval :     1142.77  1143.61  1152.86  1156.08  1159.23  1180.70
eigval :     1180.71  1180.74  1180.80  1180.81  1180.83  1187.61
eigval :     1187.76  1187.85  1195.58  1195.68  1195.73  1197.15
eigval :     1197.48  1198.10  1209.60  1211.98  1217.04  1217.74
eigval :     1222.18  1231.11  1245.30  1268.20  1270.32  1271.13
eigval :     1272.72  1273.95  1276.61  1278.82  1278.86  1279.56
eigval :     1282.10  1282.45  1282.97  1296.33  1304.19  1309.26
eigval :     1313.64  1314.93  1315.73  1319.28  1319.90  1320.14
eigval :     1321.38  1326.11  1326.57  1326.97  1327.08  1327.59
eigval :     1328.40  1328.66  1332.93  1333.52  1341.95  1358.19
eigval :     1379.69  1394.41  1407.70  1409.52  1413.87  1415.41
eigval :     1433.32  1434.85  1436.57  1437.04  1438.46  1443.23
eigval :     1443.62  1443.79  1457.61  1470.99  1471.94  1472.59
eigval :     1474.48  1476.47  1476.65  1476.72  1482.45  1494.21
eigval :     1496.72  1499.11  1506.62  1527.84  1546.50  1550.52
eigval :     1555.43  1557.85  1560.31  1577.31  1577.44  1577.44
eigval :     1579.26  1581.23  1581.36  1581.55  1587.10  1589.45
eigval :     1594.96  1595.03  1595.15  1597.42  1598.78  1599.83
eigval :     1602.74  1603.97  1606.68  3075.60  3075.66  3075.91
eigval :     3075.97  3076.04  3076.30  3076.30  3076.42  3076.89
eigval :     3076.94  3077.03  3077.19  3077.30  3077.34  3077.52
eigval :     3079.03  3079.26  3080.55  3081.08  3084.00  3084.23
eigval :     3085.83  3085.92  3086.07  3086.67  3086.72  3086.95
eigval :     3088.39  3088.46  3088.95  3089.39  3089.56  3089.74
eigval :     3089.94  3090.05  3090.54  3091.48  3091.61  3092.30
eigval :     3095.93  3096.43  3096.70  3097.27  3097.35  3097.48
eigval :     3097.85  3097.92  3098.03  3107.28  3107.52  3108.13

   temp. (K)  partition function   enthalpy   heat capacity  entropy
                                   cal/mol     cal/K/mol   cal/K/mol   J/K/mol
 298.15  VIB  0.719E+33            38170.074    235.778    243.972
         ROT  0.803E+09              888.752      2.981     43.727
         INT  0.577E+42            39058.826    238.759    287.699
         TR   0.311E+29             1481.254      4.968     46.591
         TOT                       40540.0802   243.7271   334.2900  1398.6693

       T/K    H(0)-H(T)+PV         H(T)/Eh          T*S/Eh         G(T)/Eh
   ------------------------------------------------------------------------
    298.15    0.646047E-01    0.107109E+01    0.158832E+00    0.912255E+00
   ------------------------------------------------------------------------

         :::::::::::::::::::::::::::::::::::::::::::::::::::::
         ::                  THERMODYNAMIC                  ::
         :::::::::::::::::::::::::::::::::::::::::::::::::::::
         :: total free energy        -198.226135912492 Eh   ::
         ::.................................................::
         :: total energy             -199.138391360157 Eh   ::
         :: zero point energy           1.006482678192 Eh   ::
         :: G(RRHO) w/o ZPVE           -0.094227230527 Eh   ::
         :: G(RRHO) contrib.            0.912255447664 Eh   ::
         :::::::::::::::::::::::::::::::::::::::::::::::::::::

           -------------------------------------------------
          | TOTAL ENERGY             -199.138391360157 Eh   |
          | TOTAL ENTHALPY           -198.067303951937 Eh   |
          | TOTAL FREE ENERGY        -198.226135912492 Eh   |
          | GRADIENT NORM               0.000046425705 Eh/α |
          | HOMO-LUMO GAP               1.286449210307 eV   |
           -------------------------------------------------

 * finished run on 2025/07/19 at 19:29:35.003
