   * xtb version 6.7.1 (edcfbbe) compiled by 'albert@albert-system' on 2024-07-22

   ID    Z sym.   atoms
    1    6 C      1-4, 6-19, 21-29, 31-53, 55-72, 74-79
    2    7 N      5, 20, 30, 54, 73
    3    1 H      80-130

          program call               : xtb data2507/gas/DBP-3TPA/DBP-3TPA_gas_T1_crest.xyz --gfn 2 --spinpol --tblite --uhf 2 --ohess vtight --parallel 40 --molden --ceasefiles --namespace data2507/gas/DBP-3TPA/DBP-3TPA_gas_T1_finalOpt
 * total energy  :  -199.0954165 Eh     change       -0.5520275E-07 Eh
 * total energy  :  -199.0954423 Eh     change       -0.2574058E-04 Eh
 * total energy  :  -199.0954477 Eh     change       -0.5447647E-05 Eh
 * total energy  :  -199.0954492 Eh     change       -0.1500610E-05 Eh
 * total energy  :  -199.0954506 Eh     change       -0.1378030E-05 Eh
 * total energy  :  -199.0954519 Eh     change       -0.1259254E-05 Eh
 * total energy  :  -199.0954538 Eh     change       -0.1961952E-05 Eh
 * total energy  :  -199.0954559 Eh     change       -0.2082663E-05 Eh
 * total energy  :  -199.0954575 Eh     change       -0.1611985E-05 Eh
 * total energy  :  -199.0954585 Eh     change       -0.1014305E-05 Eh
 * total energy  :  -199.0954689 Eh     change       -0.2845750E-06 Eh
 * total energy  :  -199.0954692 Eh     change       -0.3111398E-06 Eh
 * total energy  :  -199.0954695 Eh     change       -0.2737906E-06 Eh
 * total energy  :  -199.0954696 Eh     change       -0.1371402E-06 Eh
 * total energy  :  -199.0954698 Eh     change       -0.2315603E-06 Eh
 * total energy  :  -199.0954701 Eh     change       -0.3063420E-06 Eh
 * total energy  :  -199.0954704 Eh     change       -0.2311996E-06 Eh
 * total energy  :  -199.0954704 Eh     change        0.1192288E-07 Eh
 * total energy  :  -199.0954704 Eh     change       -0.1304332E-07 Eh
   *** GEOMETRY OPTIMIZATION CONVERGED AFTER 45 ITERATIONS ***

 final structure:
================
130
 xtb: 6.7.1 (edcfbbe)
C           14.84926617495033        3.06917825850942       -0.07726466914723
C           15.01420493386980        1.87128840212102       -0.75334776472436
C           14.02265922413645        0.91022684336587       -0.72730905818248
C           12.84626917082999        1.13338148402181       -0.01158257328585
N           11.84014771505833        0.16175841181886        0.02084506549506
C           12.17887812934802       -1.19490831990651        0.06679470702645
C           13.28172813226213       -1.62403956600190        0.80539459841284
C           13.61434875117767       -2.96392985819650        0.84435738756324
C           12.85346744211722       -3.89672474122414        0.15864185932566
C           11.75467726668572       -3.47639453573263       -0.57294025679822
C           11.41841995724701       -2.13786629992791       -0.62495910882829
C           10.49647515337313        0.54686411906370        0.00635797554513
C            9.54509058188689       -0.15965888762855        0.74345833908343
C            8.22071418872009        0.21993868605642        0.72175233905789
C            7.79713874707959        1.32306265548917       -0.02100562632927
C            6.39059098367877        1.73021135657864       -0.03166093122990
C            6.03843754478734        3.08142518554123       -0.05009987781616
C            4.71586635728357        3.47428330897470       -0.04766674897209
C            3.68415057598266        2.53816627770230       -0.03647202989862
N            2.39841289578575        2.86888740168843       -0.03505527883478
C            1.42462649979051        1.96956389028290       -0.02744214877987
C            0.05209762076139        2.35487180145393       -0.02250304133708
C           -0.27806217783705        3.72154870840423       -0.02371095569511
C           -1.58230224623811        4.13254412268019       -0.01273377103678
C           -2.62202057996671        3.18821025155353        0.00717551046103
C           -4.02433543031641        3.61530473505694        0.03118931782421
C           -4.45826125077771        4.70665884547794       -0.72098270144758
C           -5.78069198436160        5.09559405783243       -0.71506352795520
C           -6.71648565770435        4.41127281694849        0.06177862070116
N           -8.05871514294219        4.80006127702776        0.07099135396746
C           -8.39637473062256        6.15602884697124       -0.00442076885085
C           -9.51517409291901        6.56694195933239       -0.72894593068013
C           -9.84708281398970        7.90592783190589       -0.79635997626315
C           -9.06959439838029        8.85542534167023       -0.15361681101264
C           -7.95490216723267        8.45301471248864        0.56377120559318
C           -7.61926754624233        7.11569119375851        0.64421885245602
C           -9.06564806758406        3.83227174055473        0.15939534205281
C           -8.92619547456761        2.60478980371274       -0.48856961762671
C           -9.91905583984414        1.64960070507992       -0.39180079605652
C          -11.06756981877242        1.90236054155342        0.34041731311613
C          -11.21395585620818        3.12195294883885        0.98094086647717
C          -10.22263045970969        4.08012477630051        0.89805294355142
C           -6.28580045926599        3.32831854038150        0.82944093677690
C           -4.96520828454763        2.93610051717115        0.80567722623573
C           -2.30137389945826        1.84228306079011        0.00352164615451
C           -0.97928626725222        1.38709995475519       -0.01416965698836
C           -0.63310601627065       -0.01605000192369       -0.02554972054069
C           -1.59233561896053       -1.03376379578855       -0.03595978783641
C           -1.25071686083027       -2.37443447215207       -0.04018696695102
C           -2.29389632259733       -3.40468776823598       -0.05423920937234
C           -3.44859145594527       -3.24323519863904       -0.82028228970819
C           -4.43521204238781       -4.20498645916613       -0.83393320192540
C           -4.30663113252297       -5.36195049647727       -0.06423768000690
N           -5.31326625777962       -6.33124061428602       -0.06342489829072
C           -6.65599669078779       -5.94478014962687       -0.14088716459929
C           -7.09931675832480       -4.79197129459393        0.50756496774750
C           -8.42411113140538       -4.41090513447106        0.42236150859512
C           -9.32895287537892       -5.17282613468759       -0.29863490838851
C           -8.89530682052746       -6.32165479179766       -0.93991218839237
C           -7.57061700049955       -6.70608228558132       -0.86860601546026
C           -4.97908419922997       -7.68808229380496        0.01304531784689
C           -3.84985716403781       -8.17642209138162       -0.64417902457255
C           -3.52194933955147       -9.51557177038566       -0.56234721489371
C           -4.31363454670701      -10.38929789757702        0.16493875754789
C           -5.43863435534742       -9.91020034239740        0.81607711742567
C           -5.77044367118788       -8.57124861054328        0.74735097480176
C           -3.15410832429241       -5.53001212800234        0.70447627881764
C           -2.16453171943813       -4.57044017310088        0.70028090430278
C            0.10873625492487       -2.72742155178783       -0.02951554242841
C            1.07253187242132       -1.75709343447195       -0.02510337683654
C            0.72956310067369       -0.39387656565478       -0.02448940575948
C            1.76732254280303        0.58527814426121       -0.02322951868064
N            3.04507453192193        0.24050788967225       -0.02028801008867
C            4.03527288866659        1.13179154178344       -0.02332693702413
C            5.37586252620742        0.77424007271228       -0.01706490508110
C            8.75541388372015        2.02769231935250       -0.75097319283228
C           10.07942156419068        1.64600918220860       -0.74560129077030
C           12.68709790786726        2.33962852984820        0.67082170949108
C           13.68121322276445        3.29754269642422        0.63179137927919
H           15.62520840549433        3.81908207526313       -0.10276576293649
H           15.91911174410732        1.68656301354112       -1.31346057240710
H           14.14932545307294       -0.01850608675852       -1.26426371502511
H           13.87042218151934       -0.90010966199353        1.34972238790267
H           14.46948299323423       -3.28289158244118        1.42204271927840
H           13.11490098160138       -4.94337828930199        0.19417137229476
H           11.15883401907037       -4.19572667486985       -1.11535778070702
H           10.56770122438568       -1.81140294426218       -1.20502102102119
H            9.85698533155274       -1.00449332216228        1.34021558669834
H            7.50507256297568       -0.32677588854587        1.31757035981578
H            6.81186677090560        3.83425857372471       -0.03798402874411
H            4.44937148816016        4.51997197588890       -0.04988728448716
H            0.53136988386812        4.43592580871170       -0.02822805881045
H           -1.81886198162329        5.18599202631582        0.00641938287080
H           -3.75466435767154        5.23595559805410       -1.34654182467120
H           -6.10270757754183        5.92994134970525       -1.32101713528235
H          -10.11722857616637        5.82950584373085       -1.23950119323789
H          -10.71493072717358        8.21077413070505       -1.36258223151058
H           -9.33055989862870        9.90120730558953       -0.21125614946748
H           -7.34604177710087        9.18562655399467        1.07295713025685
H           -6.75597800043112        6.80333032941588        1.21346512161834
H           -8.03683829380591        2.40925196925763       -1.06964933741113
H           -9.79827684618277        0.70391915552062       -0.89971905283050
H          -11.84297070960603        1.15475934498052        0.41110523422324
H          -12.10374406912981        3.32628421469483        1.55818879929091
H          -10.33469325725780        5.02578274063602        1.40798395234830
H           -6.99644412541922        2.80154775936739        1.44955949977502
H           -4.64909040637301        2.10860536138402        1.42382992362606
H           -3.11169983267152        1.13093081772813       -0.00632493963955
H           -2.64034294581409       -0.78051270865117       -0.01980243584673
H           -3.55854639602568       -2.36528682801058       -1.43990491738575
H           -5.31414803797055       -4.07097881607674       -1.44758830059683
H           -6.39851979789203       -4.20208166606340        1.08007854873131
H           -8.75378006906676       -3.51658891370637        0.93070582438844
H          -10.36435253565210       -4.87393201069029       -0.36002377027477
H           -9.59238593725889       -6.91950970411760       -1.50855471317845
H           -7.23330587071531       -7.59635319949841       -1.37899830958858
H           -3.23707460953152       -7.49912185083516       -1.22094205261706
H           -2.64609162163681       -9.88104746094732       -1.07812160687515
H           -4.05590557843910      -11.43582066011791        0.22374714192911
H           -6.05895367865995      -10.58295448758312        1.38993565792455
H           -6.64252233261789       -8.19833544579648        1.26443134714070
H           -3.04628869289944       -6.41673544803386        1.31201683940460
H           -1.29078409568881       -4.70978133092766        1.31970363334144
H            0.38879587221749       -3.77011624098231       -0.05002007502639
H            2.12128715381959       -2.01326689977008       -0.02702650067076
H            5.61430525877127       -0.27799932286446       -0.02738192102568
H            8.45159153760947        2.86738966837337       -1.35834684934416
H           10.80332861007346        2.19263516202248       -1.33235982788273
H           11.78192230917570        2.51559395178940        1.23341485934316
H           13.54611757210529        4.22615520838798        1.16670875188445

 projected vibrational frequencies (cm⁻¹)
eigval :       -0.00    -0.00    -0.00     0.00     0.00     0.00
eigval :        5.56     7.24     7.59     9.10     9.57    10.77
eigval :       17.22    22.21    24.37    36.59    37.18    37.99
eigval :       39.91    46.95    47.08    50.10    50.57    56.89
eigval :       58.44    60.70    67.76    70.69    74.45    79.49
eigval :       82.02    86.01    93.77    99.41   102.07   104.80
eigval :      114.01   119.69   124.06   140.51   154.54   160.20
eigval :      179.04   184.13   196.98   208.35   211.20   212.19
eigval :      225.45   228.11   233.73   233.99   235.21   268.39
eigval :      272.73   282.58   296.21   300.91   309.37   315.03
eigval :      319.07   325.77   332.48   334.12   350.76   362.47
eigval :      366.25   370.47   377.56   377.97   378.13   378.77
eigval :      379.92   380.09   382.43   387.64   389.14   389.60
eigval :      395.79   401.43   402.94   411.51   419.92   425.52
eigval :      429.68   432.88   442.55   453.97   467.06   479.26
eigval :      481.09   488.30   490.24   491.23   492.46   505.94
eigval :      509.22   515.47   519.15   560.95   563.71   571.39
eigval :      580.98   581.99   583.51   584.71   584.90   587.98
eigval :      588.95   590.45   593.48   593.76   593.99   594.43
eigval :      602.07   612.70   613.84   616.34   622.47   626.27
eigval :      631.04   642.68   658.65   659.56   659.73   659.95
eigval :      664.86   667.60   670.85   673.85   678.95   687.87
eigval :      688.75   695.18   696.16   708.33   720.46   721.11
eigval :      735.44   756.80   756.89   757.01   757.22   760.61
eigval :      761.11   770.27   796.52   804.90   808.38   809.51
eigval :      817.71   825.46   832.88   833.09   857.67   867.13
eigval :      867.33   869.43   871.75   874.01   874.18   874.41
eigval :      875.47   875.65   876.41   876.49   885.30   887.90
eigval :      892.01   892.02   892.08   892.85   893.53   894.90
eigval :      909.83   910.28   910.32   910.34   915.12   915.22
eigval :      916.95   919.35   919.56   926.51   926.87   927.32
eigval :      927.34   927.43   927.46   928.13   928.74   928.83
eigval :      929.07   929.24   929.33   929.51   929.65   929.86
eigval :      930.46   932.72   934.35   982.55   984.97   985.45
eigval :     1004.91  1004.98  1005.05  1007.42  1018.78  1020.26
eigval :     1037.76  1059.93  1075.48  1082.07  1083.42  1083.56
eigval :     1083.57  1084.37  1084.46  1084.48  1099.77  1122.20
eigval :     1122.22  1122.25  1124.50  1124.51  1124.56  1138.83
eigval :     1142.29  1143.10  1145.71  1155.39  1158.29  1180.10
eigval :     1180.45  1180.53  1180.54  1180.55  1181.01  1186.37
eigval :     1186.55  1186.75  1195.16  1195.17  1195.47  1196.84
eigval :     1197.06  1197.39  1210.85  1213.07  1216.80  1219.71
eigval :     1221.48  1225.08  1245.07  1252.40  1260.32  1267.32
eigval :     1272.19  1272.61  1273.40  1277.23  1278.58  1278.67
eigval :     1278.79  1279.69  1282.03  1283.76  1286.29  1302.01
eigval :     1304.80  1312.98  1314.94  1315.09  1319.95  1320.23
eigval :     1320.49  1320.83  1325.74  1326.73  1326.80  1327.27
eigval :     1327.35  1327.86  1330.56  1331.36  1339.89  1346.20
eigval :     1360.74  1374.42  1398.37  1402.96  1409.08  1413.62
eigval :     1416.41  1423.51  1426.48  1435.93  1436.16  1436.22
eigval :     1443.10  1443.38  1443.54  1461.62  1466.77  1471.00
eigval :     1471.49  1471.70  1475.12  1475.44  1476.01  1481.75
eigval :     1491.11  1496.38  1498.76  1512.67  1520.64  1535.45
eigval :     1544.24  1554.09  1555.46  1555.89  1574.55  1576.14
eigval :     1576.57  1576.74  1580.14  1580.30  1580.70  1581.89
eigval :     1593.02  1593.56  1593.99  1594.36  1596.05  1596.59
eigval :     1599.90  1601.54  1602.06  3075.10  3075.26  3075.59
eigval :     3075.69  3075.79  3076.03  3076.07  3076.16  3076.71
eigval :     3076.75  3076.85  3077.02  3077.12  3077.27  3077.56
eigval :     3077.94  3078.00  3078.92  3081.47  3081.56  3084.94
eigval :     3085.76  3085.89  3086.03  3086.61  3086.69  3086.97
eigval :     3087.92  3087.97  3088.72  3088.85  3089.18  3089.42
eigval :     3089.62  3089.73  3089.76  3090.23  3090.35  3090.73
eigval :     3093.99  3094.18  3094.74  3096.08  3096.24  3096.75
eigval :     3097.03  3097.17  3097.25  3097.29  3098.05  3107.95

   temp. (K)  partition function   enthalpy   heat capacity  entropy
                                   cal/mol     cal/K/mol   cal/K/mol   J/K/mol
 298.15  VIB  0.653E+33            38317.912    236.925    244.480
         ROT  0.799E+09              888.752      2.981     43.717
         INT  0.522E+42            39206.665    239.906    288.197
         TR   0.311E+29             1481.254      4.968     46.591
         TOT                       40687.9185   244.8737   334.7875  1400.7508

       T/K    H(0)-H(T)+PV         H(T)/Eh          T*S/Eh         G(T)/Eh
   ------------------------------------------------------------------------
    298.15    0.648403E-01    0.106886E+01    0.159068E+00    0.909797E+00
   ------------------------------------------------------------------------

         :::::::::::::::::::::::::::::::::::::::::::::::::::::
         ::                  THERMODYNAMIC                  ::
         :::::::::::::::::::::::::::::::::::::::::::::::::::::
         :: total free energy        -198.185673803223 Eh   ::
         ::.................................................::
         :: total energy             -199.095470375407 Eh   ::
         :: zero point energy           1.004024584722 Eh   ::
         :: G(RRHO) w/o ZPVE           -0.094228012537 Eh   ::
         :: G(RRHO) contrib.            0.909796572185 Eh   ::
         :::::::::::::::::::::::::::::::::::::::::::::::::::::

           -------------------------------------------------
          | TOTAL ENERGY             -199.095470375407 Eh   |
          | TOTAL ENTHALPY           -198.026605465367 Eh   |
          | TOTAL FREE ENERGY        -198.185673803223 Eh   |
          | GRADIENT NORM               0.000085992567 Eh/α |
           -------------------------------------------------

 * finished run on 2025/07/19 at 20:43:11.028
