   * xtb version 6.7.1 (edcfbbe) compiled by 'albert@albert-system' on 2024-07-22

   ID    Z sym.   atoms
    1    6 C      1-4, 6-19, 21-29, 31-53, 55-72, 74-79
    2    7 N      5, 20, 30, 54, 73
    3    1 H      80-130

          program call               : xtb data2507/gas/DBP-3TPA/DBP-3TPA_gas_S0_crest.xyz --gfn 2 --ohess vtight --parallel 40 --molden --ceasefiles --namespace data2507/gas/DBP-3TPA/DBP-3TPA_gas_S0_finalOpt
          :  Hamiltonian                  GFN2-xTB          :
 * total energy  :  -199.1389150 Eh     change       -0.1449081E-08 Eh
 * total energy  :  -199.1389159 Eh     change       -0.9503287E-06 Eh
 * total energy  :  -199.1389182 Eh     change       -0.2233736E-05 Eh
 * total energy  :  -199.1389232 Eh     change       -0.5069274E-05 Eh
 * total energy  :  -199.1389286 Eh     change       -0.5348351E-05 Eh
 * total energy  :  -199.1389317 Eh     change       -0.3162929E-05 Eh
 * total energy  :  -199.1389338 Eh     change       -0.2012365E-05 Eh
 * total energy  :  -199.1389354 Eh     change       -0.1612775E-05 Eh
 * total energy  :  -199.1389375 Eh     change       -0.2107911E-05 Eh
 * total energy  :  -199.1389404 Eh     change       -0.2963841E-05 Eh
 * total energy  :  -199.1389710 Eh     change       -0.5943594E-06 Eh
 * total energy  :  -199.1389715 Eh     change       -0.4501514E-06 Eh
 * total energy  :  -199.1389720 Eh     change       -0.5624686E-06 Eh
 * total energy  :  -199.1389725 Eh     change       -0.5100534E-06 Eh
 * total energy  :  -199.1389731 Eh     change       -0.5050016E-06 Eh
 * total energy  :  -199.1389736 Eh     change       -0.5812203E-06 Eh
 * total energy  :  -199.1389742 Eh     change       -0.5505859E-06 Eh
 * total energy  :  -199.1389747 Eh     change       -0.4685265E-06 Eh
 * total energy  :  -199.1389747 Eh     change       -0.9103644E-08 Eh
   *** GEOMETRY OPTIMIZATION CONVERGED AFTER 44 ITERATIONS ***

 final structure:
================
130
 xtb: 6.7.1 (edcfbbe)
C           14.85707544862056        3.01971255155255       -0.12974217655363
C           15.00947895442740        1.82686347095182       -0.81740843902013
C           14.01868297457807        0.86521386206243       -0.77941106123754
C           12.85649388615854        1.08305572276116       -0.04004114152097
N           11.85177246587021        0.10888750630691        0.00633310256053
C           12.19846028666844       -1.24713804298020        0.04798933588341
C           13.30893407986504       -1.67020661334747        0.77783190133916
C           13.65136648581629       -3.00795809760724        0.81051180670362
C           12.89243685643667       -3.94394006601933        0.12718141658280
C           11.78614066226296       -3.52926005707328       -0.59607994159262
C           11.44045296132812       -2.19277360508084       -0.64208386665766
C           10.50878539002427        0.48888787009787        0.00889981314333
C            9.56560546955341       -0.23037525131318        0.74520377245777
C            8.23994145706914        0.14502325151059        0.73992053673780
C            7.80778464938419        1.25622577855000        0.01568183010268
C            6.39605258961586        1.65361836893917        0.01959236764022
C            6.05110742691077        3.02861052893613        0.04355919162540
C            4.75156812285095        3.43821607341701        0.05064758785678
C            3.70957199724660        2.48598854793148        0.02937007744319
N            2.43202497136242        2.88677851517580        0.03400782676644
C            1.49234822251886        1.95880867070914        0.01454321363051
C            0.10621929865962        2.36459288001838        0.02128536072357
C           -0.21667294516260        3.72516395234361        0.03984621165395
C           -1.52455492175545        4.14217208207798        0.04965775327165
C           -2.55928322842655        3.20042740714799        0.04850493644081
C           -3.96562789527770        3.61806249709106        0.06666577187749
C           -4.40634312347090        4.70068710958874       -0.69298277467434
C           -5.73468247725731        5.06970471068058       -0.70264572040816
C           -6.66864376717764        4.37429600206328        0.06686951583025
N           -8.01743042719433        4.73568467457804        0.05507216374270
C           -8.38451908776403        6.08249587848131       -0.04992823863458
C           -9.50132075847862        6.45429413204311       -0.79792616180519
C           -9.86308675867080        7.78381617773976       -0.89400694430589
C           -9.11752600608022        8.76224433151302       -0.25695476842044
C           -8.00510261649571        8.39852904807654        0.48412122254594
C           -7.64009693007448        7.07091422760813        0.59341874007690
C           -9.00584356094653        3.74825917614288        0.14757452881902
C           -8.83705023911564        2.51618189478746       -0.48420473411432
C           -9.81089835277022        1.54204731421541       -0.38232535334066
C          -10.96962538982783        1.78059861281456        0.33840068174922
C          -11.14575181362404        3.00516079176188        0.96160031371041
C          -10.17325659682430        3.98216615366813        0.87380113111663
C           -6.22855303575222        3.30448697800764        0.84786558374048
C           -4.90253868318412        2.93070959416756        0.83800325633058
C           -2.23895874054803        1.85124779476907        0.02611379835232
C           -0.91894898164451        1.39847936347812        0.00989025694237
C           -0.58096613598036       -0.01844535695662       -0.02151648361765
C           -1.55491280840366       -1.01791753023104       -0.04200281113331
C           -1.23243592284472       -2.36649276041432       -0.06906565824179
C           -2.29924216348373       -3.37358493971369       -0.08628614245916
C           -3.45175747679940       -3.17918592663965       -0.84735811921839
C           -4.46734418797593       -4.11026032730384       -0.85216379603213
C           -4.37111967662429       -5.26702134829130       -0.07718767477652
N           -5.41205219524581       -6.19799249931084       -0.05984762380986
C           -6.74060560237018       -5.76167474638999       -0.12760813981992
C           -7.13429095239873       -4.58898944436745        0.51702048727429
C           -8.44467418202444       -4.15895609824571        0.44166621271428
C           -9.38436680466590       -4.89152866809456       -0.26492311482612
C           -9.00025948933478       -6.06025041758835       -0.90171993108111
C           -7.69002061236654       -6.49324609030162       -0.84072711830477
C           -5.12952001153059       -7.56613986389200        0.02902865383924
C           -4.02655479520102       -8.10459339708283       -0.63327853284278
C           -3.75037791449490       -9.45472802446846       -0.54074692842517
C           -4.56890511913682      -10.28961877538766        0.20216485557939
C           -5.66805880589353       -9.76044928554925        0.85856300491794
C           -5.94769228402906       -8.41015868938588        0.77949674632311
C           -3.21724562007960       -5.47056839683047        0.68110351196535
C           -2.19825275541685       -4.54211708199300        0.66732218294524
C            0.11586511007517       -2.74016781813652       -0.07278542726108
C            1.09504534433517       -1.77807622037895       -0.05603200488979
C            0.76958716425921       -0.41840832233088       -0.02999942551603
C            1.82462798212994        0.56887358069653       -0.01020919895715
N            3.08054821790060        0.16378306468548       -0.01349895399273
C            4.04316547874629        1.09880985912353        0.00661332728952
C            5.39558317319797        0.71033056929265        0.00332658662355
C            8.75577047882189        1.97473468029553       -0.71270170906624
C           10.08093028202096        1.59655794269590       -0.72477833155692
C           12.71016549972508        2.28355551031374        0.65457505218343
C           13.70301869914587        3.24239275884962        0.60344087273026
H           15.63217140436655        3.77012247847654       -0.16460924087250
H           15.90379907472196        1.64640544574562       -1.39560020682001
H           14.13576116424897       -0.06029919280010       -1.32405410426899
H           13.89690920630756       -0.94345628426463        1.31918355452042
H           14.51282833671659       -3.32255114730057        1.38112820058655
H           13.16144216051693       -4.98883853096050        0.15778601470246
H           11.19181065672265       -4.25106005925804       -1.13686665400463
H           10.58377738748951       -1.87061772620575       -1.21581999655245
H            9.88503009207066       -1.08211059953258        1.32773916740872
H            7.52951286452477       -0.41150860628336        1.33286734294183
H            6.84539461698758        3.75992328873257        0.07993320394421
H            4.48540827825686        4.48384093634374        0.07622524649886
H            0.59662800323166        4.43385697453030        0.04966368782633
H           -1.76024974971871        5.19558712805321        0.08132843782839
H           -3.70343887588747        5.23714690931285       -1.31325630700447
H           -6.06250377606151        5.89582606819207       -1.31657027596822
H          -10.07880307383754        5.69411715271620       -1.30351923064193
H          -10.72918219572856        8.05836476573448       -1.47813882832600
H           -9.40156912554979        9.80050030939945       -0.33716432898856
H           -7.42116524314886        9.15392057086025        0.98922510561268
H           -6.77868183533068        6.78868542713113        1.18099752161398
H           -7.93963123009967        2.33132375625376       -1.05637321653106
H           -9.66707559674592        0.59265194410523       -0.87724367720787
H          -11.73012196720004        1.01821913824963        0.41329628494271
H          -12.04410832865350        3.19885072272305        1.52916151865467
H          -10.30864594893889        4.93217892894657        1.36979547907473
H           -6.93698486591784        2.77128823052895        1.46489848416733
H           -4.57992811756862        2.11137996731222        1.46377375266019
H           -3.05255837691804        1.14421597972734        0.00003965156428
H           -2.59984412558997       -0.75362970543715       -0.01530403173778
H           -3.53838780100343       -2.29994420635769       -1.46895499323840
H           -5.34576921332634       -3.95077534378453       -1.46033719282920
H           -6.40654286789212       -4.02172786769034        1.07871358406289
H           -8.73556850691399       -3.24934791689263        0.94661752929900
H          -10.40851237279432       -4.55470488110976       -0.31837259942902
H           -9.72489605613433       -6.63591656630042       -1.45867681368409
H           -7.39140289405935       -7.39935435633242       -1.34732516105801
H           -3.39312821835646       -7.45747929980879       -1.22230971358527
H           -2.89421872717374       -9.85922100686623       -1.06046362601871
H           -4.35198168049322      -11.34487658370803        0.26894590732091
H           -6.30903603661210      -10.40277676675143        1.44445639727756
H           -6.79984017784887       -7.99842848978582        1.30034328149756
H           -3.13228245825009       -6.35880370431492        1.28993884716581
H           -1.32405887194478       -4.70664435128084        1.27991532184224
H            0.38092345969859       -3.78637046495992       -0.11075865172032
H            2.14060845274196       -2.04353554505865       -0.06549825952492
H            5.61721990885252       -0.34515730097698       -0.03525622596359
H            8.44448076276636        2.82083121797783       -1.30753179005763
H           10.79736383670591        2.15358133321079       -1.31072428153821
H           11.81594343317834        2.45486135606529        1.23592059055210
H           13.57806042998220        4.16692351328144        1.14784032625410

          :  Hamiltonian                  GFN2-xTB          :
         :: gradient norm              0.000060580676 Eh/a0 ::
         :: HOMO-LUMO gap              1.287649667546 eV    ::
         :: SCC energy              -202.905820912432 Eh    ::
         :: -> dispersion             -0.183530054865 Eh    ::
         :: repulsion energy           3.766846250629 Eh    ::

    * Orbital Energies and Occupations

         #    Occupation            Energy/Eh            Energy/eV
      -------------------------------------------------------------
         1        2.0000           -0.6653697             -18.1056
       ...           ...                  ...                  ...
       174        2.0000           -0.4047692             -11.0143
       175        2.0000           -0.4046665             -11.0115
       176        2.0000           -0.4046179             -11.0102
       177        2.0000           -0.4026697             -10.9572
       178        2.0000           -0.4003156             -10.8931
       179        2.0000           -0.3962673             -10.7830
       180        2.0000           -0.3903354             -10.6216
       181        2.0000           -0.3806202             -10.3572
       182        2.0000           -0.3789506             -10.3118
       183        2.0000           -0.3496764              -9.5152
       184        2.0000           -0.3491133              -9.4999
       185        2.0000           -0.3481302              -9.4731
       186        2.0000           -0.3396623              -9.2427 (HOMO)
       187                         -0.2923420              -7.9550 (LUMO)
       188                         -0.2641995              -7.1892
       189                         -0.2464686              -6.7068
       190                         -0.2419145              -6.5828
       191                         -0.2382570              -6.4833
       192                         -0.2308289              -6.2812
       193                         -0.2308149              -6.2808
       194                         -0.2306197              -6.2755
       195                         -0.2277461              -6.1973
       196                         -0.2276847              -6.1956
       197                         -0.2275119              -6.1909
       ...                                ...                  ...
       367                          0.7286871              19.8286
      -------------------------------------------------------------
                  HL-Gap            0.0473203 Eh            1.2876 eV

     #   Z          covCN         q      C6AA      α(0)
     1   6 C        2.919    -0.038    28.946     8.823
     2   6 C        2.920    -0.029    28.727     8.789
     3   6 C        2.922    -0.047    29.172     8.857
     4   6 C        2.925     0.065    26.543     8.449
     5   7 N        2.752    -0.074    22.675     7.072
     6   6 C        2.924     0.065    26.545     8.449
     7   6 C        2.922    -0.047    29.174     8.857
     8   6 C        2.920    -0.029    28.728     8.789
     9   6 C        2.919    -0.038    28.945     8.823
    10   6 C        2.920    -0.029    28.726     8.789
    11   6 C        2.922    -0.047    29.173     8.857
    12   6 C        2.924     0.065    26.554     8.451
    13   6 C        2.920    -0.048    29.200     8.861
    14   6 C        2.924    -0.033    28.833     8.806
    15   6 C        2.976     0.001    27.989     8.678
    16   6 C        2.973     0.012    27.735     8.639
    17   6 C        2.921    -0.033    28.824     8.804
    18   6 C        2.915    -0.042    29.037     8.836
    19   6 C        2.968     0.080    26.213     8.398
    20   7 N        1.848    -0.244    27.216     7.732
    21   6 C        2.962     0.082    26.180     8.393
    22   6 C        2.988    -0.004    28.122     8.699
    23   6 C        2.921    -0.029    28.720     8.788
    24   6 C        2.921    -0.035    28.871     8.811
    25   6 C        2.975     0.012    27.745     8.640
    26   6 C        2.977     0.001    28.003     8.680
    27   6 C        2.924    -0.034    28.835     8.806
    28   6 C        2.920    -0.049    29.212     8.863
    29   6 C        2.924     0.064    26.568     8.453
    30   7 N        2.752    -0.074    22.685     7.074
    31   6 C        2.924     0.065    26.543     8.449
    32   6 C        2.922    -0.047    29.177     8.858
    33   6 C        2.920    -0.029    28.729     8.790
    34   6 C        2.919    -0.038    28.949     8.823
    35   6 C        2.920    -0.029    28.729     8.790
    36   6 C        2.922    -0.047    29.176     8.858
    37   6 C        2.924     0.065    26.541     8.448
    38   6 C        2.922    -0.047    29.176     8.858
    39   6 C        2.919    -0.029    28.732     8.790
    40   6 C        2.919    -0.038    28.952     8.824
    41   6 C        2.920    -0.029    28.730     8.790
    42   6 C        2.922    -0.047    29.176     8.858
    43   6 C        2.921    -0.049    29.213     8.863
    44   6 C        2.924    -0.034    28.851     8.809
    45   6 C        2.930    -0.041    29.024     8.835
    46   6 C        2.975     0.005    27.906     8.665
    47   6 C        2.975     0.005    27.901     8.664
    48   6 C        2.930    -0.041    29.025     8.835
    49   6 C        2.975     0.012    27.743     8.640
    50   6 C        2.977     0.001    28.001     8.680
    51   6 C        2.924    -0.034    28.850     8.808
    52   6 C        2.921    -0.049    29.210     8.863
    53   6 C        2.924     0.064    26.567     8.453
    54   7 N        2.752    -0.074    22.685     7.074
    55   6 C        2.924     0.065    26.541     8.449
    56   6 C        2.922    -0.047    29.179     8.858
    57   6 C        2.919    -0.029    28.732     8.790
    58   6 C        2.919    -0.038    28.953     8.824
    59   6 C        2.920    -0.029    28.730     8.790
    60   6 C        2.922    -0.047    29.178     8.858
    61   6 C        2.924     0.065    26.544     8.449
    62   6 C        2.922    -0.047    29.177     8.858
    63   6 C        2.920    -0.029    28.729     8.790
    64   6 C        2.919    -0.038    28.949     8.823
    65   6 C        2.920    -0.029    28.729     8.790
    66   6 C        2.922    -0.047    29.177     8.858
    67   6 C        2.920    -0.049    29.209     8.863
    68   6 C        2.924    -0.034    28.835     8.806
    69   6 C        2.921    -0.035    28.873     8.812
    70   6 C        2.921    -0.029    28.717     8.788
    71   6 C        2.988    -0.004    28.126     8.700
    72   6 C        2.960     0.083    26.152     8.388
    73   7 N        1.849    -0.246    27.265     7.739
    74   6 C        2.964     0.080    26.210     8.397
    75   6 C        2.924    -0.049    29.205     8.862
    76   6 C        2.924    -0.033    28.832     8.806
    77   6 C        2.920    -0.049    29.213     8.863
    78   6 C        2.922    -0.047    29.174     8.857
    79   6 C        2.920    -0.029    28.729     8.790
    80   1 H        0.926     0.031     2.578     2.511
    81   1 H        0.926     0.032     2.561     2.503
    82   1 H        0.926     0.032     2.559     2.502
    83   1 H        0.926     0.032     2.562     2.503
    84   1 H        0.926     0.032     2.562     2.503
    85   1 H        0.926     0.031     2.578     2.511
    86   1 H        0.926     0.032     2.555     2.500
    87   1 H        0.926     0.032     2.552     2.498
    88   1 H        0.926     0.034     2.537     2.491
    89   1 H        0.926     0.037     2.490     2.468
    90   1 H        0.926     0.038     2.471     2.458
    91   1 H        0.926     0.049     2.337     2.390
    92   1 H        0.926     0.057     2.231     2.336
    93   1 H        0.926     0.035     2.522     2.483
    94   1 H        0.926     0.035     2.520     2.482
    95   1 H        0.926     0.032     2.551     2.498
    96   1 H        0.926     0.032     2.564     2.504
    97   1 H        0.926     0.032     2.564     2.504
    98   1 H        0.926     0.030     2.580     2.512
    99   1 H        0.926     0.032     2.561     2.502
   100   1 H        0.926     0.032     2.557     2.501
   101   1 H        0.926     0.032     2.563     2.504
   102   1 H        0.926     0.032     2.565     2.504
   103   1 H        0.926     0.030     2.585     2.514
   104   1 H        0.926     0.032     2.564     2.504
   105   1 H        0.926     0.032     2.562     2.503
   106   1 H        0.926     0.032     2.557     2.501
   107   1 H        0.926     0.033     2.539     2.492
   108   1 H        0.926     0.036     2.506     2.476
   109   1 H        0.926     0.036     2.504     2.475
   110   1 H        0.926     0.033     2.538     2.491
   111   1 H        0.926     0.032     2.556     2.500
   112   1 H        0.926     0.032     2.565     2.504
   113   1 H        0.926     0.031     2.566     2.505
   114   1 H        0.926     0.030     2.585     2.514
   115   1 H        0.926     0.032     2.565     2.504
   116   1 H        0.926     0.032     2.562     2.503
   117   1 H        0.926     0.032     2.559     2.501
   118   1 H        0.926     0.032     2.561     2.503
   119   1 H        0.926     0.030     2.581     2.512
   120   1 H        0.926     0.032     2.564     2.504
   121   1 H        0.926     0.032     2.563     2.504
   122   1 H        0.926     0.033     2.551     2.497
   123   1 H        0.926     0.035     2.518     2.482
   124   1 H        0.926     0.035     2.522     2.483
   125   1 H        0.926     0.057     2.229     2.335
   126   1 H        0.926     0.049     2.331     2.387
   127   1 H        0.926     0.035     2.522     2.483
   128   1 H        0.926     0.033     2.547     2.496
   129   1 H        0.926     0.032     2.559     2.502
   130   1 H        0.926     0.032     2.560     2.502

molecular dipole:
                 x           y           z       tot (Debye)
 q only:       -0.303      -0.244       0.003
   full:       -0.313      -0.236       0.001       0.998

 projected vibrational frequencies (cm⁻¹)
eigval :       -0.00    -0.00    -0.00     0.00     0.00     0.00
eigval :        5.44     6.53     7.52     9.23     9.89    10.80
eigval :       17.37    22.22    23.95    36.85    37.21    38.19
eigval :       39.75    46.70    47.04    49.68    50.62    56.45
eigval :       58.54    60.65    67.10    69.81    73.96    77.70
eigval :       82.06    85.66    93.65    99.95   101.23   104.85
eigval :      113.14   114.18   123.64   140.34   155.07   161.17
eigval :      181.09   190.17   196.83   206.91   212.33   216.14
eigval :      225.69   232.40   234.01   234.56   235.37   271.40
eigval :      279.18   286.72   295.92   303.43   309.27   317.45
eigval :      319.02   326.47   334.18   338.14   350.23   362.65
eigval :      368.96   374.05   378.06   378.19   378.64   379.26
eigval :      380.38   380.46   383.86   387.99   389.62   390.14
eigval :      396.44   399.69   401.74   412.55   424.17   430.98
eigval :      436.14   439.72   448.69   455.91   463.01   473.24
eigval :      482.51   489.16   490.85   491.32   491.38   505.36
eigval :      511.20   516.85   520.27   566.14   570.34   573.06
eigval :      582.36   582.87   583.97   585.11   585.30   588.64
eigval :      591.44   592.72   593.77   593.98   595.48   596.73
eigval :      604.21   614.66   618.11   620.52   631.24   636.45
eigval :      643.82   659.71   659.83   660.21   660.84   665.85
eigval :      667.79   672.03   676.97   683.27   689.12   690.22
eigval :      700.77   702.32   713.21   721.28   734.99   741.60
eigval :      757.19   757.24   757.30   759.06   761.04   762.00
eigval :      769.71   778.03   805.67   811.11   811.53   827.00
eigval :      832.71   838.70   839.14   861.76   867.77   868.27
eigval :      868.84   872.78   874.70   874.75   874.96   876.08
eigval :      876.35   877.06   877.61   879.13   890.40   892.24
eigval :      892.34   892.51   893.09   893.67   896.44   910.27
eigval :      910.30   910.32   914.82   916.26   917.80   917.81
eigval :      922.08   925.29   925.42   927.67   927.69   927.71
eigval :      927.73   928.00   928.09   928.71   929.17   929.21
eigval :      929.55   929.63   929.81   930.03   930.53   930.87
eigval :      931.38   934.11   954.02   983.96   984.85   985.34
eigval :     1005.06  1005.11  1005.15  1011.31  1016.73  1019.81
eigval :     1044.90  1062.76  1068.46  1083.08  1083.09  1083.26
eigval :     1084.17  1084.23  1084.30  1084.51  1101.64  1121.90
eigval :     1121.95  1122.02  1124.13  1124.23  1124.34  1142.11
eigval :     1142.61  1143.55  1152.12  1155.26  1158.48  1180.19
eigval :     1180.72  1180.78  1180.79  1180.81  1181.44  1187.77
eigval :     1187.92  1188.04  1195.58  1195.61  1196.01  1197.33
eigval :     1197.53  1198.13  1209.65  1212.22  1217.07  1217.74
eigval :     1222.34  1231.70  1245.27  1268.80  1270.30  1271.29
eigval :     1272.76  1273.98  1277.58  1278.84  1278.85  1279.95
eigval :     1282.08  1282.89  1282.99  1296.21  1304.98  1309.86
eigval :     1313.53  1315.09  1315.88  1319.65  1319.87  1320.09
eigval :     1321.74  1326.06  1326.57  1326.98  1327.10  1327.57
eigval :     1328.43  1328.51  1333.29  1333.51  1341.45  1357.66
eigval :     1378.79  1394.56  1407.77  1409.43  1413.77  1415.55
eigval :     1432.94  1434.77  1436.59  1436.89  1438.36  1443.23
eigval :     1443.58  1443.80  1458.46  1471.03  1471.95  1472.53
eigval :     1474.42  1476.35  1476.56  1477.03  1482.40  1494.14
eigval :     1496.64  1499.13  1506.73  1528.12  1546.43  1550.66
eigval :     1555.33  1557.52  1560.19  1577.32  1577.33  1577.43
eigval :     1578.73  1581.18  1581.34  1581.50  1586.42  1589.28
eigval :     1594.85  1594.96  1595.24  1597.19  1598.70  1599.79
eigval :     1602.51  1603.73  1606.60  3075.15  3075.23  3075.90
eigval :     3075.98  3076.00  3076.29  3076.39  3076.44  3076.88
eigval :     3076.89  3076.90  3077.25  3077.28  3077.37  3077.52
eigval :     3078.93  3079.02  3080.51  3081.13  3083.58  3083.65
eigval :     3085.88  3085.98  3086.07  3086.72  3086.78  3086.99
eigval :     3088.42  3088.50  3088.97  3089.44  3089.62  3089.81
eigval :     3090.06  3090.09  3090.62  3091.30  3091.37  3092.26
eigval :     3095.95  3096.68  3097.06  3097.15  3097.46  3097.84
eigval :     3097.85  3097.89  3098.02  3106.96  3107.22  3109.90

   temp. (K)  partition function   enthalpy   heat capacity  entropy
                                   cal/mol     cal/K/mol   cal/K/mol   J/K/mol
 298.15  VIB  0.654E+33            38161.662    235.716    243.803
         ROT  0.787E+09              888.752      2.981     43.687
         INT  0.515E+42            39050.415    238.697    287.490
         TR   0.311E+29             1481.254      4.968     46.591
         TOT                       40531.6686   243.6652   334.0804  1397.7925

       T/K    H(0)-H(T)+PV         H(T)/Eh          T*S/Eh         G(T)/Eh
   ------------------------------------------------------------------------
    298.15    0.645913E-01    0.107110E+01    0.158732E+00    0.912372E+00
   ------------------------------------------------------------------------

         :::::::::::::::::::::::::::::::::::::::::::::::::::::
         ::                  THERMODYNAMIC                  ::
         :::::::::::::::::::::::::::::::::::::::::::::::::::::
         :: total free energy        -198.226602884304 Eh   ::
         ::.................................................::
         :: total energy             -199.138974661806 Eh   ::
         :: zero point energy           1.006512848250 Eh   ::
         :: G(RRHO) w/o ZPVE           -0.094141070747 Eh   ::
         :: G(RRHO) contrib.            0.912371777502 Eh   ::
         :::::::::::::::::::::::::::::::::::::::::::::::::::::

           -------------------------------------------------
          | TOTAL ENERGY             -199.138974661806 Eh   |
          | TOTAL ENTHALPY           -198.067870488267 Eh   |
          | TOTAL FREE ENERGY        -198.226602884304 Eh   |
          | GRADIENT NORM               0.000060582587 Eh/α |
          | HOMO-LUMO GAP               1.287649970241 eV   |
           -------------------------------------------------

 * finished run on 2025/07/19 at 19:58:56.799
