   * xtb version 6.7.1 (edcfbbe) compiled by 'albert@albert-system' on 2024-07-22

   ID    Z sym.   atoms
    1    6 C      1-4, 6-19, 21-29, 31-53, 55-72, 74-79
    2    7 N      5, 20, 30, 54, 73
    3    1 H      80-130

          program call               : xtb data2507/gas/DBP-3TPA/DBP-3TPA_gas_S0_finalOpt.xtbopt.xyz --gfn 2 --spinpol --tblite --uhf 2 --ohess vtight --parallel 40 --molden --ceasefiles --namespace data2507/gas/DBP-3TPA/DBP-3TPA_gas_T1_preOpt
 * total energy  :  -199.0907383 Eh     change       -0.5766253E-08 Eh
 * total energy  :  -199.0940113 Eh     change       -0.3272993E-02 Eh
 * total energy  :  -199.0951851 Eh     change       -0.1173841E-02 Eh
 * total energy  :  -199.0953442 Eh     change       -0.1591051E-03 Eh
 * total energy  :  -199.0954086 Eh     change       -0.6434638E-04 Eh
 * total energy  :  -199.0954155 Eh     change       -0.6905780E-05 Eh
 * total energy  :  -199.0954215 Eh     change       -0.5994434E-05 Eh
 * total energy  :  -199.0954252 Eh     change       -0.3699958E-05 Eh
 * total energy  :  -199.0954282 Eh     change       -0.3021071E-05 Eh
 * total energy  :  -199.0954317 Eh     change       -0.3464355E-05 Eh
 * total energy  :  -199.0954600 Eh     change       -0.5227430E-06 Eh
 * total energy  :  -199.0954609 Eh     change       -0.8521688E-06 Eh
 * total energy  :  -199.0954620 Eh     change       -0.1089679E-05 Eh
 * total energy  :  -199.0954633 Eh     change       -0.1313820E-05 Eh
 * total energy  :  -199.0954645 Eh     change       -0.1254296E-05 Eh
 * total energy  :  -199.0954652 Eh     change       -0.6833459E-06 Eh
 * total energy  :  -199.0954662 Eh     change       -0.9421254E-06 Eh
 * total energy  :  -199.0954666 Eh     change       -0.4620097E-06 Eh
 * total energy  :  -199.0954666 Eh     change       -0.9743331E-08 Eh
   *** GEOMETRY OPTIMIZATION CONVERGED AFTER 44 ITERATIONS ***

 final structure:
================
130
 xtb: 6.7.1 (edcfbbe)
C           14.88224857674726        2.98746986783566       -0.05450503785051
C           15.03623434482271        1.80076776245626       -0.75256031998367
C           14.03867676437124        0.84571292030088       -0.73854121978890
C           12.86722622048137        1.06364871561481       -0.01316860134987
N           11.85562944534646        0.09729678348272        0.00811151763944
C           12.18765132774416       -1.26155269510245        0.03166656209573
C           13.29184000299700       -1.70714852884747        0.75848653921448
C           13.61890372373640       -3.04885911565626        0.77457219584464
C           12.85104122077209       -3.96734407957570        0.07741499861485
C           11.75071143131182       -3.53074522217951       -0.64222121903118
C           11.41991808485369       -2.19015430582163       -0.67135477463841
C           10.51411234654178        0.49007599530276        0.00278263783753
C            9.56044580966759       -0.22156589123803        0.73197772312888
C            8.23805298989042        0.16542117027184        0.71858033273453
C            7.81862142836075        1.28091362963247       -0.00794303932308
C            6.41416716079797        1.69559755897696       -0.01078578182947
C            6.06942709536602        3.04888641835497       -0.01265708095466
C            4.74911414608923        3.44913094539663       -0.00411726739830
C            3.71208479092271        2.51882040638667       -0.00288431485449
N            2.42825146501996        2.85685915581612        0.00297869627587
C            1.44915319227571        1.96326224454473        0.00051792304443
C            0.07886195827380        2.35692631656027        0.00803371283519
C           -0.24486119557260        3.72518796504031        0.01927678427245
C           -1.54726321699207        4.14271004818499        0.03048953699867
C           -2.59164325748177        3.20347700232182        0.03795553493503
C           -3.99348380116397        3.63246092096614        0.05771377451524
C           -4.42404471150325        4.72808652397053       -0.69001123231384
C           -5.74859678756157        5.11032478713455       -0.69648572618688
C           -6.69001518576818        4.41450109244416        0.06312384080907
N           -8.03606725231368        4.78976009990132        0.05451889725963
C           -8.38880953114186        6.14159188833666       -0.02270208508182
C           -9.50319116841767        6.54037005409477       -0.76079712417523
C           -9.85067466085604        7.87528298241106       -0.82985144780883
C           -9.09325680263616        8.83288866335056       -0.17527420924492
C           -7.98302645563470        8.44261715488580        0.55561247314628
C           -7.63198266607851        7.10934856048117        0.63778045153493
C           -9.03301608672750        3.80969361299312        0.12271018368355
C           -8.87087474757468        2.58868482652654       -0.53217502976440
C           -9.85337550037575        1.62110596782214       -0.45477474281515
C          -11.01390681830075        1.85504338633287        0.26466333628529
C          -11.18296114530309        3.06825585738784        0.91168786103587
C          -10.20215537817007        4.03870604673517        0.84810167926762
C           -6.26172583348028        3.33056501388892        0.83084211543361
C           -4.93911574442525        2.94516353555444        0.81933900778577
C           -2.27719353540542        1.85619424475784        0.02272951605194
C           -0.95752585660829        1.39466274623688        0.00516064621509
C           -0.61939151259189       -0.01011893006036       -0.01755848318851
C           -1.58515579357035       -1.02119578339874       -0.03447351623631
C           -1.25295263602242       -2.36412346885099       -0.04888037560025
C           -2.30700397119953       -3.38322807066059       -0.06507977363879
C           -3.46310722372353       -3.20235571386560       -0.82480204122513
C           -4.46664093470199       -4.14630236888308       -0.83141480408092
C           -4.35436364254290       -5.30421562558514       -0.06056491443641
N           -5.38235349836741       -6.25068771529722       -0.04682796559726
C           -6.71655201420481       -5.83339274642660       -0.11281547675140
C           -7.12692196352451       -4.66852503616003        0.53583876268319
C           -8.44294269157697       -4.25624964005691        0.46062510404582
C           -9.37177025240329       -4.99867089239312       -0.25015444740902
C           -8.97113467577034       -6.15971525985530       -0.89088159464114
C           -7.65535025703386       -6.57528959381915       -0.82966845531623
C           -5.07922215470596       -7.61465542004876        0.03101466582546
C           -3.96922874260110       -8.13167480183187       -0.63686197313798
C           -3.67270989264210       -9.47810249146604       -0.55451876057880
C           -4.47701433027321      -10.33045188521679        0.18419470597002
C           -5.58276259718009       -9.82262273362855        0.84645948477650
C           -5.88320316711294       -8.47633515270309        0.77704365456842
C           -3.19797063198638       -5.49460823010432        0.69701423412246
C           -2.19140732115909       -4.55269279263781        0.68572114964616
C            0.10401446714160       -2.72626024629434       -0.04243440049699
C            1.07432588780368       -1.76216460479337       -0.03174968690677
C            0.74075980407369       -0.39657863004286       -0.02010507145780
C            1.78403254302212        0.57685761239392       -0.01016053425690
N            3.05986057309581        0.22494407952040       -0.01198279927199
C            4.05528269439367        1.11043901153752       -0.00615939400742
C            5.39393360257424        0.74530378849385       -0.00581069391425
C            8.77936256989417        1.99068600475674       -0.72976803942777
C           10.10140168338780        1.60218269128186       -0.73231836901872
C           12.71871355370454        2.25886076398014        0.69063972611876
C           13.71891902152442        3.21087310902375        0.66383611459437
H           15.66305668797558        3.73257814128801       -0.07022710259777
H           15.93724773260224        1.62024650796087       -1.32027085580917
H           14.15681676251730       -0.07429160340182       -1.29221338715472
H           13.88616206872403       -0.99450507704193        1.31152460363821
H           14.47529412369776       -3.38058241767373        1.34314135426325
H           13.10830374482780       -5.01548749225083        0.09483094856094
H           11.14940265817169       -4.23879635003204       -1.19337784326617
H           10.56805559647723       -1.85091369309845       -1.24233112063225
H            9.86906234316502       -1.07641550445986        1.31605485587354
H            7.52089725639124       -0.38574370446485        1.30845472349072
H            6.84696276437280        3.79730308354916        0.00738707164769
H            4.48864817433303        4.49629415584240        0.00602415866846
H            0.56796149693171        4.43571986735924        0.02352560173001
H           -1.77866372141481        5.19712569000775        0.05858747858580
H           -3.71607357779372        5.26538386310549       -1.30371662976735
H           -6.06787361091720        5.94708758592773       -1.30055101149266
H          -10.08954033282046        5.79674918135951       -1.28058483962503
H          -10.71486960098456        8.17061376117926       -1.40661502959103
H           -9.36631561118132        9.87550556205034       -0.23422643828941
H           -7.38984854583148        9.18158265871259        1.07405242522787
H           -6.77240379981908        6.80639860238390        1.21762915748965
H           -7.97195136667257        2.40785100629807       -1.10321321867513
H           -9.71495049461564        0.68058505229037       -0.96776501450211
H          -11.78112304770494        1.09778783238522        0.32035414788826
H          -12.08236478497857        3.25786949780393        1.47896555557107
H          -10.33192753946726        4.97942216288768        1.36295832834197
H           -6.97650797257206        2.79640627648356        1.43978382814115
H           -4.62567158755834        2.11561712904787        1.43609820933031
H           -3.09096869939373        1.14908753349864        0.00256439954222
H           -2.63136951225703       -0.76115824693685       -0.01425658292189
H           -3.56173988923936       -2.32270046823941       -1.44390183581938
H           -5.34738004032708       -3.99667046766652       -1.43882875177081
H           -6.40748460927185       -4.09359937013240        1.10039171858842
H           -8.74684317960075       -3.35263358937926        0.96861122131952
H          -10.40019977143765       -4.67525124987156       -0.30401572616643
H           -9.68712675409204       -6.74273696884666       -1.45136658755724
H           -7.34375418989537       -7.47503285306881       -1.33979389912208
H           -3.34690717515638       -7.47081734123551       -1.22242809317476
H           -2.81176241318483       -9.86605123343240       -1.07890610942737
H           -4.24393994660506      -11.38272627036067        0.24325880708141
H           -6.21246762583029      -10.47862789222927        1.42941731059192
H           -6.74029439692984       -8.08100056389768        1.30247044125446
H           -3.10115112541932       -6.38354907499585        1.30316423154709
H           -1.31530897410317       -4.70812749637225        1.29796688591970
H            0.37712998054468       -3.77064809454668       -0.07041069793093
H            2.12131393048897       -2.02549180940652       -0.03630161032968
H            5.62640327828531       -0.30807922427938       -0.02855782331249
H            8.47891288640260        2.84028427223672       -1.32491980313841
H           10.82705965652412        2.15335087672990       -1.31264572483023
H           11.81714306824372        2.43068142224187        1.26026693773870
H           13.59244146770211        4.13073739308805        1.21570287498731

 projected vibrational frequencies (cm⁻¹)
eigval :       -0.00    -0.00    -0.00     0.00     0.00     0.00
eigval :        5.68     7.11     7.53     9.14     9.75    10.68
eigval :       17.31    22.09    24.30    36.68    37.36    38.13
eigval :       39.96    47.05    47.22    50.17    50.61    56.94
eigval :       58.33    60.72    67.75    70.61    74.32    79.41
eigval :       82.00    85.95    93.53    99.01   102.22   104.53
eigval :      113.84   119.26   124.01   140.54   154.89   160.32
eigval :      178.52   183.65   196.87   208.18   210.93   212.13
eigval :      225.44   228.07   233.74   233.98   235.04   268.22
eigval :      272.50   282.47   296.19   300.47   308.15   314.83
eigval :      319.09   325.67   332.51   334.21   350.72   362.45
eigval :      366.23   370.11   377.59   378.00   378.19   378.76
eigval :      380.02   380.18   382.52   387.63   389.56   391.17
eigval :      396.18   401.48   402.97   411.39   419.95   425.37
eigval :      429.62   432.70   442.31   454.07   467.06   479.30
eigval :      481.16   488.31   490.21   491.26   492.46   505.82
eigval :      509.14   515.52   519.37   560.78   563.88   571.53
eigval :      581.04   582.09   583.61   584.81   585.02   588.10
eigval :      589.05   590.53   593.58   593.88   594.08   594.32
eigval :      602.13   612.75   613.94   616.50   622.43   626.20
eigval :      630.97   642.49   658.53   659.57   659.74   659.98
eigval :      664.92   667.62   670.82   673.69   678.94   687.82
eigval :      688.71   694.92   696.14   707.43   720.23   720.89
eigval :      735.19   756.84   756.97   757.05   757.30   760.76
eigval :      761.29   770.31   796.12   804.37   808.29   809.28
eigval :      817.67   825.35   832.62   832.78   857.15   867.04
eigval :      867.30   869.50   871.96   874.11   874.33   874.57
eigval :      875.54   876.14   876.59   877.09   884.92   887.85
eigval :      892.02   892.05   892.11   892.85   893.54   895.06
eigval :      909.58   910.20   910.24   910.32   914.89   915.00
eigval :      917.02   919.20   919.40   926.59   926.92   927.44
eigval :      927.46   927.54   927.58   928.20   928.80   928.94
eigval :      929.21   929.34   929.45   929.79   929.94   930.07
eigval :      930.66   932.67   934.28   982.52   984.88   985.41
eigval :     1004.81  1004.92  1004.99  1007.34  1018.53  1019.95
eigval :     1037.56  1059.77  1075.31  1082.14  1083.25  1083.40
eigval :     1083.50  1084.15  1084.25  1084.27  1099.93  1122.04
eigval :     1122.09  1122.11  1124.41  1124.42  1124.48  1138.71
eigval :     1142.36  1143.09  1145.78  1155.00  1158.21  1180.16
eigval :     1180.56  1180.57  1180.73  1180.74  1181.21  1186.98
eigval :     1187.31  1187.50  1195.35  1195.37  1195.70  1196.99
eigval :     1197.25  1197.58  1211.16  1213.40  1217.69  1220.09
eigval :     1222.10  1224.19  1245.08  1252.15  1260.30  1268.11
eigval :     1272.28  1272.70  1273.62  1277.31  1278.67  1278.76
eigval :     1279.02  1279.72  1282.17  1283.82  1286.36  1302.49
eigval :     1305.05  1312.91  1314.98  1315.07  1319.89  1320.17
eigval :     1320.52  1321.02  1325.68  1326.73  1326.78  1327.14
eigval :     1327.29  1327.79  1330.52  1331.35  1339.84  1346.26
eigval :     1360.64  1374.29  1398.27  1402.96  1409.05  1413.54
eigval :     1416.39  1423.44  1426.21  1436.18  1436.41  1436.43
eigval :     1443.34  1443.61  1443.79  1461.97  1466.79  1470.94
eigval :     1471.54  1471.99  1475.28  1475.65  1476.22  1481.67
eigval :     1491.11  1496.15  1498.95  1512.75  1520.39  1535.52
eigval :     1544.03  1554.01  1555.34  1555.83  1574.44  1576.05
eigval :     1576.46  1576.63  1580.06  1580.20  1580.60  1581.79
eigval :     1592.80  1593.45  1593.83  1594.21  1595.95  1596.47
eigval :     1600.07  1601.62  1602.12  3075.48  3075.66  3076.02
eigval :     3076.10  3076.18  3076.36  3076.41  3076.46  3076.93
eigval :     3077.02  3077.10  3077.28  3077.40  3077.52  3077.80
eigval :     3078.37  3078.41  3079.30  3081.70  3081.86  3085.32
eigval :     3086.05  3086.19  3086.32  3087.04  3087.12  3087.43
eigval :     3088.37  3088.40  3089.11  3089.34  3089.63  3089.94
eigval :     3090.15  3090.21  3090.26  3090.64  3090.74  3091.14
eigval :     3094.50  3094.71  3095.05  3096.79  3097.02  3097.16
eigval :     3097.35  3097.56  3097.58  3097.78  3098.26  3108.96

   temp. (K)  partition function   enthalpy   heat capacity  entropy
                                   cal/mol     cal/K/mol   cal/K/mol   J/K/mol
 298.15  VIB  0.650E+33            38320.937    236.936    244.516
         ROT  0.794E+09              888.752      2.981     43.704
         INT  0.516E+42            39209.689    239.917    288.220
         TR   0.311E+29             1481.254      4.968     46.591
         TOT                       40690.9429   244.8855   334.8111  1400.8496

       T/K    H(0)-H(T)+PV         H(T)/Eh          T*S/Eh         G(T)/Eh
   ------------------------------------------------------------------------
    298.15    0.648451E-01    0.106892E+01    0.159080E+00    0.909840E+00
   ------------------------------------------------------------------------

         :::::::::::::::::::::::::::::::::::::::::::::::::::::
         ::                  THERMODYNAMIC                  ::
         :::::::::::::::::::::::::::::::::::::::::::::::::::::
         :: total free energy        -198.185626991242 Eh   ::
         ::.................................................::
         :: total energy             -199.095466627235 Eh   ::
         :: zero point energy           1.004074045358 Eh   ::
         :: G(RRHO) w/o ZPVE           -0.094234409365 Eh   ::
         :: G(RRHO) contrib.            0.909839635993 Eh   ::
         :::::::::::::::::::::::::::::::::::::::::::::::::::::

           -------------------------------------------------
          | TOTAL ENERGY             -199.095466627235 Eh   |
          | TOTAL ENTHALPY           -198.026547436722 Eh   |
          | TOTAL FREE ENERGY        -198.185626991242 Eh   |
          | GRADIENT NORM               0.000054102359 Eh/α |
           -------------------------------------------------

 * finished run on 2025/07/19 at 19:59:25.869
