   * xtb version 6.7.1 (edcfbbe) compiled by 'albert@albert-system' on 2024-07-22

   ID    Z sym.   atoms
    1    7 N      1, 7, 14, 20
    2    6 C      2-6, 8-13, 15-19, 21-30
    3    1 H      31-46

          program call               : xtb data2507/toluene/DHPZ-2BN/DHPZ-2BN.xyz --gfn 2 --gbsa toluene --ohess vtight --parallel 40 --molden --ceasefiles --namespace data2507/toluene/DHPZ-2BN/DHPZ-2BN_toluene_S0_preOpt
      * Solvation model:               GBSA
        Solvent                        toluene
        Solvent mass                       9.2140E+01 g/mol
          :  Hamiltonian                  GFN2-xTB          :
 * total energy  :   -75.4897439 Eh     change       -0.5158682E-09 Eh
 * total energy  :   -75.5017152 Eh     change       -0.1197130E-01 Eh
 * total energy  :   -75.5051840 Eh     change       -0.3468764E-02 Eh
 * total energy  :   -75.5055975 Eh     change       -0.4135122E-03 Eh
 * total energy  :   -75.5057348 Eh     change       -0.1373350E-03 Eh
 * total energy  :   -75.5057429 Eh     change       -0.8037671E-05 Eh
 * total energy  :   -75.5057443 Eh     change       -0.1447754E-05 Eh
 * total energy  :   -75.5057432 Eh     change        0.1090787E-05 Eh
 * total energy  :   -75.5057448 Eh     change       -0.1555362E-05 Eh
 * total energy  :   -75.5057445 Eh     change        0.2729782E-06 Eh
 * total energy  :   -75.5057448 Eh     change       -0.3266434E-06 Eh
 * total energy  :   -75.5057448 Eh     change       -0.3079720E-08 Eh
   *** GEOMETRY OPTIMIZATION CONVERGED AFTER 12 ITERATIONS ***

 final structure:
================
46
 xtb: 6.7.1 (edcfbbe)
N           -8.14104161621135       -0.00017471003321        0.00008204034695
C           -6.99354277427942       -0.00011058904578       -0.00012131844889
C           -5.57987809082227       -0.00006796901995       -0.00003828552859
C           -4.88446271128466       -0.00005161234116       -1.21098320299617
C           -3.50368926770458       -0.00000922604258       -1.20627929000478
C           -2.80894145576312        0.00001468314021        0.00001563238681
N           -1.38959344749156        0.00002976034454        0.00003387206242
C           -0.70322151124922        1.21401957213667        0.00001509133621
C           -1.38107002171424        2.42257069872660        0.00005055255617
C           -0.68853484930942        3.62823129160424        0.00003190671241
C            0.68850925669989        3.62823528086152       -0.00002524226042
C            1.38105320820630        2.42257900044449       -0.00006071478383
C            0.70321435604201        1.21402288439991       -0.00004085039421
N            1.38959339509165        0.00003579709733       -0.00008154667644
C            2.80894140381126        0.00002317072361       -0.00003436281236
C            3.50367076318256       -0.00002565516422        1.20627146109202
C            4.88444628882487       -0.00005145411086        1.21099500072887
C            5.57987895693294       -0.00003189166479        0.00005667179394
C            6.99354351470163       -0.00006044050360        0.00010863586567
N            8.14103770856327       -0.00012716771514        0.00012979695869
C            4.88452659054755        0.00002054331343       -1.21092693475916
C            3.50375078536218        0.00004749821606       -1.20629424451812
C            0.70322079903904       -1.21395285157526       -0.00004270825800
C            1.38106939434411       -2.42250317887540       -0.00007377851249
C            0.68853476975028       -3.62816373184788       -0.00004291508572
C           -0.68850949231543       -3.62816770223635        0.00001999016933
C           -1.38105287561878       -2.42251146284352        0.00004568426104
C           -0.70321386573849       -1.21395618024238        0.00001313061228
C           -3.50373158789297        0.00000337889651        1.20628698850603
C           -4.88450903078991       -0.00003924834420        1.21093903084591
H           -5.43050689407164       -0.00007278867481       -2.14251021306009
H           -2.95457691596541        0.00000247883225       -2.13579894436590
H           -2.46024881565366        2.42861781305174        0.00008914684263
H           -1.23976884036212        4.55611516052517        0.00006146026426
H            1.23973672386185        4.55612268272081       -0.00004457461439
H            2.46023149791240        2.42863362028388       -0.00010528078691
H            2.95454419576284       -0.00003325562190        2.13578319623346
H            5.43047403331199       -0.00009659936646        2.14253268570522
H            5.43061404554634        0.00002741952300       -2.14242862456167
H            2.95468396648634        0.00009559047760       -2.13584101660389
H            2.46024811768477       -2.42855088341896       -0.00012459628457
H            1.23976950119544       -4.55604697591038       -0.00007101512707
H           -1.23973773586265       -4.55605446982941        0.00004679605394
H           -2.46023114794549       -2.42856672180576        0.00008674660621
H           -2.95464687212009        0.00002480567966        2.13582370335517
H           -5.43058345269505       -0.00005136476527        2.14244943914800

          :  Hamiltonian                  GFN2-xTB          :
         :: gradient norm              0.000031690459 Eh/a0 ::
         :: HOMO-LUMO gap              1.239726406081 eV    ::
         :: SCC energy               -76.961648890526 Eh    ::
         :: -> dispersion             -0.063041527327 Eh    ::
         :: -> Gsolv                  -0.037500248629 Eh    ::
         :: repulsion energy           1.455904044161 Eh    ::

    * Orbital Energies and Occupations

         #    Occupation            Energy/Eh            Energy/eV
      -------------------------------------------------------------
         1        2.0000           -0.6846593             -18.6305
       ...           ...                  ...                  ...
        58        2.0000           -0.4379151             -11.9163
        59        2.0000           -0.4376466             -11.9090
        60        2.0000           -0.4375126             -11.9053
        61        2.0000           -0.4359327             -11.8623
        62        2.0000           -0.4359137             -11.8618
        63        2.0000           -0.4345746             -11.8254
        64        2.0000           -0.4273268             -11.6282
        65        2.0000           -0.4267114             -11.6114
        66        2.0000           -0.4241815             -11.5426
        67        2.0000           -0.4125371             -11.2257
        68        2.0000           -0.4104363             -11.1685
        69        2.0000           -0.3827388             -10.4149
        70        2.0000           -0.3314245              -9.0185 (HOMO)
        71                         -0.2858655              -7.7788 (LUMO)
        72                         -0.2856914              -7.7741
        73                         -0.2546402              -6.9291
        74                         -0.2546148              -6.9284
        75                         -0.2354348              -6.4065
        76                         -0.2274537              -6.1893
        77                         -0.2199996              -5.9865
        78                         -0.2199685              -5.9856
        79                         -0.2089371              -5.6855
        80                         -0.1921425              -5.2285
        81                         -0.1881277              -5.1192
       ...                                ...                  ...
       136                          1.1529012              31.3720
      -------------------------------------------------------------
                  HL-Gap            0.0455591 Eh            1.2397 eV

     #   Z          covCN         q      C6AA      α(0)
     1   7 N        0.911    -0.260    26.747     7.480
     2   6 C        1.912     0.120    28.149     8.568
     3   6 C        2.973     0.019    27.575     8.614
     4   6 C        2.925    -0.016    28.414     8.742
     5   6 C        2.920    -0.032    28.805     8.801
     6   6 C        2.923     0.080    26.218     8.397
     7   7 N        2.752    -0.084    22.865     7.102
     8   6 C        2.925     0.048    26.915     8.508
     9   6 C        2.923    -0.062    29.554     8.915
    10   6 C        2.918    -0.043    29.059     8.840
    11   6 C        2.918    -0.043    29.059     8.840
    12   6 C        2.923    -0.062    29.554     8.915
    13   6 C        2.925     0.048    26.915     8.508
    14   7 N        2.752    -0.084    22.865     7.102
    15   6 C        2.923     0.080    26.218     8.397
    16   6 C        2.920    -0.032    28.805     8.801
    17   6 C        2.925    -0.016    28.414     8.742
    18   6 C        2.973     0.019    27.575     8.614
    19   6 C        1.912     0.120    28.149     8.568
    20   7 N        0.911    -0.260    26.747     7.480
    21   6 C        2.925    -0.016    28.414     8.742
    22   6 C        2.920    -0.032    28.805     8.801
    23   6 C        2.925     0.048    26.915     8.508
    24   6 C        2.923    -0.062    29.554     8.915
    25   6 C        2.918    -0.043    29.059     8.840
    26   6 C        2.918    -0.043    29.059     8.840
    27   6 C        2.923    -0.062    29.554     8.915
    28   6 C        2.925     0.048    26.915     8.508
    29   6 C        2.920    -0.032    28.805     8.801
    30   6 C        2.925    -0.016    28.414     8.742
    31   1 H        0.926     0.055     2.254     2.348
    32   1 H        0.926     0.058     2.223     2.332
    33   1 H        0.926     0.025     2.657     2.549
    34   1 H        0.926     0.029     2.601     2.522
    35   1 H        0.926     0.029     2.601     2.522
    36   1 H        0.926     0.025     2.657     2.549
    37   1 H        0.926     0.058     2.223     2.332
    38   1 H        0.926     0.055     2.254     2.348
    39   1 H        0.926     0.055     2.254     2.348
    40   1 H        0.926     0.058     2.223     2.332
    41   1 H        0.926     0.025     2.657     2.549
    42   1 H        0.926     0.029     2.601     2.522
    43   1 H        0.926     0.029     2.601     2.522
    44   1 H        0.926     0.025     2.657     2.549
    45   1 H        0.926     0.058     2.223     2.332
    46   1 H        0.926     0.055     2.254     2.348

molecular dipole:
                 x           y           z       tot (Debye)
 q only:        0.000       0.000      -0.000
   full:        0.000       0.000      -0.000       0.001

 projected vibrational frequencies (cm⁻¹)
eigval :       -0.00    -0.00    -0.00    -0.00     0.00     0.00
eigval :      -47.60   -37.17    15.46    25.52    28.98    38.29
eigval :       42.04   106.02   113.58   119.88   120.92   132.93
eigval :      167.08   173.97   191.31   242.17   243.46   256.91
eigval :      265.85   346.39   359.08   360.28   366.45   381.39
eigval :      398.36   410.51   419.83   441.71   447.23   463.17
eigval :      488.55   503.81   511.33   532.01   532.09   533.02
eigval :      549.01   549.76   588.46   590.81   618.42   618.61
eigval :      642.27   651.59   651.86   688.15   692.85   703.09
eigval :      769.53   770.16   773.01   794.46   813.80   819.03
eigval :      852.54   852.70   868.13   868.72   885.03   885.61
eigval :      890.19   910.51   910.99   918.41   919.01   920.65
eigval :      921.33   928.27   928.37   945.70  1013.17  1018.45
eigval :     1104.47  1105.56  1121.09  1124.74  1127.29  1127.60
eigval :     1176.09  1178.45  1179.66  1180.13  1185.75  1199.57
eigval :     1225.99  1231.88  1239.58  1256.42  1257.70  1260.13
eigval :     1270.05  1299.96  1300.07  1300.87  1309.60  1322.77
eigval :     1364.98  1370.33  1392.82  1393.13  1424.27  1437.62
eigval :     1471.68  1474.80  1496.42  1514.91  1547.97  1548.14
eigval :     1554.24  1578.28  1579.61  1583.21  1589.00  1598.74
eigval :     2366.31  2366.57  3080.88  3080.96  3087.49  3087.77
eigval :     3088.34  3088.35  3089.48  3089.77  3096.32  3096.47
eigval :     3098.94  3099.04  3100.09  3100.26  3102.30  3103.75

   temp. (K)  partition function   enthalpy   heat capacity  entropy
                                   cal/mol     cal/K/mol   cal/K/mol   J/K/mol
 298.15  VIB  0.117E+10            12547.387     81.998     75.539
         ROT  0.456E+07              888.752      2.981     33.451
         INT  0.533E+16            13436.140     84.979    108.991
         TR   0.729E+28             1481.254      4.968     43.712
         TOT                       14917.3937    89.9472   152.7029   638.9088

       T/K    H(0)-H(T)+PV         H(T)/Eh          T*S/Eh         G(T)/Eh
   ------------------------------------------------------------------------
    298.15    0.237724E-01    0.362606E+00    0.725541E-01    0.290052E+00
   ------------------------------------------------------------------------

         :::::::::::::::::::::::::::::::::::::::::::::::::::::
         ::                  THERMODYNAMIC                  ::
         :::::::::::::::::::::::::::::::::::::::::::::::::::::
         :: total free energy         -75.215692588115 Eh   ::
         ::.................................................::
         :: total energy              -75.505744846374 Eh   ::
         :: zero point energy           0.338833943060 Eh   ::
         :: G(RRHO) w/o ZPVE           -0.048781684801 Eh   ::
         :: G(RRHO) contrib.            0.290052258259 Eh   ::
         :::::::::::::::::::::::::::::::::::::::::::::::::::::

           -------------------------------------------------
          | TOTAL ENERGY              -75.505744846374 Eh   |
          | TOTAL ENTHALPY            -75.143138523207 Eh   |
          | TOTAL FREE ENERGY         -75.215692588115 Eh   |
          | GRADIENT NORM               0.000031699355 Eh/α |
          | HOMO-LUMO GAP               1.239724931751 eV   |
           -------------------------------------------------

 * finished run on 2025/09/04 at 23:58:53.606
