   * xtb version 6.7.1 (edcfbbe) compiled by 'albert@albert-system' on 2024-07-22

   ID    Z sym.   atoms
    1    7 N      1, 7, 14, 20
    2    6 C      2-6, 8-13, 15-19, 21-30
    3    1 H      31-46

          program call               : xtb data2507/toluene/DHPZ-2BN/DHPZ-2BN_toluene_T1_crest.xyz --gfn 2 --uhf 2 --gbsa toluene --ohess vtight --parallel 40 --molden --ceasefiles --namespace data2507/toluene/DHPZ-2BN/DHPZ-2BN_toluene_T1_finalOpt
      * Solvation model:               GBSA
        Solvent                        toluene
        Solvent mass                       9.2140E+01 g/mol
          :  Hamiltonian                  GFN2-xTB          :
 * total energy  :   -75.4362301 Eh     change       -0.8000711E-09 Eh
 * total energy  :   -75.4363609 Eh     change       -0.1307559E-03 Eh
 * total energy  :   -75.4363882 Eh     change       -0.2730094E-04 Eh
 * total energy  :   -75.4363941 Eh     change       -0.5908248E-05 Eh
 * total energy  :   -75.4363965 Eh     change       -0.2433706E-05 Eh
 * total energy  :   -75.4363991 Eh     change       -0.2584420E-05 Eh
 * total energy  :   -75.4364018 Eh     change       -0.2724127E-05 Eh
 * total energy  :   -75.4364043 Eh     change       -0.2449343E-05 Eh
 * total energy  :   -75.4364066 Eh     change       -0.2276832E-05 Eh
 * total energy  :   -75.4364089 Eh     change       -0.2331332E-05 Eh
 * total energy  :   -75.4364148 Eh     change       -0.3317306E-05 Eh
 * total energy  :   -75.4364191 Eh     change       -0.4285440E-05 Eh
 * total energy  :   -75.4364235 Eh     change       -0.4418582E-05 Eh
 * total energy  :   -75.4364267 Eh     change       -0.3162422E-05 Eh
 * total energy  :   -75.4364285 Eh     change       -0.1848567E-05 Eh
 * total energy  :   -75.4364298 Eh     change       -0.1220754E-05 Eh
 * total energy  :   -75.4364306 Eh     change       -0.8023394E-06 Eh
 * total energy  :   -75.4364309 Eh     change       -0.3021200E-06 Eh
 * total energy  :   -75.4364309 Eh     change       -0.8013311E-07 Eh
   *** GEOMETRY OPTIMIZATION CONVERGED AFTER 20 ITERATIONS ***

 final structure:
================
46
 xtb: 6.7.1 (edcfbbe)
N           -8.15069320921518        0.00306896283952       -0.02391332516031
C           -6.99367769101460        0.00355374001176       -0.01694134848050
C           -5.59877086880479        0.00394363790337       -0.00906818979933
C           -4.87730604259265       -0.29400470272793       -1.18668539541909
C           -3.50604533721809       -0.29561577722426       -1.17507389560111
C           -2.81438206519404        0.00349083679684        0.00591985143798
N           -1.38935213085379        0.00230631395358        0.01299113882219
C           -0.71080969640482        1.19586071420072       -0.00036871550026
C           -1.38810609801392        2.41951830828260       -0.04166894047201
C           -0.69361755175246        3.60742148939055       -0.02525674699829
C            0.70297344855812        3.60566224347463        0.03984275754419
C            1.39446606942289        2.41619553236853        0.05979000938821
C            0.71409373223445        1.19390172577590        0.02224600568932
N            1.38975883003462       -0.00134807832926        0.01115218076932
C            2.81459369227768       -0.00289395555447        0.00461448029711
C            3.51810155831583       -0.30936708731411        1.17680769112401
C            4.88941362495872       -0.30964942081253        1.17422216247471
C            5.59912842296313       -0.00603028089282       -0.00906506082782
C            6.99399708377769       -0.00794412213721       -0.01625201300423
N            8.15102343298958       -0.00966472369126       -0.02250072220930
C            4.87849021790249        0.29937194557135       -1.18531185711618
C            3.50724905505151        0.30231831280567       -1.17433931372257
C            0.71108016600996       -1.19499763157711        0.00414601649731
C            1.38782705800382       -2.41912101619592       -0.03391155533411
C            0.69300858449038       -3.60670347446334       -0.01062840592676
C           -0.70346830912244       -3.60440204538562        0.05751309766738
C           -1.39456136261409       -2.41465015522607        0.07306241929718
C           -0.71380956523298       -1.19281985437347        0.02917248672924
C           -3.51859745075900        0.30284461951164        1.17941800710617
C           -4.88995822048967        0.30183438652521        1.17616517865777
H           -5.42053394377088       -0.51905710160243       -2.09243193363243
H           -2.94991576717816       -0.52159293305369       -2.07281251006119
H           -2.46524941603842        2.42054360458283       -0.08568834776987
H           -1.23119948185159        4.54150202664705       -0.05707717395756
H            1.24293741721690        4.53846060049253        0.06914618044600
H            2.47158648971989        2.41472520336137        0.10423741811234
H            2.97104527386417       -0.53922229054704        2.07913730356480
H            5.44158832043006       -0.54037411317786        2.07313404730277
H            5.42237978026479        0.52892248251579       -2.08955565106762
H            2.95181703653271        0.53367463778121       -2.07115726821210
H            2.46482183810439       -2.42092890887229       -0.08116144337832
H            1.23027794879591       -4.54105259991468       -0.03982233603386
H           -1.24356191770747       -4.53694158036146        0.09204940498209
H           -2.47165059236123       -2.41241562498067        0.11859385966584
H           -2.97216081675791        0.52846581396637        2.08316086910074
H           -5.44273864837090        0.52718095465628        2.07605063710754

          :  Hamiltonian                  GFN2-xTB          :
         :: gradient norm              0.000045581367 Eh/a0 ::
         :: HOMO-LUMO gap              0.002894357464 eV    ::
         :: SCC energy               -76.872212110006 Eh    ::
         :: -> dispersion             -0.062798251656 Eh    ::
         :: -> Gsolv                  -0.046232068200 Eh    ::
         :: repulsion energy           1.435781165222 Eh    ::

    * Orbital Energies and Occupations

         #    Occupation            Energy/Eh            Energy/eV
      -------------------------------------------------------------
         1        2.0000           -0.7196945             -19.5839
       ...           ...                  ...                  ...
        59        2.0000           -0.4395155             -11.9598
        60        2.0000           -0.4390673             -11.9476
        61        2.0000           -0.4356064             -11.8535
        62        2.0000           -0.4354680             -11.8497
        63        2.0000           -0.4241115             -11.5407
        64        2.0000           -0.4236540             -11.5282
        65        2.0000           -0.4145775             -11.2812
        66        2.0000           -0.4103298             -11.1656
        67        2.0000           -0.4101281             -11.1602
        68        2.0000           -0.4090631             -11.1312
        69        2.0000           -0.4068094             -11.0698
        70        1.0000           -0.3586803              -9.7602
        71        0.4378           -0.2716061              -7.3908 (HOMO)
        72        0.4105           -0.2714998              -7.3879 (LUMO)
        73        0.1518           -0.2702089              -7.3528
        74                         -0.2527826              -6.8786
        75                         -0.2378288              -6.4717
        76                         -0.2376945              -6.4680
        77                         -0.2347811              -6.3887
        78                         -0.2209887              -6.0134
        79                         -0.1959893              -5.3331
        80                         -0.1959717              -5.3327
        81                         -0.1704704              -4.6387
        82                         -0.1704204              -4.6374
       ...                                ...                  ...
       136                          1.1582030              31.5163
      -------------------------------------------------------------
                  HL-Gap            0.0001064 Eh            0.0029 eV

     #   Z          covCN         q      C6AA      α(0)
     1   7 N        0.911    -0.335    28.606     7.735
     2   6 C        1.911     0.100    28.613     8.639
     3   6 C        2.968    -0.008    28.209     8.712
     4   6 C        2.923    -0.029    28.734     8.790
     5   6 C        2.914    -0.039    28.968     8.826
     6   6 C        2.928     0.029    27.347     8.576
     7   7 N        2.753     0.009    21.104     6.823
     8   6 C        2.931     0.049    26.901     8.506
     9   6 C        2.917    -0.043    29.080     8.843
    10   6 C        2.916    -0.025    28.630     8.774
    11   6 C        2.916    -0.025    28.628     8.774
    12   6 C        2.917    -0.043    29.080     8.843
    13   6 C        2.931     0.049    26.904     8.506
    14   7 N        2.752     0.009    21.102     6.823
    15   6 C        2.928     0.029    27.348     8.576
    16   6 C        2.914    -0.039    28.969     8.826
    17   6 C        2.922    -0.029    28.734     8.790
    18   6 C        2.968    -0.008    28.210     8.712
    19   6 C        1.911     0.100    28.614     8.639
    20   7 N        0.911    -0.335    28.607     7.736
    21   6 C        2.923    -0.029    28.734     8.791
    22   6 C        2.914    -0.039    28.968     8.826
    23   6 C        2.931     0.049    26.903     8.506
    24   6 C        2.917    -0.043    29.080     8.843
    25   6 C        2.916    -0.025    28.631     8.774
    26   6 C        2.916    -0.025    28.628     8.774
    27   6 C        2.917    -0.043    29.080     8.843
    28   6 C        2.931     0.049    26.903     8.506
    29   6 C        2.914    -0.039    28.969     8.826
    30   6 C        2.922    -0.029    28.733     8.790
    31   1 H        0.926     0.034     2.533     2.489
    32   1 H        0.926     0.041     2.433     2.439
    33   1 H        0.926     0.057     2.231     2.336
    34   1 H        0.926     0.058     2.227     2.333
    35   1 H        0.926     0.058     2.226     2.333
    36   1 H        0.926     0.057     2.231     2.336
    37   1 H        0.926     0.041     2.431     2.438
    38   1 H        0.926     0.034     2.533     2.489
    39   1 H        0.926     0.034     2.533     2.489
    40   1 H        0.926     0.041     2.432     2.439
    41   1 H        0.926     0.057     2.231     2.336
    42   1 H        0.926     0.058     2.227     2.334
    43   1 H        0.926     0.058     2.227     2.333
    44   1 H        0.926     0.057     2.232     2.336
    45   1 H        0.926     0.041     2.431     2.438
    46   1 H        0.926     0.034     2.533     2.489

molecular dipole:
                 x           y           z       tot (Debye)
 q only:       -0.001       0.005       0.036
   full:       -0.001       0.005       0.039       0.100

 projected vibrational frequencies (cm⁻¹)
eigval :       -0.00     0.00     0.00     0.00     0.00     0.00
eigval :       11.70    26.93    37.42    41.68    42.17    42.55
eigval :       71.88   107.65   115.25   119.79   121.54   133.49
eigval :      167.48   186.21   192.89   233.32   246.73   260.92
eigval :      268.85   342.19   367.56   369.27   370.00   393.77
eigval :      403.52   408.76   426.11   428.84   432.45   468.93
eigval :      486.30   488.74   499.56   508.34   530.59   533.06
eigval :      533.62   544.68   578.88   582.02   615.40   617.49
eigval :      640.21   640.81   659.55   660.96   664.36   687.86
eigval :      762.59   765.09   766.98   783.69   788.96   792.72
eigval :      842.11   843.41   863.26   863.74   884.03   893.28
eigval :      896.26   897.43   902.81   903.09   905.92   907.22
eigval :      908.17   912.34   912.90   925.40   991.26   993.01
eigval :     1083.98  1086.83  1126.56  1126.85  1126.93  1132.09
eigval :     1165.00  1166.76  1173.05  1176.94  1191.34  1195.90
eigval :     1223.67  1240.28  1245.99  1246.95  1247.38  1258.35
eigval :     1304.32  1306.10  1306.93  1317.42  1319.53  1320.45
eigval :     1349.14  1363.11  1384.78  1386.20  1406.18  1408.91
eigval :     1417.10  1431.76  1434.54  1435.08  1437.22  1460.99
eigval :     1476.94  1498.09  1509.46  1519.28  1537.93  1589.43
eigval :     2244.47  2280.09  3079.01  3079.09  3080.99  3081.08
eigval :     3090.81  3090.93  3093.36  3093.52  3101.46  3101.62
eigval :     3107.89  3108.04  3115.88  3116.14  3119.00  3119.47

   temp. (K)  partition function   enthalpy   heat capacity  entropy
                                   cal/mol     cal/K/mol   cal/K/mol   J/K/mol
 298.15  VIB  0.191E+11            13643.138     86.272     84.054
         ROT  0.910E+07              888.752      2.981     34.825
         INT  0.174E+18            14531.890     89.253    118.879
         TR   0.729E+28             1481.254      4.968     43.712
         TOT                       16013.1442    94.2209   162.5908   680.2797

       T/K    H(0)-H(T)+PV         H(T)/Eh          T*S/Eh         G(T)/Eh
   ------------------------------------------------------------------------
    298.15    0.255186E-01    0.361449E+00    0.772521E-01    0.284197E+00
   ------------------------------------------------------------------------

         :::::::::::::::::::::::::::::::::::::::::::::::::::::
         ::                  THERMODYNAMIC                  ::
         :::::::::::::::::::::::::::::::::::::::::::::::::::::
         :: total free energy         -75.152233900021 Eh   ::
         ::.................................................::
         :: total energy              -75.436430944212 Eh   ::
         :: zero point energy           0.335930589406 Eh   ::
         :: G(RRHO) w/o ZPVE           -0.051733545214 Eh   ::
         :: G(RRHO) contrib.            0.284197044191 Eh   ::
         :::::::::::::::::::::::::::::::::::::::::::::::::::::

           -------------------------------------------------
          | TOTAL ENERGY              -75.436430944212 Eh   |
          | TOTAL ENTHALPY            -75.074981785134 Eh   |
          | TOTAL FREE ENERGY         -75.152233900021 Eh   |
          | GRADIENT NORM               0.000046475088 Eh/α |
          | HOMO-LUMO GAP               0.002894628950 eV   |
           -------------------------------------------------

 * finished run on 2025/09/05 at 00:01:50.582
