   * xtb version 6.7.1 (edcfbbe) compiled by 'albert@albert-system' on 2024-07-22

   ID    Z sym.   atoms
    1    7 N      1, 7, 14, 20
    2    6 C      2-6, 8-13, 15-19, 21-30
    3    1 H      31-46

          program call               : xtb data2507/toluene/DHPZ-2BN/DHPZ-2BN_toluene_S0_finalOpt.xtbopt.xyz --gfn 2 --uhf 2 --gbsa toluene --ohess vtight --parallel 40 --molden --ceasefiles --namespace data2507/toluene/DHPZ-2BN/DHPZ-2BN_toluene_T1_preOpt
      * Solvation model:               GBSA
        Solvent                        toluene
        Solvent mass                       9.2140E+01 g/mol
          :  Hamiltonian                  GFN2-xTB          :
 * total energy  :   -75.4308060 Eh     change        0.1070966E-07 Eh
 * total energy  :   -75.4348237 Eh     change       -0.4017736E-02 Eh
 * total energy  :   -75.4356188 Eh     change       -0.7950670E-03 Eh
 * total energy  :   -75.4357030 Eh     change       -0.8427418E-04 Eh
 * total energy  :   -75.4357944 Eh     change       -0.9136325E-04 Eh
 * total energy  :   -75.4358324 Eh     change       -0.3796105E-04 Eh
 * total energy  :   -75.4358732 Eh     change       -0.4080164E-04 Eh
 * total energy  :   -75.4359020 Eh     change       -0.2880055E-04 Eh
 * total energy  :   -75.4359188 Eh     change       -0.1679252E-04 Eh
 * total energy  :   -75.4359398 Eh     change       -0.2108275E-04 Eh
 * total energy  :   -75.4364267 Eh     change       -0.4547792E-06 Eh
 * total energy  :   -75.4364271 Eh     change       -0.4210423E-06 Eh
 * total energy  :   -75.4364275 Eh     change       -0.3850316E-06 Eh
 * total energy  :   -75.4364279 Eh     change       -0.3546051E-06 Eh
 * total energy  :   -75.4364282 Eh     change       -0.3367639E-06 Eh
 * total energy  :   -75.4364285 Eh     change       -0.3038777E-06 Eh
 * total energy  :   -75.4364288 Eh     change       -0.2721458E-06 Eh
 * total energy  :   -75.4364290 Eh     change       -0.2579940E-06 Eh
 * total energy  :   -75.4364290 Eh     change       -0.2008633E-08 Eh
   *** GEOMETRY OPTIMIZATION CONVERGED AFTER 94 ITERATIONS ***

 final structure:
================
46
 xtb: 6.7.1 (edcfbbe)
N           -8.15092499899235       -0.00486246290948       -0.00388307549432
C           -6.99387939252640       -0.00428550611216       -0.00363171108271
C           -5.59901905447947       -0.00337072622298       -0.00356862682381
C           -4.88357031986080       -0.32123632245082       -1.17969045778639
C           -3.51229695656209       -0.32166924232022       -1.17539119330380
C           -2.81439393171990       -0.00164775520426       -0.00340624570661
N           -1.38970974891880       -0.00079725228481       -0.00332509266624
C           -0.71308601156400        1.19400718834412       -0.01642083391832
C           -1.39236736353281        2.41663246999118       -0.06010355095644
C           -0.70016658348479        3.60575774519238       -0.03951319553152
C            0.69599264553965        3.60656555137832        0.03287071693997
C            1.38956260274527        2.41824212896895        0.05346909532008
C            0.71169311014843        1.19483077476349        0.00978202702598
N            1.38971088515167        0.00081677556021       -0.00334937546607
C            2.81439362800197        0.00171255844682       -0.00341965341455
C            3.51283834356173       -0.31739001169752        1.16849009987482
C            4.88410828704431       -0.31510661417866        1.17264179198565
C            5.59901935037051        0.00368461375056       -0.00354850241231
C            6.99387794280489        0.00454252932745       -0.00362738940003
N            8.15092545883770        0.00519203155812       -0.00378683882629
C            4.88355880428934        0.32158418163287       -1.17965175080778
C            3.51228660967594        0.32188714966486       -1.17537090428010
C            0.71308780357820       -1.19398768290992       -0.01643870761331
C            1.39236593786051       -2.41661387096208       -0.06015354541264
C            0.70016241449436       -3.60573789335970       -0.03954491731137
C           -0.69599594728496       -3.60654459887745        0.03288903372825
C           -1.38956486891020       -2.41822015301088        0.05350770257241
C           -0.71169383075545       -1.19481066486022        0.00980071834809
C           -3.51282660273187        0.31747439167895        1.16850618720341
C           -4.88409690299231        0.31531804549640        1.17264012967615
H           -5.43146019837725       -0.56221721646306       -2.07853077543032
H           -2.96083722671098       -0.56226872273272       -2.07222934717983
H           -2.46926476979023        2.41598364775547       -0.10942610934134
H           -1.23934571979025        4.53884672388508       -0.07342116267473
H            1.23410356329169        4.54027270691306        0.06677736441463
H            2.46645916305939        2.41884405552558        0.10280225810678
H            2.96179395777088       -0.55868893374155        2.06539390716845
H            5.43241315713579       -0.55533346674302        2.07143078219917
H            5.43143881432468        0.56268099707508       -2.07846726493459
H            2.96081581065570        0.56250652179436       -2.07219654429615
H            2.46926238513820       -2.41596324067561       -0.10951589935184
H            1.23933585386172       -4.53882971479243       -0.07347976235414
H           -1.23410377772078       -4.54025340127142        0.06681253164073
H           -2.46646120782941       -2.41881454925492        0.10286872218072
H           -2.96177149528860        0.55868803502702        2.06542622002008
H           -5.43239087457200        0.55555910863895        2.07143224384440

          :  Hamiltonian                  GFN2-xTB          :
         :: gradient norm              0.000043776623 Eh/a0 ::
         :: HOMO-LUMO gap              0.003714514687 eV    ::
         :: SCC energy               -76.872149284522 Eh    ::
         :: -> dispersion             -0.062809489804 Eh    ::
         :: -> Gsolv                  -0.046220891397 Eh    ::
         :: repulsion energy           1.435720252870 Eh    ::

    * Orbital Energies and Occupations

         #    Occupation            Energy/Eh            Energy/eV
      -------------------------------------------------------------
         1        2.0000           -0.7196851             -19.5836
       ...           ...                  ...                  ...
        59        2.0000           -0.4394771             -11.9588
        60        2.0000           -0.4390713             -11.9477
        61        2.0000           -0.4356176             -11.8538
        62        2.0000           -0.4354573             -11.8494
        63        2.0000           -0.4240944             -11.5402
        64        2.0000           -0.4236049             -11.5269
        65        2.0000           -0.4147207             -11.2851
        66        2.0000           -0.4103228             -11.1655
        67        2.0000           -0.4101207             -11.1600
        68        2.0000           -0.4091042             -11.1323
        69        2.0000           -0.4065970             -11.0641
        70        1.0000           -0.3586682              -9.7599
        71        0.4424           -0.2716337              -7.3915 (HOMO)
        72        0.4073           -0.2714972              -7.3878 (LUMO)
        73        0.1504           -0.2702086              -7.3528
        74                         -0.2527959              -6.8789
        75                         -0.2378079              -6.4711
        76                         -0.2376679              -6.4673
        77                         -0.2347748              -6.3885
        78                         -0.2209694              -6.0129
        79                         -0.1959809              -5.3329
        80                         -0.1959695              -5.3326
        81                         -0.1704514              -4.6382
        82                         -0.1703698              -4.6360
       ...                                ...                  ...
       136                          1.1582294              31.5170
      -------------------------------------------------------------
                  HL-Gap            0.0001365 Eh            0.0037 eV

     #   Z          covCN         q      C6AA      α(0)
     1   7 N        0.911    -0.335    28.607     7.736
     2   6 C        1.911     0.100    28.614     8.639
     3   6 C        2.968    -0.008    28.209     8.712
     4   6 C        2.922    -0.029    28.734     8.791
     5   6 C        2.914    -0.039    28.969     8.826
     6   6 C        2.928     0.029    27.347     8.576
     7   7 N        2.752     0.009    21.102     6.823
     8   6 C        2.931     0.049    26.903     8.506
     9   6 C        2.917    -0.044    29.081     8.843
    10   6 C        2.916    -0.025    28.629     8.774
    11   6 C        2.916    -0.025    28.629     8.774
    12   6 C        2.917    -0.044    29.081     8.843
    13   6 C        2.931     0.049    26.903     8.506
    14   7 N        2.752     0.009    21.102     6.823
    15   6 C        2.928     0.029    27.348     8.576
    16   6 C        2.914    -0.039    28.969     8.826
    17   6 C        2.922    -0.029    28.734     8.791
    18   6 C        2.968    -0.008    28.209     8.712
    19   6 C        1.911     0.100    28.614     8.639
    20   7 N        0.911    -0.335    28.607     7.736
    21   6 C        2.922    -0.029    28.734     8.791
    22   6 C        2.914    -0.039    28.969     8.826
    23   6 C        2.931     0.049    26.903     8.506
    24   6 C        2.917    -0.044    29.081     8.843
    25   6 C        2.916    -0.025    28.629     8.774
    26   6 C        2.916    -0.025    28.629     8.774
    27   6 C        2.917    -0.044    29.081     8.843
    28   6 C        2.931     0.049    26.903     8.506
    29   6 C        2.914    -0.039    28.969     8.826
    30   6 C        2.922    -0.029    28.734     8.791
    31   1 H        0.926     0.034     2.533     2.489
    32   1 H        0.926     0.041     2.431     2.438
    33   1 H        0.926     0.057     2.230     2.335
    34   1 H        0.926     0.058     2.227     2.333
    35   1 H        0.926     0.058     2.227     2.333
    36   1 H        0.926     0.057     2.230     2.335
    37   1 H        0.926     0.041     2.431     2.438
    38   1 H        0.926     0.034     2.533     2.489
    39   1 H        0.926     0.034     2.533     2.489
    40   1 H        0.926     0.041     2.431     2.438
    41   1 H        0.926     0.057     2.230     2.335
    42   1 H        0.926     0.058     2.227     2.333
    43   1 H        0.926     0.058     2.227     2.333
    44   1 H        0.926     0.057     2.230     2.335
    45   1 H        0.926     0.041     2.431     2.438
    46   1 H        0.926     0.034     2.533     2.489

molecular dipole:
                 x           y           z       tot (Debye)
 q only:       -0.000      -0.000       0.001
   full:       -0.000      -0.000       0.001       0.002

 projected vibrational frequencies (cm⁻¹)
eigval :       -0.00    -0.00    -0.00    -0.00     0.00     0.00
eigval :       11.05    26.79    39.23    42.18    43.55    45.08
eigval :       71.65   111.40   116.03   120.16   121.99   133.22
eigval :      167.55   186.91   193.11   233.40   246.49   261.09
eigval :      269.11   342.19   367.65   369.57   370.27   393.83
eigval :      403.52   409.13   426.26   428.79   432.56   470.60
eigval :      486.22   488.89   499.84   508.47   531.36   533.04
eigval :      533.89   544.58   579.07   582.10   615.37   617.47
eigval :      640.27   640.37   659.99   660.62   664.74   687.89
eigval :      762.47   765.09   767.01   783.69   791.40   794.94
eigval :      845.07   845.75   863.24   863.56   884.24   893.30
eigval :      898.66   899.39   902.66   903.04   907.95   908.90
eigval :      909.32   912.72   913.09   925.56   991.11   992.82
eigval :     1084.78  1087.43  1126.45  1126.59  1126.68  1132.20
eigval :     1164.90  1166.31  1173.35  1176.94  1191.48  1195.87
eigval :     1223.93  1240.30  1245.76  1246.76  1247.85  1258.43
eigval :     1303.97  1305.60  1306.61  1317.59  1319.69  1320.28
eigval :     1348.93  1363.16  1384.54  1386.19  1406.02  1406.93
eigval :     1417.09  1431.79  1434.61  1434.76  1437.06  1459.91
eigval :     1476.80  1497.69  1509.71  1517.59  1537.71  1589.37
eigval :     2244.32  2279.93  3079.04  3079.07  3080.99  3081.06
eigval :     3090.83  3090.91  3093.39  3093.53  3101.78  3101.79
eigval :     3108.13  3108.20  3116.05  3116.30  3119.14  3119.61

   temp. (K)  partition function   enthalpy   heat capacity  entropy
                                   cal/mol     cal/K/mol   cal/K/mol   J/K/mol
 298.15  VIB  0.170E+11            13623.796     86.359     83.987
         ROT  0.455E+07              888.752      2.981     33.447
         INT  0.775E+17            14512.548     89.340    117.434
         TR   0.729E+28             1481.254      4.968     43.712
         TOT                       15993.8024    94.3082   161.1460   674.2348

       T/K    H(0)-H(T)+PV         H(T)/Eh          T*S/Eh         G(T)/Eh
   ------------------------------------------------------------------------
    298.15    0.254877E-01    0.361488E+00    0.765657E-01    0.284923E+00
   ------------------------------------------------------------------------

         :::::::::::::::::::::::::::::::::::::::::::::::::::::
         ::                  THERMODYNAMIC                  ::
         :::::::::::::::::::::::::::::::::::::::::::::::::::::
         :: total free energy         -75.151506425017 Eh   ::
         ::.................................................::
         :: total energy              -75.436429032205 Eh   ::
         :: zero point energy           0.336000513163 Eh   ::
         :: G(RRHO) w/o ZPVE           -0.051077905976 Eh   ::
         :: G(RRHO) contrib.            0.284922607187 Eh   ::
         :::::::::::::::::::::::::::::::::::::::::::::::::::::

           -------------------------------------------------
          | TOTAL ENERGY              -75.436429032205 Eh   |
          | TOTAL ENTHALPY            -75.074940772599 Eh   |
          | TOTAL FREE ENERGY         -75.151506425017 Eh   |
          | GRADIENT NORM               0.000041426814 Eh/α |
          | HOMO-LUMO GAP               0.003714453905 eV   |
           -------------------------------------------------

 * finished run on 2025/09/05 at 00:00:16.360
