   * xtb version 6.7.1 (edcfbbe) compiled by 'albert@albert-system' on 2024-07-22

   ID    Z sym.   atoms
    1    7 N      1, 7, 14, 20
    2    6 C      2-6, 8-13, 15-19, 21-30
    3    1 H      31-46

          program call               : xtb data2507/toluene/DHPZ-2BN/DHPZ-2BN_toluene_S0_crest.xyz --gfn 2 --gbsa toluene --ohess vtight --parallel 40 --molden --ceasefiles --namespace data2507/toluene/DHPZ-2BN/DHPZ-2BN_toluene_S0_finalOpt
      * Solvation model:               GBSA
        Solvent                        toluene
        Solvent mass                       9.2140E+01 g/mol
          :  Hamiltonian                  GFN2-xTB          :
 * total energy  :   -75.5078569 Eh     change       -0.2393392E-09 Eh
 * total energy  :   -75.5078712 Eh     change       -0.1426450E-04 Eh
 * total energy  :   -75.5078706 Eh     change        0.5680655E-06 Eh
 * total energy  :   -75.5078689 Eh     change        0.1670677E-05 Eh
 * total energy  :   -75.5078731 Eh     change       -0.4225107E-05 Eh
 * total energy  :   -75.5078729 Eh     change        0.2524800E-06 Eh
 * total energy  :   -75.5078737 Eh     change       -0.8260279E-06 Eh
 * total energy  :   -75.5078739 Eh     change       -0.2022946E-06 Eh
 * total energy  :   -75.5078741 Eh     change       -0.1979103E-06 Eh
 * total energy  :   -75.5078744 Eh     change       -0.2661345E-06 Eh
 * total energy  :   -75.5078746 Eh     change       -0.2305665E-06 Eh
 * total energy  :   -75.5078747 Eh     change       -0.1269878E-06 Eh
 * total energy  :   -75.5078748 Eh     change       -0.3623323E-07 Eh
   *** GEOMETRY OPTIMIZATION CONVERGED AFTER 13 ITERATIONS ***

 final structure:
================
46
 xtb: 6.7.1 (edcfbbe)
N           -8.14645457783303       -0.00485675028577        0.07130794131198
C           -6.99821063073206       -0.00305130349481        0.05308914728241
C           -5.58745930605470       -0.00094620250264        0.03171631966810
C           -4.90308155316856       -0.56681179445875       -1.04758524095992
C           -3.52441131300674       -0.56392638342122       -1.06343999514405
C           -2.80793514177120        0.00008551320400       -0.00681195512457
N           -1.39919247854884       -0.00070661824095       -0.02420271661319
C           -0.70353060665824        1.21197803694690       -0.04586037319167
C           -1.37532767771300        2.42413992237601       -0.13343231623327
C           -0.68946006576217        3.62946450747219       -0.09847740108825
C            0.68254708076791        3.63115513060023        0.03558003797328
C            1.37135827254836        2.42759921149411        0.07472581120548
C            0.70252470333802        1.21349200288927       -0.00822063151438
N            1.39920234555203        0.00137837830105       -0.02485798570007
C            2.80793868874075        0.00054548925240       -0.00716210008274
C            3.49503769526051       -0.56492349509535        1.06812508959301
C            4.87337405520568       -0.56732452126625        1.09081525002099
C            5.58746412175924       -0.00001342618934        0.03160290416675
C            6.99820717199906        0.00170534421774        0.05343495693288
N            8.14641932530119        0.00306164771543        0.07270734933935
C            4.90346960991617        0.56645237273045       -1.04763639600901
C            3.52479187662687        0.56424514289566       -1.06368082683220
C            0.70352873367514       -1.21132386942843       -0.04621423943067
C            1.37526978531528       -2.42349940625461       -0.13417683503864
C            0.68941696639179       -3.62882548610816       -0.09886503896758
C           -0.68251522474819       -3.63051318114982        0.03595667962172
C           -1.37130252582625       -2.42695231232268        0.07544805535279
C           -0.70251263323245       -1.21283585724160       -0.00787867686247
C           -3.49540794764539        0.56511640563190        1.06844342683888
C           -4.87375811711564        0.56684250400245        1.09094273650172
H           -5.45973655921138       -0.99638097060631       -1.86718166803584
H           -2.99000783451551       -0.99329087599170       -1.89754610526223
H           -2.44925890365767        2.43392088793500       -0.23127435533864
H           -1.23911349328755        4.55557915096634       -0.16503501787585
H            1.23012472641296        4.55871469828200        0.09920292315044
H            2.44510066395275        2.44080560815099        0.17364120881710
H            2.93754378448138       -0.99580406266235        1.88615809973857
H            5.40720097716785       -0.99686344165500        1.92545800264625
H            5.46040800460690        0.99596849284930       -1.86707148922590
H            2.99069876215683        0.99378199276116       -1.89789840093561
H            2.44914804289113       -2.43329547959651       -0.23259659484029
H            1.23902744462658       -4.55494465323441       -0.16574763430010
H           -1.23005910744856       -4.55807485058729        0.09987508751501
H           -2.44499269160299       -2.44016082081783        0.17493567972820
H           -2.93821715858411        0.99606239370155        1.88664852175183
H           -5.40787801127010        0.99621113243606        1.92548786905044

          :  Hamiltonian                  GFN2-xTB          :
         :: gradient norm              0.000108795004 Eh/a0 ::
         :: HOMO-LUMO gap              1.498424363963 eV    ::
         :: SCC energy               -76.961818669514 Eh    ::
         :: -> dispersion             -0.063279695004 Eh    ::
         :: -> Gsolv                  -0.037435053490 Eh    ::
         :: repulsion energy           1.453943890452 Eh    ::

    * Orbital Energies and Occupations

         #    Occupation            Energy/Eh            Energy/eV
      -------------------------------------------------------------
         1        2.0000           -0.6871039             -18.6970
       ...           ...                  ...                  ...
        58        2.0000           -0.4393836             -11.9562
        59        2.0000           -0.4388609             -11.9420
        60        2.0000           -0.4375507             -11.9064
        61        2.0000           -0.4334480             -11.7947
        62        2.0000           -0.4319405             -11.7537
        63        2.0000           -0.4310295             -11.7289
        64        2.0000           -0.4263056             -11.6004
        65        2.0000           -0.4247084             -11.5569
        66        2.0000           -0.4227744             -11.5043
        67        2.0000           -0.4167477             -11.3403
        68        2.0000           -0.4134177             -11.2497
        69        2.0000           -0.3860054             -10.5037
        70        2.0000           -0.3379836              -9.1970 (HOMO)
        71                         -0.2829174              -7.6986 (LUMO)
        72                         -0.2810268              -7.6471
        73                         -0.2508163              -6.8251
        74                         -0.2505994              -6.8192
        75                         -0.2403965              -6.5415
        76                         -0.2313131              -6.2943
        77                         -0.2168332              -5.9003
        78                         -0.2164123              -5.8889
        79                         -0.2149785              -5.8499
        80                         -0.1990888              -5.4175
        81                         -0.1820839              -4.9548
       ...                                ...                  ...
       136                          1.1557766              31.4503
      -------------------------------------------------------------
                  HL-Gap            0.0550662 Eh            1.4984 eV

     #   Z          covCN         q      C6AA      α(0)
     1   7 N        0.911    -0.271    26.998     7.515
     2   6 C        1.912     0.118    28.190     8.575
     3   6 C        2.973     0.014    27.704     8.634
     4   6 C        2.925    -0.018    28.457     8.748
     5   6 C        2.920    -0.036    28.900     8.816
     6   6 C        2.922     0.075    26.335     8.416
     7   7 N        2.751    -0.070    22.588     7.059
     8   6 C        2.925     0.047    26.941     8.512
     9   6 C        2.924    -0.059    29.475     8.903
    10   6 C        2.918    -0.040    28.995     8.830
    11   6 C        2.918    -0.040    28.994     8.830
    12   6 C        2.924    -0.060    29.480     8.904
    13   6 C        2.925     0.047    26.938     8.512
    14   7 N        2.751    -0.070    22.588     7.059
    15   6 C        2.922     0.075    26.335     8.416
    16   6 C        2.920    -0.036    28.898     8.815
    17   6 C        2.925    -0.018    28.457     8.748
    18   6 C        2.973     0.014    27.704     8.634
    19   6 C        1.912     0.118    28.190     8.575
    20   7 N        0.911    -0.271    26.998     7.515
    21   6 C        2.925    -0.018    28.457     8.748
    22   6 C        2.920    -0.036    28.900     8.816
    23   6 C        2.925     0.047    26.941     8.512
    24   6 C        2.924    -0.059    29.475     8.903
    25   6 C        2.918    -0.040    28.995     8.830
    26   6 C        2.918    -0.040    28.994     8.830
    27   6 C        2.924    -0.060    29.479     8.904
    28   6 C        2.925     0.047    26.938     8.512
    29   6 C        2.920    -0.036    28.898     8.815
    30   6 C        2.925    -0.018    28.457     8.748
    31   1 H        0.926     0.051     2.308     2.375
    32   1 H        0.926     0.055     2.253     2.347
    33   1 H        0.926     0.033     2.545     2.495
    34   1 H        0.926     0.034     2.533     2.489
    35   1 H        0.926     0.034     2.533     2.489
    36   1 H        0.926     0.033     2.542     2.493
    37   1 H        0.926     0.055     2.257     2.349
    38   1 H        0.926     0.051     2.308     2.376
    39   1 H        0.926     0.051     2.308     2.375
    40   1 H        0.926     0.055     2.253     2.347
    41   1 H        0.926     0.033     2.545     2.495
    42   1 H        0.926     0.034     2.533     2.489
    43   1 H        0.926     0.034     2.533     2.489
    44   1 H        0.926     0.033     2.543     2.493
    45   1 H        0.926     0.055     2.257     2.349
    46   1 H        0.926     0.051     2.308     2.376

molecular dipole:
                 x           y           z       tot (Debye)
 q only:       -0.000       0.001      -0.043
   full:       -0.000       0.001      -0.052       0.132

 projected vibrational frequencies (cm⁻¹)
eigval :       -0.00    -0.00     0.00     0.00     0.00     0.00
eigval :       -6.51    27.17    32.31    41.35    52.34    63.57
eigval :       65.53   120.60   124.51   125.73   126.34   137.47
eigval :      169.93   192.22   197.09   249.79   250.57   268.08
eigval :      275.85   345.97   368.51   369.12   370.87   382.93
eigval :      398.52   408.96   433.88   446.96   461.18   463.81
eigval :      487.18   503.35   517.57   531.19   531.35   534.96
eigval :      548.86   549.45   588.97   591.96   617.82   620.80
eigval :      639.89   657.13   660.34   685.34   692.31   697.99
eigval :      771.01   771.48   773.00   793.08   815.52   820.40
eigval :      858.15   861.09   868.28   871.10   889.09   894.70
eigval :      894.78   910.27   911.41   919.94   920.25   921.45
eigval :      921.63   929.95   930.31   942.73  1012.34  1017.35
eigval :     1113.33  1114.88  1122.48  1125.31  1128.14  1128.21
eigval :     1177.08  1178.01  1182.85  1183.75  1187.77  1203.65
eigval :     1229.45  1235.43  1241.96  1255.36  1257.01  1262.94
eigval :     1271.98  1300.95  1305.82  1310.77  1310.78  1319.92
eigval :     1351.45  1358.81  1398.22  1400.82  1424.00  1436.48
eigval :     1469.10  1471.44  1484.49  1507.31  1539.70  1539.86
eigval :     1559.39  1570.63  1574.85  1577.88  1586.28  1592.86
eigval :     2355.23  2356.68  3085.65  3085.71  3086.69  3086.71
eigval :     3088.11  3088.13  3094.05  3094.11  3098.14  3098.19
eigval :     3099.60  3099.61  3105.34  3105.53  3109.04  3110.05

   temp. (K)  partition function   enthalpy   heat capacity  entropy
                                   cal/mol     cal/K/mol   cal/K/mol   J/K/mol
 298.15  VIB  0.155E+11            13393.798     85.430     82.943
         ROT  0.914E+07              888.752      2.981     34.833
         INT  0.142E+18            14282.550     88.411    117.776
         TR   0.729E+28             1481.254      4.968     43.712
         TOT                       15763.8040    93.3789   161.4881   675.6661

       T/K    H(0)-H(T)+PV         H(T)/Eh          T*S/Eh         G(T)/Eh
   ------------------------------------------------------------------------
    298.15    0.251212E-01    0.364776E+00    0.767282E-01    0.288048E+00
   ------------------------------------------------------------------------

         :::::::::::::::::::::::::::::::::::::::::::::::::::::
         ::                  THERMODYNAMIC                  ::
         :::::::::::::::::::::::::::::::::::::::::::::::::::::
         :: total free energy         -75.219826577569 Eh   ::
         ::.................................................::
         :: total energy              -75.507874778910 Eh   ::
         :: zero point energy           0.339655178451 Eh   ::
         :: G(RRHO) w/o ZPVE           -0.051606977111 Eh   ::
         :: G(RRHO) contrib.            0.288048201340 Eh   ::
         :::::::::::::::::::::::::::::::::::::::::::::::::::::

           -------------------------------------------------
          | TOTAL ENERGY              -75.507874778910 Eh   |
          | TOTAL ENTHALPY            -75.143098379789 Eh   |
          | TOTAL FREE ENERGY         -75.219826577569 Eh   |
          | GRADIENT NORM               0.000108750177 Eh/α |
          | HOMO-LUMO GAP               1.498426914260 eV   |
           -------------------------------------------------

 * finished run on 2025/09/05 at 00:00:11.530
