   * xtb version 6.7.1 (edcfbbe) compiled by 'albert@albert-system' on 2024-07-22

   ID    Z sym.   atoms
    1    8 O      1, 3, 27
    2   16 S      2
    3    6 C      4-9, 11-19, 21-26, 28-36
    4    7 N      10, 20
    5    1 H      37-56

          program call               : xtb data2507/gas/PXZ2PTO/PXZ2PTO_gas_S0_crest.xyz --gfn 2 --ohess vtight --parallel 40 --molden --ceasefiles --namespace data2507/gas/PXZ2PTO/PXZ2PTO_gas_S0_finalOpt
          :  Hamiltonian                  GFN2-xTB          :
 * total energy  :   -95.7462145 Eh     change       -0.2101189E-08 Eh
 * total energy  :   -95.7462153 Eh     change       -0.8916341E-06 Eh
 * total energy  :   -95.7462163 Eh     change       -0.9101063E-06 Eh
 * total energy  :   -95.7462171 Eh     change       -0.8894978E-06 Eh
 * total energy  :   -95.7462176 Eh     change       -0.4335785E-06 Eh
 * total energy  :   -95.7462179 Eh     change       -0.3526894E-06 Eh
 * total energy  :   -95.7462184 Eh     change       -0.4281761E-06 Eh
 * total energy  :   -95.7462188 Eh     change       -0.4739686E-06 Eh
 * total energy  :   -95.7462193 Eh     change       -0.4948497E-06 Eh
 * total energy  :   -95.7462198 Eh     change       -0.4707319E-06 Eh
 * total energy  :   -95.7462202 Eh     change       -0.4312613E-06 Eh
 * total energy  :   -95.7462206 Eh     change       -0.3696335E-06 Eh
 * total energy  :   -95.7462209 Eh     change       -0.3296871E-06 Eh
 * total energy  :   -95.7462212 Eh     change       -0.2795315E-06 Eh
 * total energy  :   -95.7462214 Eh     change       -0.1790219E-06 Eh
 * total energy  :   -95.7462215 Eh     change       -0.1072865E-06 Eh
 * total energy  :   -95.7462216 Eh     change       -0.7889665E-07 Eh
   *** GEOMETRY OPTIMIZATION CONVERGED AFTER 17 ITERATIONS ***

 final structure:
================
56
 xtb: 6.7.1 (edcfbbe)
O            3.47679585645926        3.29719677298036       -0.79771143565292
S            3.19358825938267        1.91564543876449       -1.07468835504431
O            3.45565297314285        1.44193300758257       -2.41023993605837
C            4.07126896449998        0.85605373985911        0.05221515815335
C            5.39015619013360        1.15868380970911        0.33128245886252
C            6.16526281716887        0.28569899449634        1.07004758603370
C            5.60080953787703       -0.90772113322260        1.49749476833699
C            4.28071523657996       -1.20708046279003        1.23058798927696
C            3.47038973062655       -0.31384217808692        0.51412573362659
N            2.12981929691104       -0.59854097696870        0.30483550815489
C            1.65834426378958       -1.91781266336317        0.59769515826933
C            1.47417128999876       -2.80666774545443       -0.45184380703949
C            0.98853256693655       -4.07753765191986       -0.19750448795667
C            0.69110385406124       -4.46058866696744        1.09951485220847
C            0.87755323938396       -3.57236145166707        2.14626735151240
C            1.35767851529128       -2.29810829520974        1.89960527413959
C            1.17848082189932        0.31478680849914       -0.11675922444343
C           -0.18015130756790        0.02483686483179        0.05861759881705
C           -1.16442417869251        0.90861457082455       -0.35877980746972
N           -2.51667815596925        0.55038158882264       -0.20478198253349
C           -3.01913906281261       -0.60840692244462       -0.80793280740389
C           -2.24515362401400       -1.42161445214907       -1.62659786637229
C           -2.77802091167153       -2.56338691187348       -2.20532426256651
C           -4.09675925389544       -2.90653534242332       -1.98833608074682
C           -4.89368891904433       -2.08594860586229       -1.20453478264266
C           -4.36752526430495       -0.94501881328745       -0.62702604186278
O           -5.23117291839919       -0.16812910132023        0.10267263350444
C           -4.72017756868216        0.95540750446569        0.70272345866360
C           -5.59406442493354        1.70892091870740        1.46446614860967
C           -5.14549271823940        2.83793510493640        2.13324370426107
C           -3.81399830388478        3.19119030440441        2.05113346310131
C           -2.93430273329143        2.43977999376587        1.28657361595469
C           -3.37558002182175        1.32870530632228        0.57916528485978
C           -0.81679835115170        2.13555306154050       -0.92648310122534
C            0.51989582996940        2.44052659861441       -1.07770847118803
C            1.49870478117112        1.54345512359963       -0.69210520214572
H            5.78197546087162        2.08690939545838       -0.05389110920283
H            7.19445290354748        0.51730469173509        1.29245846699008
H            6.19688840203404       -1.61715716087759        2.05179136014376
H            3.87135906312083       -2.14313785539963        1.57612185034879
H            1.70998544082877       -2.49318073648178       -1.45775455141593
H            0.84231225639442       -4.76858767972636       -1.01342229588947
H            0.31170970804722       -5.45174689087205        1.29579477829158
H            0.64368236643389       -3.86964600451784        3.15737667361618
H            1.49745534924987       -1.59387849423555        2.70655651295137
H           -0.48290972591618       -0.90123877994746        0.52191917524379
H           -1.21936197143140       -1.15675225080959       -1.82687944222780
H           -2.14950250352671       -3.17680477604965       -2.83223046267890
H           -4.51526434326129       -3.79585904559395       -2.43219247924607
H           -5.93447496361720       -2.30968114492880       -1.03342136798083
H           -6.62247732310811        1.39070394966922        1.52491789707548
H           -5.83514495600378        3.42273972888413        2.72093447352319
H           -3.44373611009476        4.05373993999436        2.58327430310186
H           -1.89328639106439        2.71860802819452        1.24594944329518
H           -1.58502186122985        2.81780957494161       -1.25364789278341
H            0.84058151411901        3.37190067814679       -1.51673634804956

          :  Hamiltonian                  GFN2-xTB          :
         :: gradient norm              0.000039497582 Eh/a0 ::
         :: HOMO-LUMO gap              2.393517633150 eV    ::
         :: SCC energy               -97.316629433709 Eh    ::
         :: -> dispersion             -0.082719563765 Eh    ::
         :: repulsion energy           1.570407858743 Eh    ::

    * Orbital Energies and Occupations

         #    Occupation            Energy/Eh            Energy/eV
      -------------------------------------------------------------
         1        2.0000           -0.7653155             -20.8253
       ...           ...                  ...                  ...
        75        2.0000           -0.4329307             -11.7806
        76        2.0000           -0.4313824             -11.7385
        77        2.0000           -0.4306064             -11.7174
        78        2.0000           -0.4288209             -11.6688
        79        2.0000           -0.4268481             -11.6151
        80        2.0000           -0.4251352             -11.5685
        81        2.0000           -0.4237233             -11.5301
        82        2.0000           -0.4188635             -11.3979
        83        2.0000           -0.4157834             -11.3140
        84        2.0000           -0.4013986             -10.9226
        85        2.0000           -0.3933023             -10.7023
        86        2.0000           -0.3806101             -10.3569
        87        2.0000           -0.3471909              -9.4475 (HOMO)
        88                         -0.2592307              -7.0540 (LUMO)
        89                         -0.2565742              -6.9817
        90                         -0.2538316              -6.9071
        91                         -0.2522453              -6.8639
        92                         -0.2476143              -6.7379
        93                         -0.2413964              -6.5687
        94                         -0.2327000              -6.3321
        95                         -0.2235844              -6.0840
        96                         -0.2164428              -5.8897
        97                         -0.1986368              -5.4052
        98                         -0.1302995              -3.5456
       ...                                ...                  ...
       169                          1.2190613              33.1723
      -------------------------------------------------------------
                  HL-Gap            0.0879602 Eh            2.3935 eV

     #   Z          covCN         q      C6AA      α(0)
     1   8 O        0.860    -0.541    24.705     6.664
     2  16 S        3.845     0.958   107.875    17.481
     3   8 O        0.860    -0.552    24.956     6.698
     4   6 C        2.973    -0.097    30.430     9.048
     5   6 C        2.973    -0.021    28.514     8.759
     6   6 C        2.918    -0.034    28.857     8.809
     7   6 C        2.920    -0.025    28.630     8.774
     8   6 C        2.926    -0.052    29.287     8.875
     9   6 C        2.952     0.065    26.547     8.451
    10   7 N        2.751    -0.069    22.577     7.057
    11   6 C        2.934     0.066    26.517     8.445
    12   6 C        2.922    -0.036    28.899     8.816
    13   6 C        2.920    -0.024    28.613     8.772
    14   6 C        2.920    -0.028    28.696     8.785
    15   6 C        2.920    -0.027    28.676     8.781
    16   6 C        2.920    -0.039    28.961     8.825
    17   6 C        2.959     0.065    26.550     8.451
    18   6 C        2.931    -0.067    29.676     8.934
    19   6 C        2.920     0.071    26.407     8.427
    20   7 N        2.752    -0.068    22.563     7.055
    21   6 C        2.921     0.041    27.078     8.533
    22   6 C        2.924    -0.061    29.516     8.909
    23   6 C        2.919    -0.039    28.969     8.826
    24   6 C        2.919    -0.040    28.996     8.830
    25   6 C        2.920    -0.056    29.397     8.891
    26   6 C        2.885     0.125    25.249     8.238
    27   8 O        1.709    -0.253    18.194     5.759
    28   6 C        2.884     0.125    25.256     8.239
    29   6 C        2.920    -0.056    29.388     8.890
    30   6 C        2.919    -0.040    28.983     8.828
    31   6 C        2.919    -0.038    28.950     8.823
    32   6 C        2.924    -0.060    29.499     8.907
    33   6 C        2.921     0.041    27.070     8.532
    34   6 C        2.920    -0.049    29.211     8.863
    35   6 C        2.967    -0.021    28.539     8.763
    36   6 C        2.972    -0.103    30.584     9.071
    37   1 H        0.926     0.061     2.184     2.311
    38   1 H        0.926     0.050     2.314     2.379
    39   1 H        0.926     0.048     2.344     2.394
    40   1 H        0.926     0.045     2.383     2.414
    41   1 H        0.926     0.048     2.340     2.392
    42   1 H        0.926     0.047     2.356     2.400
    43   1 H        0.926     0.045     2.381     2.413
    44   1 H        0.926     0.045     2.385     2.415
    45   1 H        0.926     0.045     2.381     2.413
    46   1 H        0.926     0.050     2.318     2.381
    47   1 H        0.926     0.034     2.528     2.486
    48   1 H        0.926     0.036     2.497     2.471
    49   1 H        0.926     0.040     2.453     2.449
    50   1 H        0.926     0.052     2.291     2.367
    51   1 H        0.926     0.052     2.293     2.368
    52   1 H        0.926     0.040     2.446     2.446
    53   1 H        0.926     0.039     2.468     2.457
    54   1 H        0.926     0.036     2.498     2.471
    55   1 H        0.926     0.057     2.228     2.334
    56   1 H        0.926     0.065     2.140     2.288

molecular dipole:
                 x           y           z       tot (Debye)
 q only:       -0.611      -2.089       1.705
   full:       -0.471      -2.039       1.657       6.786

 projected vibrational frequencies (cm⁻¹)
eigval :       -0.00    -0.00     0.00     0.00     0.00     0.00
eigval :       11.90    14.31    21.58    27.72    33.19    43.30
eigval :       59.23    65.72    88.09    95.82   116.65   131.53
eigval :      139.00   164.49   186.83   206.63   227.03   237.31
eigval :      240.80   249.13   258.09   270.99   287.83   300.73
eigval :      345.50   371.62   374.89   379.41   384.48   397.68
eigval :      404.85   425.19   430.13   438.52   440.73   459.88
eigval :      469.73   480.81   505.18   510.09   518.23   521.50
eigval :      528.50   534.86   576.81   586.41   591.30   603.26
eigval :      612.41   629.66   652.11   660.23   661.64   666.30
eigval :      671.65   673.43   680.31   716.63   740.92   768.12
eigval :      775.41   778.37   779.95   809.05   827.25   856.01
eigval :      859.48   868.49   868.72   879.16   879.91   888.23
eigval :      898.53   899.75   905.24   911.09   912.18   913.06
eigval :      915.08   917.39   919.61   923.60   931.31   934.40
eigval :      990.96  1014.75  1042.48  1074.55  1077.79  1091.03
eigval :     1092.37  1092.44  1108.72  1112.86  1114.36  1121.89
eigval :     1153.78  1159.52  1167.20  1175.28  1177.51  1179.85
eigval :     1182.63  1185.45  1198.34  1202.25  1222.70  1230.83
eigval :     1239.10  1240.46  1244.96  1262.42  1271.74  1281.10
eigval :     1309.73  1310.50  1310.86  1321.13  1326.24  1331.82
eigval :     1340.89  1354.95  1413.24  1423.60  1427.38  1432.91
eigval :     1442.85  1459.68  1463.09  1473.57  1488.17  1504.17
eigval :     1550.77  1561.28  1567.70  1576.31  1581.07  1584.77
eigval :     1590.81  1591.97  1599.07  1603.34  3084.01  3087.06
eigval :     3087.88  3090.05  3090.99  3092.68  3097.94  3100.42
eigval :     3100.50  3101.41  3103.31  3104.68  3106.72  3107.22
eigval :     3108.10  3109.92  3111.37  3112.50  3113.77  3114.29

   temp. (K)  partition function   enthalpy   heat capacity  entropy
                                   cal/mol     cal/K/mol   cal/K/mol   J/K/mol
 298.15  VIB  0.308E+13            16214.015    103.637     99.543
         ROT  0.302E+08              888.752      2.981     37.206
         INT  0.929E+20            17102.767    106.618    136.749
         TR   0.104E+29             1481.254      4.968     44.426
         TOT                       18584.0210   111.5863   181.1754   758.0377

       T/K    H(0)-H(T)+PV         H(T)/Eh          T*S/Eh         G(T)/Eh
   ------------------------------------------------------------------------
    298.15    0.296155E-01    0.443372E+00    0.860823E-01    0.357290E+00
   ------------------------------------------------------------------------

         :::::::::::::::::::::::::::::::::::::::::::::::::::::
         ::                  THERMODYNAMIC                  ::
         :::::::::::::::::::::::::::::::::::::::::::::::::::::
         :: total free energy         -95.388931712125 Eh   ::
         ::.................................................::
         :: total energy              -95.746221574965 Eh   ::
         :: zero point energy           0.413756595661 Eh   ::
         :: G(RRHO) w/o ZPVE           -0.056466732820 Eh   ::
         :: G(RRHO) contrib.            0.357289862841 Eh   ::
         :::::::::::::::::::::::::::::::::::::::::::::::::::::

           -------------------------------------------------
          | TOTAL ENERGY              -95.746221574965 Eh   |
          | TOTAL ENTHALPY            -95.302849456685 Eh   |
          | TOTAL FREE ENERGY         -95.388931712125 Eh   |
          | GRADIENT NORM               0.000039478186 Eh/α |
          | HOMO-LUMO GAP               2.393518287890 eV   |
           -------------------------------------------------

 * finished run on 2025/08/29 at 19:49:18.795
