   * xtb version 6.7.1 (edcfbbe) compiled by 'albert@albert-system' on 2024-07-22

   ID    Z sym.   atoms
    1    8 O      1, 3, 27
    2   16 S      2
    3    6 C      4-9, 11-19, 21-26, 28-36
    4    7 N      10, 20
    5    1 H      37-56

          program call               : xtb data2507/gas/PXZ2PTO/PXZ2PTO_gas_T1_crest.xyz --gfn 2 --spinpol --tblite --uhf 2 --ohess vtight --parallel 40 --molden --ceasefiles --namespace data2507/gas/PXZ2PTO/PXZ2PTO_gas_T1_finalOpt
 * total energy  :   -95.6526551 Eh     change       -0.2288242E-07 Eh
 * total energy  :   -95.6526656 Eh     change       -0.1047296E-04 Eh
 * total energy  :   -95.6526693 Eh     change       -0.3711636E-05 Eh
 * total energy  :   -95.6526703 Eh     change       -0.9887549E-06 Eh
 * total energy  :   -95.6526714 Eh     change       -0.1176172E-05 Eh
 * total energy  :   -95.6526727 Eh     change       -0.1252162E-05 Eh
 * total energy  :   -95.6526744 Eh     change       -0.1731207E-05 Eh
 * total energy  :   -95.6526762 Eh     change       -0.1749604E-05 Eh
 * total energy  :   -95.6526777 Eh     change       -0.1537091E-05 Eh
 * total energy  :   -95.6526792 Eh     change       -0.1527083E-05 Eh
 * total energy  :   -95.6526862 Eh     change       -0.9959049E-06 Eh
 * total energy  :   -95.6526871 Eh     change       -0.8052564E-06 Eh
 * total energy  :   -95.6526877 Eh     change       -0.6661450E-06 Eh
 * total energy  :   -95.6526884 Eh     change       -0.6905397E-06 Eh
 * total energy  :   -95.6526888 Eh     change       -0.3558447E-06 Eh
 * total energy  :   -95.6526890 Eh     change       -0.2681220E-06 Eh
 * total energy  :   -95.6526890 Eh     change        0.5256936E-08 Eh
 * total energy  :   -95.6526890 Eh     change        0.1263618E-07 Eh
 * total energy  :   -95.6526890 Eh     change       -0.5991126E-08 Eh
   *** GEOMETRY OPTIMIZATION CONVERGED AFTER 24 ITERATIONS ***

 final structure:
================
56
 xtb: 6.7.1 (edcfbbe)
O            3.44669395356920        3.27106693731055       -0.97370345070246
S            3.16462195176388        1.87329767213183       -1.15997641207663
O            3.42306118620407        1.31838943244872       -2.46633673039552
C            4.05777361518320        0.88663124401668        0.01988693714592
C            5.36940824038583        1.22218913806518        0.29196764670856
C            6.15436140395889        0.39341598429236        1.07229839065394
C            5.60696433291624       -0.79037563599212        1.54515291347051
C            4.29320628271077       -1.12263800440539        1.28466226338021
C            3.47232011009967       -0.27187133830636        0.52856939976173
N            2.13708304961632       -0.58444747649850        0.32458719669292
C            1.68834448345093       -1.90433259841269        0.64473116886812
C            1.52633928433648       -2.81983821486500       -0.38530658311788
C            1.06816224065881       -4.09531825372962       -0.10494960140590
C            0.77421739786917       -4.45658020007336        1.19997175465510
C            0.93601529864181       -3.54129033243082        2.22697354468019
C            1.38936046112958       -2.26236901637056        1.95416971629148
C            1.17148195192147        0.30254105561943       -0.11870928694214
C           -0.17884375339746        0.00348869689648        0.07052597500191
C           -1.16981334339032        0.88118022550413       -0.36179520359070
N           -2.52930629813645        0.52029644504407       -0.18048372477632
C           -3.03441604094961       -0.57090590556857       -0.84306112679645
C           -2.28490187090382       -1.35402431105507       -1.73301491656567
C           -2.84100310898284       -2.43970204037334       -2.35526085215035
C           -4.19892773527043       -2.78769917162639       -2.12843536899479
C           -4.97264374012428       -2.01815065071518       -1.29792688410395
C           -4.42930480233661       -0.90865722791759       -0.65037744238885
O           -5.23372143812405       -0.15753507640407        0.12424139182772
C           -4.72867173094580        0.91522184779697        0.76096896745239
C           -5.57458502703773        1.68124582048962        1.56038187584860
C           -5.08669127789252        2.75527783472986        2.26146005754389
C           -3.70434045101040        3.07874524962228        2.19228515076455
C           -2.85500266199765        2.34893876800713        1.40655828103229
C           -3.32773175440553        1.26829549022582        0.64451221404326
C           -0.84085520647453        2.09754698776098       -0.96807168216885
C            0.48886621365053        2.40268217614507       -1.14662580608103
C            1.48229949758747        1.52072409728822       -0.73708035099384
H            5.74906218739958        2.13883413674785       -0.13116701296854
H            7.17818258345382        0.65131587489366        1.29065072943200
H            6.21148312058080       -1.46669343473170        2.13104521829402
H            3.89750474238670       -2.05078437769841        1.66566397101265
H            1.75988439114385       -2.52315935471028       -1.39683126016843
H            0.94129599587700       -4.80757533445755       -0.90577286636851
H            0.41749282231700       -5.45193117220104        1.41686621581039
H            0.70499871829743       -3.82152070795306        3.24374965446798
H            1.51121275343238       -1.53795754714811        2.74600989664853
H           -0.47674922260723       -0.91277450228312        0.55562372498122
H           -1.25789842672639       -1.08787408810306       -1.92766698377767
H           -2.24917212483508       -3.03316283547463       -3.03286228397330
H           -4.61920190419271       -3.64658849968500       -2.62506291996126
H           -6.01390307564217       -2.24249569999891       -1.12658340277132
H           -6.61425673606639        1.39795992823755        1.61301339129812
H           -5.74218335850427        3.34832613542225        2.87726436246872
H           -3.32658429900570        3.90601419602013        2.77077172794638
H           -1.80538149773982        2.59557915628527        1.36555605030435
H           -1.62096664449724        2.76394288147256       -1.29983966828041
H            0.80170429755306        3.32063616261341       -1.61709812006977

 projected vibrational frequencies (cm⁻¹)
eigval :       -0.00    -0.00    -0.00    -0.00     0.00     0.00
eigval :       10.13    13.80    19.39    26.70    30.63    52.42
eigval :       55.53    78.55    82.68    88.26   100.85   123.25
eigval :      134.27   158.69   182.67   202.82   223.25   227.74
eigval :      235.37   238.06   253.40   269.40   288.41   304.76
eigval :      346.95   355.94   374.27   375.12   378.81   383.45
eigval :      387.73   407.17   414.48   421.90   424.45   433.72
eigval :      455.83   461.13   476.54   486.88   504.99   512.63
eigval :      525.68   533.12   566.30   579.52   587.58   593.37
eigval :      597.85   599.67   610.25   618.26   634.93   648.60
eigval :      659.66   669.75   674.13   713.18   728.04   730.87
eigval :      731.55   762.92   773.10   798.24   802.09   821.85
eigval :      823.11   830.50   842.53   865.12   874.58   878.70
eigval :      880.01   884.75   885.16   889.50   890.11   899.09
eigval :      903.83   908.11   909.93   921.93   929.26   932.92
eigval :      985.31   993.97  1021.79  1036.35  1041.71  1065.80
eigval :     1076.31  1091.08  1104.37  1112.48  1114.18  1117.97
eigval :     1144.42  1150.34  1154.69  1158.11  1166.55  1173.56
eigval :     1177.11  1179.22  1181.27  1193.49  1216.06  1225.00
eigval :     1231.84  1234.46  1242.47  1263.36  1270.35  1272.12
eigval :     1293.93  1306.41  1312.16  1313.93  1320.50  1325.04
eigval :     1328.27  1333.80  1347.44  1376.28  1398.05  1404.71
eigval :     1421.85  1430.97  1432.08  1437.94  1443.69  1451.32
eigval :     1455.48  1462.92  1469.18  1471.38  1476.32  1535.65
eigval :     1546.32  1568.50  1570.88  1582.13  3082.51  3085.02
eigval :     3086.96  3091.77  3095.23  3096.91  3097.65  3098.68
eigval :     3099.21  3100.65  3101.49  3103.40  3104.59  3106.23
eigval :     3107.43  3108.04  3110.34  3114.41  3115.63  3116.93

   temp. (K)  partition function   enthalpy   heat capacity  entropy
                                   cal/mol     cal/K/mol   cal/K/mol   J/K/mol
 298.15  VIB  0.713E+13            16616.649    106.153    102.364
         ROT  0.303E+08              888.752      2.981     37.212
         INT  0.216E+21            17505.402    109.134    139.577
         TR   0.104E+29             1481.254      4.968     44.426
         TOT                       18986.6556   114.1018   184.0029   769.8681

       T/K    H(0)-H(T)+PV         H(T)/Eh          T*S/Eh         G(T)/Eh
   ------------------------------------------------------------------------
    298.15    0.302572E-01    0.438388E+00    0.874257E-01    0.350962E+00
   ------------------------------------------------------------------------

         :::::::::::::::::::::::::::::::::::::::::::::::::::::
         ::                  THERMODYNAMIC                  ::
         :::::::::::::::::::::::::::::::::::::::::::::::::::::
         :: total free energy         -95.301727075140 Eh   ::
         ::.................................................::
         :: total energy              -95.652689032350 Eh   ::
         :: zero point energy           0.408130503364 Eh   ::
         :: G(RRHO) w/o ZPVE           -0.057168546154 Eh   ::
         :: G(RRHO) contrib.            0.350961957210 Eh   ::
         :::::::::::::::::::::::::::::::::::::::::::::::::::::

           -------------------------------------------------
          | TOTAL ENERGY              -95.652689032350 Eh   |
          | TOTAL ENTHALPY            -95.214301367288 Eh   |
          | TOTAL FREE ENERGY         -95.301727075140 Eh   |
          | GRADIENT NORM               0.000161223854 Eh/α |
           -------------------------------------------------

 * finished run on 2025/08/29 at 19:52:40.603
