   * xtb version 6.7.1 (edcfbbe) compiled by 'albert@albert-system' on 2024-07-22

   ID    Z sym.   atoms
    1    8 O      1, 3, 27
    2   16 S      2
    3    6 C      4-9, 11-19, 21-26, 28-36
    4    7 N      10, 20
    5    1 H      37-56

          program call               : xtb data2507/gas/PXZ2PTO/PXZ2PTO_gas_S0_finalOpt.xtbopt.xyz --gfn 2 --spinpol --tblite --uhf 2 --ohess vtight --parallel 40 --molden --ceasefiles --namespace data2507/gas/PXZ2PTO/PXZ2PTO_gas_T1_preOpt
 * total energy  :   -95.6444457 Eh     change        0.2319024E-07 Eh
 * total energy  :   -95.6507721 Eh     change       -0.6326429E-02 Eh
 * total energy  :   -95.6524287 Eh     change       -0.1656625E-02 Eh
 * total energy  :   -95.6525353 Eh     change       -0.1066074E-03 Eh
 * total energy  :   -95.6525875 Eh     change       -0.5215373E-04 Eh
 * total energy  :   -95.6526050 Eh     change       -0.1753355E-04 Eh
 * total energy  :   -95.6526235 Eh     change       -0.1847111E-04 Eh
 * total energy  :   -95.6526359 Eh     change       -0.1242316E-04 Eh
 * total energy  :   -95.6526402 Eh     change       -0.4269659E-05 Eh
 * total energy  :   -95.6526432 Eh     change       -0.3040866E-05 Eh
 * total energy  :   -95.6526887 Eh     change       -0.1145287E-06 Eh
 * total energy  :   -95.6526893 Eh     change       -0.5460729E-06 Eh
 * total energy  :   -95.6526894 Eh     change       -0.1608274E-06 Eh
 * total energy  :   -95.6526894 Eh     change        0.4713911E-08 Eh
 * total energy  :   -95.6526896 Eh     change       -0.2022012E-06 Eh
 * total energy  :   -95.6526898 Eh     change       -0.1653391E-06 Eh
 * total energy  :   -95.6526896 Eh     change        0.1603065E-06 Eh
 * total energy  :   -95.6526899 Eh     change       -0.2663501E-06 Eh
 * total energy  :   -95.6526899 Eh     change       -0.4281874E-07 Eh
   *** GEOMETRY OPTIMIZATION CONVERGED AFTER 54 ITERATIONS ***

 final structure:
================
56
 xtb: 6.7.1 (edcfbbe)
O            3.46470489818310        3.24327362955923       -0.96978960739103
S            3.17292530377177        1.84817025580721       -1.16130673771916
O            3.42545498481435        1.29713823744435       -2.47049009568788
C            4.06191907727445        0.85113586668300        0.01303471944314
C            5.37782827062428        1.17454049415712        0.27912662239163
C            6.15882914313921        0.33853626663247        1.05568239815477
C            5.60264436358343       -0.83995965936839        1.53148981278256
C            4.28476299718701       -1.16016169517545        1.27688630559782
C            3.46836002457501       -0.30225945369422        0.52392311590218
N            2.12998065143877       -0.60406343149653        0.32489301067218
C            1.67111654160070       -1.91874858017135        0.65236711876808
C            1.50177115225788       -2.83918351686608       -0.37206898945338
C            1.03216879430793       -4.10880293564729       -0.08400265365211
C            0.73424198177240       -4.45927391151289        1.22293681445893
C            0.90392132453737       -3.53921543191432        2.24440491942633
C            1.36874660934458       -2.26611221577196        1.96388527462029
C            1.17024915057849        0.28856818752731       -0.11983435159641
C           -0.18203209377380       -0.00312460430855        0.06653298733042
C           -1.16777811773062        0.87833782564620       -0.37009476669754
N           -2.52911120613653        0.52152402274812       -0.19624862978938
C           -3.03091523311619       -0.57410156634920       -0.85441798729533
C           -2.27660718751814       -1.36471483339294       -1.73377363904384
C           -2.82922091085311       -2.45550298846250       -2.35005717160835
C           -4.18844658153961       -2.80149032197908       -2.12842216850174
C           -4.96709809613734       -2.02409917378393       -1.30989240175997
C           -4.42736275581103       -0.90917801897916       -0.66875810659463
O           -5.23696100277769       -0.15027273786478        0.09271145051366
C           -4.73561451089487        0.92747101973029        0.72392292232690
C           -5.58723076035566        1.70174507755428        1.50916334087612
C           -5.10348751329636        2.78048726193966        2.20592106264292
C           -3.71970275432205        3.09987432244849        2.14740076741223
C           -2.86480282949689        2.36205450306264        1.37533315955160
C           -3.33304136501607        1.27698609067431        0.61669688381636
C           -0.83108432846047        2.09308640370795       -0.97561115968378
C            0.50060688328883        2.39172007978007       -1.14997757989211
C            1.48879965038101        1.50493557753396       -0.73801290696663
H            5.76385941943089        2.08779775878342       -0.14557449230653
H            7.18603759648737        0.58693744374939        1.26910682224516
H            6.20348550478654       -1.52164288354879        2.11494427752053
H            3.88214133923563       -2.08444604038599        1.66003956598979
H            1.73823864064819       -2.55090548132421       -1.38533438889314
H            0.89923549266694       -4.82483538703477       -0.88045741559163
H            0.36820418426277       -5.44992136951171        1.44575273863425
H            0.66994744614277       -3.81105823228227        3.26277103861126
H            1.49692024585251       -1.53787992434481        2.75119221881456
H           -0.48588360661741       -0.91734305816381        0.55179956576359
H           -1.24854807365831       -1.10048273385336       -1.92522516652869
H           -2.23347953047326       -3.05461055727652       -3.01921582567302
H           -4.60579252425555       -3.66470901487112       -2.61994668109097
H           -6.00960707478720       -2.24621007372781       -1.14341852572540
H           -6.62789044195459        1.42087032000160        1.55457656763436
H           -5.76331931630979        3.38007349164297        2.81068481139703
H           -3.34529692178591        3.93048677769205        2.72330852838910
H           -1.81420331885679        2.60572710086526        1.34279121756230
H           -1.60685099568373        2.76287575592344       -1.31071267362064
H            0.81923356512567        3.30807557436175       -1.61974255364786

 projected vibrational frequencies (cm⁻¹)
eigval :       -0.00    -0.00    -0.00    -0.00     0.00     0.00
eigval :       10.76    13.17    20.04    26.77    30.87    52.57
eigval :       55.75    78.59    82.90    88.32   101.10   123.38
eigval :      134.24   159.10   182.84   203.01   223.37   227.67
eigval :      235.61   238.11   253.48   269.47   288.46   304.88
eigval :      347.04   356.34   374.21   375.09   379.02   383.71
eigval :      387.73   407.29   414.57   421.95   424.52   434.15
eigval :      455.80   461.14   476.59   487.00   505.05   512.71
eigval :      525.65   533.12   566.33   579.15   587.54   593.31
eigval :      597.84   599.67   610.30   618.28   634.67   648.35
eigval :      659.64   669.76   673.95   713.32   727.94   730.80
eigval :      731.53   762.85   773.07   798.37   803.38   821.82
eigval :      823.49   829.43   842.77   865.08   874.24   878.54
eigval :      879.35   884.78   885.19   889.61   890.23   899.39
eigval :      903.79   908.21   910.01   921.98   929.24   932.87
eigval :      985.29   993.85  1022.54  1036.50  1041.92  1065.64
eigval :     1076.32  1091.14  1104.25  1112.48  1114.07  1117.97
eigval :     1145.25  1150.69  1154.62  1158.18  1166.30  1173.78
eigval :     1177.29  1179.51  1181.45  1193.53  1216.36  1224.84
eigval :     1231.94  1234.35  1242.57  1263.88  1270.60  1272.31
eigval :     1293.82  1306.05  1312.07  1314.23  1320.25  1324.90
eigval :     1328.48  1333.84  1347.53  1376.23  1396.78  1404.68
eigval :     1421.80  1431.12  1431.60  1437.69  1443.54  1451.08
eigval :     1456.28  1462.92  1469.36  1471.55  1476.15  1535.87
eigval :     1546.13  1568.53  1570.72  1582.34  3082.95  3085.19
eigval :     3087.28  3092.12  3095.31  3097.33  3097.95  3098.85
eigval :     3099.45  3100.86  3101.51  3103.69  3104.60  3106.40
eigval :     3107.36  3108.29  3110.61  3114.22  3116.11  3116.91

   temp. (K)  partition function   enthalpy   heat capacity  entropy
                                   cal/mol     cal/K/mol   cal/K/mol   J/K/mol
 298.15  VIB  0.663E+13            16611.600    106.161    102.284
         ROT  0.302E+08              888.752      2.981     37.211
         INT  0.201E+21            17500.352    109.142    139.496
         TR   0.104E+29             1481.254      4.968     44.426
         TOT                       18981.6063   114.1103   183.9219   769.5294

       T/K    H(0)-H(T)+PV         H(T)/Eh          T*S/Eh         G(T)/Eh
   ------------------------------------------------------------------------
    298.15    0.302491E-01    0.438404E+00    0.873872E-01    0.351017E+00
   ------------------------------------------------------------------------

         :::::::::::::::::::::::::::::::::::::::::::::::::::::
         ::                  THERMODYNAMIC                  ::
         :::::::::::::::::::::::::::::::::::::::::::::::::::::
         :: total free energy         -95.301673426282 Eh   ::
         ::.................................................::
         :: total energy              -95.652689967486 Eh   ::
         :: zero point energy           0.408154674193 Eh   ::
         :: G(RRHO) w/o ZPVE           -0.057138132989 Eh   ::
         :: G(RRHO) contrib.            0.351016541204 Eh   ::
         :::::::::::::::::::::::::::::::::::::::::::::::::::::

           -------------------------------------------------
          | TOTAL ENERGY              -95.652689967486 Eh   |
          | TOTAL ENTHALPY            -95.214286178217 Eh   |
          | TOTAL FREE ENERGY         -95.301673426282 Eh   |
          | GRADIENT NORM               0.000084096848 Eh/α |
           -------------------------------------------------

 * finished run on 2025/08/29 at 19:49:25.509
