   * xtb version 6.7.1 (edcfbbe) compiled by 'albert@albert-system' on 2024-07-22

   ID    Z sym.   atoms
    1    8 O      1, 3, 27
    2   16 S      2
    3    6 C      4-9, 11-19, 21-26, 28-36
    4    7 N      10, 20
    5    1 H      37-56

          program call               : xtb data2507/gas/PXZ2PTO/PXZ2PTO.xyz --gfn 2 --ohess vtight --parallel 40 --molden --ceasefiles --namespace data2507/gas/PXZ2PTO/PXZ2PTO_gas_S0_preOpt
          :  Hamiltonian                  GFN2-xTB          :
 * total energy  :   -95.7225284 Eh     change       -0.2789918E-08 Eh
 * total energy  :   -95.7360387 Eh     change       -0.1351029E-01 Eh
 * total energy  :   -95.7421057 Eh     change       -0.6067013E-02 Eh
 * total energy  :   -95.7435436 Eh     change       -0.1437867E-02 Eh
 * total energy  :   -95.7442219 Eh     change       -0.6782822E-03 Eh
 * total energy  :   -95.7444219 Eh     change       -0.2000210E-03 Eh
 * total energy  :   -95.7444682 Eh     change       -0.4632924E-04 Eh
 * total energy  :   -95.7444885 Eh     change       -0.2024703E-04 Eh
 * total energy  :   -95.7445005 Eh     change       -0.1203546E-04 Eh
 * total energy  :   -95.7445247 Eh     change       -0.2417965E-04 Eh
 * total energy  :   -95.7462203 Eh     change       -0.1613674E-06 Eh
 * total energy  :   -95.7462205 Eh     change       -0.2010884E-06 Eh
 * total energy  :   -95.7462208 Eh     change       -0.2404477E-06 Eh
 * total energy  :   -95.7462210 Eh     change       -0.2150765E-06 Eh
 * total energy  :   -95.7462211 Eh     change       -0.1429720E-06 Eh
 * total energy  :   -95.7462212 Eh     change       -0.1277972E-06 Eh
 * total energy  :   -95.7462214 Eh     change       -0.1124162E-06 Eh
 * total energy  :   -95.7462215 Eh     change       -0.1119195E-06 Eh
 * total energy  :   -95.7462215 Eh     change       -0.1602544E-08 Eh
   *** GEOMETRY OPTIMIZATION CONVERGED AFTER 122 ITERATIONS ***

 final structure:
================
56
 xtb: 6.7.1 (edcfbbe)
O            3.30542874014880        3.91038972724515       -1.01072874648551
S            3.09762691675393        2.53182251954070       -1.36015496284639
O            3.27946187255612        2.16572622367761       -2.74204579422917
C            4.13954391596578        1.47257150502204       -0.38254679909922
C            5.45502622165931        1.85275092643937       -0.19803283321576
C            6.34963112423687        0.99699185409865        0.41510869966081
C            5.90643010746547       -0.25643552335753        0.81266661976002
C            4.59076496341033       -0.63426096289021        0.64038246273010
C            3.66182508284440        0.23769906759455        0.05322775399426
N            2.33044451951518       -0.13162588838141       -0.06026894663027
C            1.97602796392192       -1.49471898091203        0.19465117987416
C            1.75755457234881       -2.33889683199724       -0.88482160571293
C            1.38025455462154       -3.65202085196508       -0.66364988362183
C            1.22527420526308       -4.12153255098366        0.62980337339169
C            1.44638320501925       -3.27787750654270        1.70625141948765
C            1.81835173927513       -1.96204561438140        1.49337038358181
C            1.28631027046506        0.73008462115550       -0.35030525557598
C           -0.02976301119147        0.32924757944948       -0.08954044098748
C           -1.10520164616585        1.15646102902555       -0.37793311501003
N           -2.41118275908899        0.68577363756027       -0.14671041630443
C           -2.86989031042326       -0.47604113547532       -0.77835530376125
C           -2.10497080243122       -1.17670732417719       -1.70280660001280
C           -2.59292414916426       -2.32542491123244       -2.30678634531494
C           -3.85853633244331       -2.78766700859621       -2.00932621235860
C           -4.64983215866802       -2.07950679704328       -1.11762026787285
C           -4.16846283802204       -0.93215594681329       -0.51428161479703
O           -5.02694082279216       -0.27012108249822        0.32627276897999
C           -4.55812976327151        0.85879568466242        0.95025970438247
C           -5.42327981825470        1.49618731228650        1.82027454068670
C           -5.01154724889218        2.62175433258894        2.51792280032515
C           -3.72306293329225        3.08801838182170        2.35423130113014
C           -2.85247561145773        2.45328951689566        1.48115663922225
C           -3.26144692394104        1.34809189654728        0.74571410300913
C           -0.89292622015923        2.43552984597694       -0.89492124554562
C            0.40231788713621        2.84916393448140       -1.12733448815309
C            1.47069069590584        2.00941895705315       -0.87231010020724
H            5.74800169516871        2.82741374610346       -0.55535600939758
H            7.37684200330500        1.28895298388477        0.56321791443844
H            6.59556017987553       -0.95174373084724        1.26819277652097
H            4.27734683575043       -1.61570539577583        0.95929138501564
H            1.88150342618357       -1.95803725483664       -1.88747430138601
H            1.20684250280990       -4.30833213786126       -1.50258336104044
H            0.92991570439692       -5.14551114373860        0.80032071364347
H            1.32355817593551       -3.64272807972997        2.71481843573821
H            1.98323864305325       -1.29245165520742        2.32467588892594
H           -0.22782169530002       -0.64096879040958        0.33864248692156
H           -1.12295133457294       -0.81748303996220       -1.96566652663180
H           -1.97224187271598       -2.84971286812201       -3.01686324114428
H           -4.24153704617472       -3.68302638196681       -2.47268122185349
H           -5.65238267076483       -2.39740004818125       -0.88012383439040
H           -6.41513808865032        1.09098984741258        1.94107666280471
H           -5.69464352435772        3.11564770581764        3.19056306107172
H           -3.37942662631703        3.94918982877359        2.90609623038963
H           -1.84330588467249        2.81909364211719        1.37706458569044
H           -1.73155173819939        3.07404975029706       -1.12219397677270
H            0.61941110640954        3.82502738637952       -1.53182844095925

          :  Hamiltonian                  GFN2-xTB          :
         :: gradient norm              0.000030685871 Eh/a0 ::
         :: HOMO-LUMO gap              2.394500957698 eV    ::
         :: SCC energy               -97.316623577433 Eh    ::
         :: -> dispersion             -0.082758526591 Eh    ::
         :: repulsion energy           1.570402106515 Eh    ::

    * Orbital Energies and Occupations

         #    Occupation            Energy/Eh            Energy/eV
      -------------------------------------------------------------
         1        2.0000           -0.7653120             -20.8252
       ...           ...                  ...                  ...
        75        2.0000           -0.4329655             -11.7816
        76        2.0000           -0.4313624             -11.7380
        77        2.0000           -0.4306128             -11.7176
        78        2.0000           -0.4288308             -11.6691
        79        2.0000           -0.4268520             -11.6152
        80        2.0000           -0.4251169             -11.5680
        81        2.0000           -0.4237050             -11.5296
        82        2.0000           -0.4188877             -11.3985
        83        2.0000           -0.4157939             -11.3143
        84        2.0000           -0.4014154             -10.9231
        85        2.0000           -0.3933176             -10.7027
        86        2.0000           -0.3806182             -10.3571
        87        2.0000           -0.3472131              -9.4481 (HOMO)
        88                         -0.2592169              -7.0537 (LUMO)
        89                         -0.2565821              -6.9820
        90                         -0.2539111              -6.9093
        91                         -0.2523032              -6.8655
        92                         -0.2476237              -6.7382
        93                         -0.2414208              -6.5694
        94                         -0.2327191              -6.3326
        95                         -0.2234471              -6.0803
        96                         -0.2164396              -5.8896
        97                         -0.1986525              -5.4056
        98                         -0.1301396              -3.5413
       ...                                ...                  ...
       169                          1.2189563              33.1695
      -------------------------------------------------------------
                  HL-Gap            0.0879962 Eh            2.3945 eV

     #   Z          covCN         q      C6AA      α(0)
     1   8 O        0.860    -0.541    24.708     6.664
     2  16 S        3.845     0.958   107.876    17.481
     3   8 O        0.860    -0.552    24.956     6.698
     4   6 C        2.973    -0.097    30.428     9.048
     5   6 C        2.973    -0.020    28.513     8.759
     6   6 C        2.918    -0.034    28.856     8.809
     7   6 C        2.920    -0.025    28.630     8.774
     8   6 C        2.926    -0.052    29.288     8.875
     9   6 C        2.952     0.065    26.548     8.451
    10   7 N        2.751    -0.069    22.574     7.057
    11   6 C        2.934     0.066    26.517     8.445
    12   6 C        2.922    -0.036    28.899     8.816
    13   6 C        2.920    -0.024    28.613     8.772
    14   6 C        2.920    -0.028    28.697     8.785
    15   6 C        2.920    -0.027    28.675     8.781
    16   6 C        2.920    -0.039    28.961     8.825
    17   6 C        2.959     0.065    26.550     8.452
    18   6 C        2.931    -0.067    29.678     8.934
    19   6 C        2.920     0.071    26.408     8.427
    20   7 N        2.752    -0.068    22.563     7.055
    21   6 C        2.921     0.041    27.078     8.533
    22   6 C        2.924    -0.061    29.515     8.909
    23   6 C        2.919    -0.039    28.969     8.826
    24   6 C        2.919    -0.040    28.996     8.830
    25   6 C        2.920    -0.056    29.397     8.891
    26   6 C        2.885     0.125    25.248     8.238
    27   8 O        1.709    -0.253    18.194     5.759
    28   6 C        2.884     0.125    25.256     8.239
    29   6 C        2.920    -0.056    29.387     8.890
    30   6 C        2.919    -0.040    28.983     8.828
    31   6 C        2.919    -0.038    28.950     8.823
    32   6 C        2.924    -0.060    29.500     8.907
    33   6 C        2.921     0.042    27.070     8.532
    34   6 C        2.920    -0.049    29.212     8.863
    35   6 C        2.968    -0.021    28.537     8.762
    36   6 C        2.972    -0.103    30.582     9.071
    37   1 H        0.926     0.061     2.185     2.311
    38   1 H        0.926     0.050     2.314     2.379
    39   1 H        0.926     0.048     2.343     2.394
    40   1 H        0.926     0.045     2.383     2.414
    41   1 H        0.926     0.048     2.342     2.393
    42   1 H        0.926     0.047     2.356     2.400
    43   1 H        0.926     0.045     2.381     2.413
    44   1 H        0.926     0.045     2.385     2.415
    45   1 H        0.926     0.045     2.381     2.413
    46   1 H        0.926     0.050     2.319     2.381
    47   1 H        0.926     0.034     2.528     2.486
    48   1 H        0.926     0.036     2.497     2.471
    49   1 H        0.926     0.040     2.453     2.449
    50   1 H        0.926     0.052     2.291     2.367
    51   1 H        0.926     0.052     2.294     2.368
    52   1 H        0.926     0.040     2.446     2.446
    53   1 H        0.926     0.039     2.468     2.457
    54   1 H        0.926     0.036     2.496     2.471
    55   1 H        0.926     0.058     2.228     2.334
    56   1 H        0.926     0.065     2.141     2.288

molecular dipole:
                 x           y           z       tot (Debye)
 q only:       -0.321      -2.228       1.609
   full:       -0.189      -2.166       1.554       6.793

 projected vibrational frequencies (cm⁻¹)
eigval :       -0.00     0.00     0.00     0.00     0.00     0.00
eigval :       11.68    14.39    21.35    27.80    33.94    43.14
eigval :       59.21    65.66    88.10    95.94   116.61   131.49
eigval :      139.11   164.56   187.08   206.52   226.93   237.14
eigval :      240.95   249.30   258.16   270.99   287.94   300.69
eigval :      345.50   371.47   374.90   379.38   384.58   397.58
eigval :      404.63   425.25   430.20   438.54   440.84   459.94
eigval :      470.01   481.00   505.18   510.08   518.20   521.48
eigval :      528.52   534.97   576.83   586.38   591.32   603.23
eigval :      612.63   629.57   652.05   660.26   661.66   666.25
eigval :      671.63   673.50   680.14   716.67   740.99   768.11
eigval :      775.40   778.38   779.92   809.10   827.28   855.97
eigval :      859.49   868.46   868.75   879.05   879.78   888.19
eigval :      898.51   899.70   905.16   911.05   912.12   913.03
eigval :      915.04   917.38   919.70   923.63   931.21   934.36
eigval :      990.97  1014.82  1042.52  1074.63  1077.80  1091.05
eigval :     1092.44  1092.56  1108.69  1112.87  1114.35  1121.96
eigval :     1153.65  1159.51  1167.26  1175.28  1177.52  1179.84
eigval :     1182.65  1185.50  1198.34  1202.20  1222.69  1231.09
eigval :     1239.05  1240.59  1244.98  1262.08  1271.71  1281.04
eigval :     1309.71  1310.44  1310.91  1321.19  1326.30  1331.83
eigval :     1340.85  1354.94  1413.12  1423.60  1427.31  1432.96
eigval :     1442.89  1459.92  1463.11  1473.61  1488.19  1504.23
eigval :     1550.81  1561.34  1567.73  1576.34  1581.09  1584.75
eigval :     1590.83  1591.98  1599.09  1603.35  3084.12  3087.05
eigval :     3087.96  3090.02  3091.02  3092.75  3097.99  3100.45
eigval :     3100.51  3101.43  3103.37  3104.76  3106.90  3107.32
eigval :     3108.20  3110.00  3111.39  3112.56  3113.75  3114.28

   temp. (K)  partition function   enthalpy   heat capacity  entropy
                                   cal/mol     cal/K/mol   cal/K/mol   J/K/mol
 298.15  VIB  0.309E+13            16212.964    103.644     99.552
         ROT  0.301E+08              888.752      2.981     37.204
         INT  0.930E+20            17101.716    106.625    136.756
         TR   0.104E+29             1481.254      4.968     44.426
         TOT                       18582.9703   111.5928   181.1819   758.0651

       T/K    H(0)-H(T)+PV         H(T)/Eh          T*S/Eh         G(T)/Eh
   ------------------------------------------------------------------------
    298.15    0.296138E-01    0.443376E+00    0.860854E-01    0.357291E+00
   ------------------------------------------------------------------------

         :::::::::::::::::::::::::::::::::::::::::::::::::::::
         ::                  THERMODYNAMIC                  ::
         :::::::::::::::::::::::::::::::::::::::::::::::::::::
         :: total free energy         -95.388930473491 Eh   ::
         ::.................................................::
         :: total energy              -95.746221470918 Eh   ::
         :: zero point energy           0.413762523005 Eh   ::
         :: G(RRHO) w/o ZPVE           -0.056471525579 Eh   ::
         :: G(RRHO) contrib.            0.357290997427 Eh   ::
         :::::::::::::::::::::::::::::::::::::::::::::::::::::

           -------------------------------------------------
          | TOTAL ENERGY              -95.746221470918 Eh   |
          | TOTAL ENTHALPY            -95.302845099816 Eh   |
          | TOTAL FREE ENERGY         -95.388930473491 Eh   |
          | GRADIENT NORM               0.000030714407 Eh/α |
          | HOMO-LUMO GAP               2.394499834858 eV   |
           -------------------------------------------------

 * finished run on 2025/08/29 at 19:46:59.489
