   * xtb version 6.7.1 (edcfbbe) compiled by 'albert@albert-system' on 2024-07-22

   ID    Z sym.   atoms
    1    6 C      1-8, 10-31, 33-36, 38-51, 53-60
    2    7 N      9, 32, 37, 52
    3    1 H      61-98

          program call               : xtb data2507/toluene/BDQC-2/BDQC-2_toluene_T1_crest.xyz --gfn 2 --uhf 2 --gbsa toluene --ohess vtight --parallel 40 --molden --ceasefiles --namespace data2507/toluene/BDQC-2/BDQC-2_toluene_T1_finalOpt
      * Solvation model:               GBSA
        Solvent                        toluene
        Solvent mass                       9.2140E+01 g/mol
          :  Hamiltonian                  GFN2-xTB          :
 * total energy  :  -151.0316966 Eh     change       -0.1459625E-08 Eh
 * total energy  :  -151.0318292 Eh     change       -0.1326121E-03 Eh
 * total energy  :  -151.0319707 Eh     change       -0.1414574E-03 Eh
 * total energy  :  -151.0320227 Eh     change       -0.5201345E-04 Eh
 * total energy  :  -151.0320908 Eh     change       -0.6813268E-04 Eh
 * total energy  :  -151.0321398 Eh     change       -0.4895266E-04 Eh
 * total energy  :  -151.0321648 Eh     change       -0.2504997E-04 Eh
 * total energy  :  -151.0321842 Eh     change       -0.1943063E-04 Eh
 * total energy  :  -151.0321973 Eh     change       -0.1301884E-04 Eh
 * total energy  :  -151.0322194 Eh     change       -0.2209685E-04 Eh
 * total energy  :  -151.0327280 Eh     change       -0.1525165E-05 Eh
 * total energy  :  -151.0327295 Eh     change       -0.1552240E-05 Eh
 * total energy  :  -151.0327311 Eh     change       -0.1528473E-05 Eh
 * total energy  :  -151.0327327 Eh     change       -0.1586846E-05 Eh
 * total energy  :  -151.0327344 Eh     change       -0.1766301E-05 Eh
 * total energy  :  -151.0327361 Eh     change       -0.1685770E-05 Eh
 * total energy  :  -151.0327374 Eh     change       -0.1301789E-05 Eh
 * total energy  :  -151.0327384 Eh     change       -0.9526657E-06 Eh
 * total energy  :  -151.0327384 Eh     change       -0.8204808E-08 Eh
   *** GEOMETRY OPTIMIZATION CONVERGED AFTER 122 ITERATIONS ***

 final structure:
================
98
 xtb: 6.7.1 (edcfbbe)
C          -10.65773324753279        3.36081302293969        1.61755081169660
C           -9.55891857611179        4.20123275511136        1.54101018596482
C           -8.31952715996261        3.69682349960826        1.19322787840091
C           -8.15585633820158        2.33915178140508        0.92150267252535
C           -6.83983152294759        1.80059638336639        0.55426228260503
C           -6.40378305604661        0.57231988576025        1.05308889659645
C           -5.16881663599147        0.06326470047026        0.71410134879189
C           -4.32823040705182        0.76601611163442       -0.15272157123570
N           -3.07988596789997        0.25673231396527       -0.50999239228894
C           -1.99471106529437        1.12640195582317       -0.67596677286909
C           -1.81135592855926        2.20647495322916        0.18860244142151
C           -0.72350901731071        3.04021505720758        0.03836610537267
C            0.20427759615062        2.83501140582566       -0.98242698786381
C            1.35930879482273        3.73168599034987       -1.13371230989391
C            2.10279107335482        4.12161804144423       -0.02150054019872
C            3.18551815980070        4.96981296703339       -0.16168144761964
C            3.53507830766321        5.45253981311944       -1.41185429457706
C            2.80063204280433        5.07344285609998       -2.52369004933729
C            1.72597177303353        4.21385921938237       -2.38844040911003
C            0.00617927449495        1.76427732498800       -1.85357360753624
C           -1.07142997552035        0.91757307016917       -1.70182102748289
C           -2.87867449719953       -1.11971367315577       -0.63906050552323
C           -3.89218818537060       -1.93577990355471       -1.17155584219316
C           -3.72430455160363       -3.29778534867810       -1.28451403874386
C           -2.51927206521540       -3.86843162924672       -0.88656365456830
C           -2.01265645796607       -5.20791681355620       -0.84298403933760
C           -2.53800555152759       -6.44408058860838       -1.20302696558366
C           -1.75340295729670       -7.56802464626328       -1.04371407737963
C           -0.45464972217613       -7.47276416087897       -0.54346446512127
C            0.09066733564718       -6.25700975766858       -0.17813236094768
C           -0.69895302012800       -5.12406643152571       -0.31726053975633
N           -0.39826799703767       -3.80585740645964       -0.04746899317432
C            0.81896751767483       -3.30251747555399        0.44291733663835
C            1.38274240271239       -3.81632926576256        1.60232902559239
C            2.57091732554479       -3.29281482635809        2.09124852895338
C            3.21708026400443       -2.24250472228381        1.44169090915494
N            4.32760919658412       -1.67522996865816        1.91123263983401
C            4.94764142615801       -0.68975262724615        1.26275401568720
C            6.08078327874935       -0.05106791500976        1.92970940462937
C            6.95895458265229       -0.82967918538196        2.68564634593239
C            8.02241366042584       -0.24476221230190        3.34550663083401
C            8.22074834056302        1.12495621479751        3.27286807942173
C            7.33771704998303        1.90904421569016        2.54599163648974
C            6.27347292825533        1.33067069222334        1.88239509134071
C            4.46468143168086       -0.28523915300883        0.00123683948056
C            5.19629065997624        0.61689227500910       -0.88754437137890
C            6.58130174853745        0.52545299725230       -1.03571560929629
C            7.24434419297916        1.35426588988379       -1.91934123700246
C            6.53939130327080        2.27737089243886       -2.67680378538375
C            5.16186212337112        2.35812788467914       -2.55257871276760
C            4.49272892959137        1.53450374603028       -1.66857108502696
N            3.31081002698342       -0.77821853770656       -0.44464312892730
C            2.64343295406234       -1.72487389165314        0.21929557016395
C            1.45356494342372       -2.26652104368447       -0.24775445033561
C           -1.48742263237911       -3.03627734162356       -0.38633368322187
C           -1.66438955943447       -1.67259154014805       -0.23767523315037
C           -4.75915311137653        1.99581425193777       -0.65681233805705
C           -5.99100918991138        2.50233692098332       -0.30286601549163
C           -9.26813198034358        1.50254187970944        1.00542150391600
C          -10.50777928962752        2.01031397566180        1.34711609322576
H          -11.62618623772202        3.75648402213481        1.88695961436371
H           -9.66908945062080        5.25467752475968        1.75553117262340
H           -7.46413188673874        4.35557040927656        1.15252652936158
H           -7.03005707621490        0.02470947846454        1.74159131989790
H           -4.83736668874456       -0.87732365345669        1.12856272796675
H           -2.51927633497561        2.37474552742584        0.98689178184937
H           -0.59284393299487        3.87107361712232        0.71596884397113
H            1.84162143679960        3.73710994498866        0.95433297699028
H            3.75910218570058        5.25624136740572        0.70826969614645
H            4.37818513400330        6.11900351117010       -1.51922470984796
H            3.06608636215124        5.45166645015311       -3.50093878291832
H            1.14978346446945        3.92892267839355       -3.25708083491618
H            0.71588199621574        1.58338077720210       -2.64748926799769
H           -1.21103065104210        0.08822508259439       -2.37973495547783
H           -4.81302218899777       -1.47573167746608       -1.49646259907952
H           -4.51462331695443       -3.91339682914740       -1.68582178607575
H           -3.53832184000006       -6.51756099448198       -1.60257990272756
H           -2.14307242293066       -8.53788429884906       -1.31586722054456
H            0.13924319907674       -8.36953383490936       -0.44283634259177
H            1.10125582036369       -6.18823476169935        0.19532979153082
H            0.88411212328917       -4.61046991643838        2.13681447630636
H            3.00369208423332       -3.67110267754632        3.00438996680721
H            6.79646154388541       -1.89623573616598        2.73813853356212
H            8.69955398593233       -0.86044179771519        3.91996471171325
H            9.05396135129912        1.58088985744233        3.78686229682188
H            7.47642723198967        2.97950232236940        2.50071840370195
H            5.57991082449702        1.94856596792124        1.33081053229977
H            7.13397699845513       -0.20627122024682       -0.46449584032016
H            8.31663685495010        1.27327802156734       -2.02377852718645
H            7.06169995507237        2.92404743577199       -3.36626046163047
H            4.60362847894570        3.06833387432550       -3.14368651318557
H            3.42056850053357        1.59844434035499       -1.56232162593854
H            1.04728379454499       -1.89917952091478       -1.17672004091095
H           -0.89278014807635       -1.05354617784890        0.19342420070317
H           -4.12336136518586        2.54174133038027       -1.33821498881795
H           -6.31597418203678        3.44340161865701       -0.72105512683937
H           -9.16254280554546        0.45136716084444        0.77920464128003
H          -11.36204448977261        1.35056323150281        1.40119509296047

          :  Hamiltonian                  GFN2-xTB          :
         :: gradient norm              0.000065132910 Eh/a0 ::
         :: HOMO-LUMO gap              0.841462894506 eV    ::
         :: SCC energy              -153.880824711077 Eh    ::
         :: -> dispersion             -0.142720102920 Eh    ::
         :: -> Gsolv                  -0.063244436418 Eh    ::
         :: repulsion energy           2.848086336994 Eh    ::

    * Orbital Energies and Occupations

         #    Occupation            Energy/Eh            Energy/eV
      -------------------------------------------------------------
         1        2.0000           -0.6799975             -18.5037
       ...           ...                  ...                  ...
       130        2.0000           -0.4068313             -11.0704
       131        2.0000           -0.4056642             -11.0387
       132        2.0000           -0.4054443             -11.0327
       133        2.0000           -0.4040031             -10.9935
       134        2.0000           -0.4029317             -10.9643
       135        2.0000           -0.3915925             -10.6558
       136        2.0000           -0.3906490             -10.6301
       137        2.0000           -0.3872209             -10.5368
       138        2.0000           -0.3859952             -10.5035
       139        2.0000           -0.3656099              -9.9488
       140        1.7616           -0.3540629              -9.6345
       141        1.2384           -0.3518564              -9.5745
       142        1.0000           -0.2903833              -7.9017 (HOMO)
       143                         -0.2594602              -7.0603 (LUMO)
       144                         -0.2542362              -6.9181
       145                         -0.2538657              -6.9080
       146                         -0.2381654              -6.4808
       147                         -0.2330951              -6.3428
       148                         -0.2286776              -6.2226
       149                         -0.2266172              -6.1666
       150                         -0.2262850              -6.1575
       151                         -0.2243400              -6.1046
       152                         -0.2234237              -6.0797
       153                         -0.2210275              -6.0145
       ...                                ...                  ...
       278                          0.7412678              20.1709
      -------------------------------------------------------------
                  HL-Gap            0.0309231 Eh            0.8415 eV

     #   Z          covCN         q      C6AA      α(0)
     1   6 C        2.920    -0.031    28.780     8.797
     2   6 C        2.918    -0.030    28.752     8.793
     3   6 C        2.925    -0.034    28.859     8.810
     4   6 C        2.976     0.010    27.783     8.646
     5   6 C        2.975     0.008    27.845     8.656
     6   6 C        2.923    -0.032    28.806     8.802
     7   6 C        2.919    -0.045    29.112     8.848
     8   6 C        2.924     0.063    26.589     8.456
     9   7 N        2.753    -0.049    22.181     6.995
    10   6 C        2.927     0.062    26.606     8.459
    11   6 C        2.919    -0.044    29.094     8.845
    12   6 C        2.924    -0.033    28.814     8.803
    13   6 C        2.976     0.008    27.828     8.653
    14   6 C        2.977     0.011    27.771     8.644
    15   6 C        2.925    -0.033    28.825     8.805
    16   6 C        2.918    -0.029    28.731     8.790
    17   6 C        2.920    -0.030    28.748     8.792
    18   6 C        2.918    -0.028    28.711     8.787
    19   6 C        2.924    -0.033    28.830     8.805
    20   6 C        2.923    -0.031    28.768     8.796
    21   6 C        2.920    -0.043    29.056     8.840
    22   6 C        2.928     0.061    26.631     8.463
    23   6 C        2.921    -0.057    29.406     8.893
    24   6 C        2.911    -0.032    28.795     8.799
    25   6 C        3.065    -0.021    28.470     8.749
    26   6 C        3.069    -0.016    28.347     8.730
    27   6 C        2.912    -0.034    28.855     8.808
    28   6 C        2.919    -0.041    29.025     8.835
    29   6 C        2.923    -0.033    28.828     8.805
    30   6 C        2.909    -0.050    29.243     8.867
    31   6 C        3.081     0.049    26.819     8.490
    32   7 N        2.802    -0.041    22.025     6.970
    33   6 C        2.909     0.051    26.865     8.499
    34   6 C        2.916    -0.054    29.338     8.882
    35   6 C        2.918    -0.068    29.683     8.934
    36   6 C        2.937     0.085    26.109     8.380
    37   7 N        1.852    -0.249    27.334     7.749
    38   6 C        2.931     0.073    26.371     8.422
    39   6 C        2.978     0.006    27.883     8.662
    40   6 C        2.925    -0.031    28.765     8.795
    41   6 C        2.918    -0.030    28.745     8.792
    42   6 C        2.919    -0.032    28.805     8.801
    43   6 C        2.918    -0.029    28.734     8.790
    44   6 C        2.922    -0.034    28.848     8.808
    45   6 C        2.931     0.075    26.319     8.413
    46   6 C        2.979     0.006    27.872     8.660
    47   6 C        2.923    -0.034    28.849     8.808
    48   6 C        2.918    -0.030    28.739     8.791
    49   6 C        2.919    -0.032    28.788     8.799
    50   6 C        2.918    -0.030    28.740     8.791
    51   6 C        2.925    -0.029    28.732     8.790
    52   7 N        1.852    -0.251    27.385     7.756
    53   6 C        2.937     0.088    26.033     8.368
    54   6 C        2.921    -0.080    29.989     8.980
    55   6 C        3.083     0.050    26.778     8.483
    56   6 C        2.913    -0.065    29.624     8.925
    57   6 C        2.920    -0.045    29.116     8.849
    58   6 C        2.923    -0.032    28.806     8.802
    59   6 C        2.925    -0.034    28.858     8.810
    60   6 C        2.918    -0.030    28.752     8.793
    61   1 H        0.926     0.031     2.569     2.506
    62   1 H        0.926     0.032     2.561     2.502
    63   1 H        0.926     0.034     2.527     2.486
    64   1 H        0.926     0.042     2.420     2.433
    65   1 H        0.926     0.040     2.453     2.449
    66   1 H        0.926     0.040     2.446     2.446
    67   1 H        0.926     0.042     2.424     2.435
    68   1 H        0.926     0.029     2.596     2.520
    69   1 H        0.926     0.030     2.583     2.513
    70   1 H        0.926     0.033     2.549     2.496
    71   1 H        0.926     0.033     2.542     2.493
    72   1 H        0.926     0.035     2.517     2.481
    73   1 H        0.926     0.042     2.428     2.437
    74   1 H        0.926     0.039     2.468     2.457
    75   1 H        0.926     0.040     2.445     2.445
    76   1 H        0.926     0.042     2.416     2.431
    77   1 H        0.926     0.035     2.514     2.479
    78   1 H        0.926     0.032     2.564     2.504
    79   1 H        0.926     0.032     2.554     2.499
    80   1 H        0.926     0.030     2.588     2.516
    81   1 H        0.926     0.039     2.462     2.454
    82   1 H        0.926     0.042     2.428     2.437
    83   1 H        0.926     0.036     2.503     2.474
    84   1 H        0.926     0.037     2.493     2.469
    85   1 H        0.926     0.037     2.492     2.468
    86   1 H        0.926     0.035     2.510     2.477
    87   1 H        0.926     0.026     2.645     2.543
    88   1 H        0.926     0.025     2.656     2.549
    89   1 H        0.926     0.035     2.510     2.477
    90   1 H        0.926     0.038     2.481     2.463
    91   1 H        0.926     0.038     2.471     2.458
    92   1 H        0.926     0.036     2.508     2.477
    93   1 H        0.926     0.043     2.409     2.427
    94   1 H        0.926     0.035     2.520     2.483
    95   1 H        0.926     0.039     2.457     2.451
    96   1 H        0.926     0.042     2.416     2.431
    97   1 H        0.926     0.034     2.525     2.485
    98   1 H        0.926     0.032     2.560     2.502

molecular dipole:
                 x           y           z       tot (Debye)
 q only:       -2.012       1.348      -0.476
   full:       -1.906       1.295      -0.383       5.938

 projected vibrational frequencies (cm⁻¹)
eigval :       -0.00    -0.00    -0.00    -0.00     0.00     0.00
eigval :        5.17    12.34    15.34    21.19    21.60    31.66
eigval :       33.46    38.76    40.93    46.35    52.41    59.74
eigval :       63.67    67.84    70.98    72.31    79.22    88.56
eigval :       89.34    97.54   101.66   104.78   126.16   133.14
eigval :      149.59   155.38   173.92   177.07   193.87   198.88
eigval :      210.91   214.18   222.79   239.81   248.07   257.67
eigval :      281.47   289.42   294.60   302.49   304.04   330.99
eigval :      340.27   351.86   371.69   372.37   373.71   374.87
eigval :      380.08   381.19   382.51   387.09   388.45   392.15
eigval :      401.52   421.78   424.73   434.29   441.02   456.20
eigval :      461.37   473.03   492.36   495.97   510.46   529.03
eigval :      530.48   532.97   535.89   537.47   545.33   554.20
eigval :      567.65   581.86   583.83   584.88   588.49   588.72
eigval :      591.55   591.86   605.59   607.99   614.83   619.23
eigval :      630.10   641.59   665.69   666.18   667.11   667.86
eigval :      669.99   672.38   676.53   686.08   687.77   704.81
eigval :      711.75   714.70   736.91   746.48   754.57   754.97
eigval :      756.50   757.07   772.16   780.69   788.65   794.86
eigval :      820.45   822.52   827.45   829.91   854.09   865.30
eigval :      867.36   868.41   870.19   870.97   872.55   878.57
eigval :      879.61   880.39   884.33   895.06   896.71   899.28
eigval :      900.17   902.48   911.69   915.34   917.28   920.42
eigval :      920.92   921.36   924.30   924.35   927.04   927.32
eigval :      927.78   929.55   931.96   932.07   933.88   934.44
eigval :      960.81   970.64   971.72   986.49   998.54  1005.69
eigval :     1008.52  1016.23  1030.98  1067.93  1073.78  1074.34
eigval :     1078.91  1081.15  1086.05  1086.76  1099.84  1112.32
eigval :     1117.47  1117.77  1120.18  1120.54  1127.49  1139.35
eigval :     1142.56  1154.68  1159.65  1174.08  1176.30  1177.40
eigval :     1180.29  1180.52  1182.52  1189.66  1191.40  1194.67
eigval :     1195.65  1200.40  1202.68  1211.66  1227.09  1230.62
eigval :     1235.29  1255.06  1259.69  1265.73  1266.66  1270.72
eigval :     1277.08  1279.52  1279.85  1280.45  1281.81  1285.78
eigval :     1294.63  1300.44  1302.88  1311.69  1313.91  1316.50
eigval :     1316.92  1318.01  1321.30  1322.12  1323.59  1329.03
eigval :     1352.44  1356.86  1368.59  1392.90  1401.99  1407.17
eigval :     1409.10  1424.83  1427.36  1427.49  1431.32  1433.21
eigval :     1443.36  1457.66  1458.91  1461.07  1466.13  1469.20
eigval :     1475.27  1481.16  1493.67  1494.71  1511.20  1530.29
eigval :     1545.15  1550.90  1552.96  1567.93  1568.93  1578.73
eigval :     1578.94  1579.99  1580.33  1584.19  1586.17  1586.95
eigval :     1591.72  1598.92  1599.87  1602.60  3065.62  3067.26
eigval :     3067.27  3068.72  3069.89  3070.51  3072.77  3073.36
eigval :     3075.95  3077.43  3077.56  3077.91  3079.07  3079.10
eigval :     3079.39  3079.93  3081.36  3081.38  3081.76  3083.99
eigval :     3085.43  3086.32  3086.78  3087.81  3088.41  3088.81
eigval :     3088.87  3089.84  3090.70  3091.69  3092.07  3093.33
eigval :     3093.66  3095.58  3096.52  3098.82  3099.27  3100.02

   temp. (K)  partition function   enthalpy   heat capacity  entropy
                                   cal/mol     cal/K/mol   cal/K/mol   J/K/mol
 298.15  VIB  0.412E+23            28302.824    178.398    177.804
         ROT  0.176E+09              888.752      2.981     40.711
         INT  0.726E+31            29191.576    181.379    218.516
         TR   0.205E+29             1481.254      4.968     45.770
         TOT                       30672.8299   186.3471   264.2853  1105.7698

       T/K    H(0)-H(T)+PV         H(T)/Eh          T*S/Eh         G(T)/Eh
   ------------------------------------------------------------------------
    298.15    0.488803E-01    0.801221E+00    0.125570E+00    0.675650E+00
   ------------------------------------------------------------------------

         :::::::::::::::::::::::::::::::::::::::::::::::::::::
         ::                  THERMODYNAMIC                  ::
         :::::::::::::::::::::::::::::::::::::::::::::::::::::
         :: total free energy        -150.357088007179 Eh   ::
         ::.................................................::
         :: total energy             -151.032738373680 Eh   ::
         :: zero point energy           0.752340590090 Eh   ::
         :: G(RRHO) w/o ZPVE           -0.076690223590 Eh   ::
         :: G(RRHO) contrib.            0.675650366501 Eh   ::
         :::::::::::::::::::::::::::::::::::::::::::::::::::::

           -------------------------------------------------
          | TOTAL ENERGY             -151.032738373680 Eh   |
          | TOTAL ENTHALPY           -150.231517517846 Eh   |
          | TOTAL FREE ENERGY        -150.357088007179 Eh   |
          | GRADIENT NORM               0.000065743843 Eh/α |
          | HOMO-LUMO GAP               0.841459206040 eV   |
           -------------------------------------------------

 * finished run on 2025/09/04 at 11:28:25.736
