   * xtb version 6.7.1 (edcfbbe) compiled by 'albert@albert-system' on 2024-07-22

   ID    Z sym.   atoms
    1    6 C      1-8, 10-31, 33-36, 38-51, 53-60
    2    7 N      9, 32, 37, 52
    3    1 H      61-98

          program call               : xtb data2507/toluene/BDQC-2/BDQC-2_toluene_S0_finalOpt.xtbopt.xyz --gfn 2 --uhf 2 --gbsa toluene --ohess vtight --parallel 40 --molden --ceasefiles --namespace data2507/toluene/BDQC-2/BDQC-2_toluene_T1_preOpt
      * Solvation model:               GBSA
        Solvent                        toluene
        Solvent mass                       9.2140E+01 g/mol
          :  Hamiltonian                  GFN2-xTB          :
 * total energy  :  -151.0284311 Eh     change       -0.1191438E-09 Eh
 * total energy  :  -151.0314896 Eh     change       -0.3058487E-02 Eh
 * total energy  :  -151.0324152 Eh     change       -0.9255907E-03 Eh
 * total energy  :  -151.0325519 Eh     change       -0.1366531E-03 Eh
 * total energy  :  -151.0326214 Eh     change       -0.6955116E-04 Eh
 * total energy  :  -151.0326393 Eh     change       -0.1792548E-04 Eh
 * total energy  :  -151.0326610 Eh     change       -0.2160624E-04 Eh
 * total energy  :  -151.0326807 Eh     change       -0.1972478E-04 Eh
 * total energy  :  -151.0326964 Eh     change       -0.1574410E-04 Eh
 * total energy  :  -151.0327090 Eh     change       -0.1253494E-04 Eh
 * total energy  :  -151.0327376 Eh     change       -0.3086774E-06 Eh
 * total energy  :  -151.0327378 Eh     change       -0.2664720E-06 Eh
 * total energy  :  -151.0327381 Eh     change       -0.2110723E-06 Eh
 * total energy  :  -151.0327382 Eh     change       -0.1807602E-06 Eh
 * total energy  :  -151.0327384 Eh     change       -0.1657918E-06 Eh
 * total energy  :  -151.0327385 Eh     change       -0.1509052E-06 Eh
 * total energy  :  -151.0327387 Eh     change       -0.1681818E-06 Eh
 * total energy  :  -151.0327389 Eh     change       -0.2180895E-06 Eh
 * total energy  :  -151.0327390 Eh     change       -0.8629965E-07 Eh
   *** GEOMETRY OPTIMIZATION CONVERGED AFTER 37 ITERATIONS ***

 final structure:
================
98
 xtb: 6.7.1 (edcfbbe)
C          -10.64920338467862        3.32109169784439        1.65175574495552
C           -9.55087016477421        4.16229853456330        1.57695229992022
C           -8.31207283071021        3.66003880455561        1.22406401302758
C           -8.14845968288632        2.30377602885419        0.94524275199435
C           -6.83312324371910        1.76811747859256        0.57154602872918
C           -6.39492651164229        0.53690974742109        1.06117211859615
C           -5.16013687263566        0.03129343845554        0.71639805152087
C           -4.32200996797429        0.74045127934022       -0.14761829911960
N           -3.07360267132584        0.23566410236011       -0.51050404365807
C           -1.99192040604694        1.11001713522319       -0.67686909479631
C           -1.80716358760896        2.18446727987734        0.19434337385353
C           -0.72559459350000        3.02580030682579        0.04100171473963
C            0.19389414797737        2.83405394987174       -0.98983502785814
C            1.33929131372836        3.74195327926988       -1.14789533513634
C            2.09245757453328        4.13143901123311       -0.04210371385660
C            3.16500295758028        4.99128853863675       -0.18951848256655
C            3.49438139913046        5.48634272637041       -1.44035017859625
C            2.75026138886123        5.10757986167627       -2.54587046054071
C            1.68582242007140        4.23649867900916       -2.40354413666944
C           -0.00418458960337        1.76721836893050       -1.86573526335318
C           -1.07514517205525        0.91261261963285       -1.71066298989206
C           -2.86832799316939       -1.13955406133549       -0.64501213992238
C           -3.88104595376816       -1.95769477365976       -1.17591701856375
C           -3.70954421220215       -3.31900494398739       -1.29174371144105
C           -2.50157519067625       -3.88686838751757       -0.89864470756386
C           -1.99113620567660       -5.22502039054526       -0.85798451054551
C           -2.51477122633137       -6.46250438895959       -1.21600154067381
C           -1.72641842373055       -7.58438598497076       -1.06065323031528
C           -0.42557317472611       -7.48577862663481       -0.56651030613948
C            0.11797365888275       -6.26873346144838       -0.20287895436483
C           -0.67549522326477       -5.13793001474642       -0.33756326098523
N           -0.37739453820209       -3.81914957116371       -0.06799683557712
C            0.83773643095781       -3.31199065432355        0.42337487338228
C            1.40467043624066       -3.82667880192907        1.58088072005066
C            2.58841140079108       -3.29619986031935        2.07301460889358
C            3.22645754226217       -2.23742023853779        1.42913992215017
N            4.33064770173315       -1.66186305959463        1.90335311654510
C            4.94252437810432       -0.66748184579466        1.26062891760000
C            6.06676560607157       -0.01974569661361        1.93378783477210
C            6.94927011114895       -0.79179681119039        2.69143091338248
C            8.00381139600179       -0.19826801373513        3.35785268380531
C            8.18897069514791        1.17353148517617        3.28996305116892
C            7.30159127484208        1.95090751702110        2.56117962746587
C            6.24608700895372        1.36395865814023        1.89124270880093
C            4.45873553252294       -0.26255230054525       -0.00041867256225
C            5.18369149713340        0.65036499985280       -0.88360305639136
C            6.56978806502029        0.57247005431356       -1.02910049074040
C            7.22698347329566        1.41157577197053       -1.90737120369218
C            6.51508917357504        2.33195110927982       -2.66167050166304
C            5.13659803818089        2.39934635978105       -2.54015191466216
C            4.47324225502524        1.56505750176840       -1.66179595302839
N            3.31051789645895       -0.76438415437909       -0.45088134788873
C            2.65034793942316       -1.71962528410944        0.20793687229859
C            1.46562255264555       -2.26902073955945       -0.26295176726795
C           -1.47019845231129       -3.05231477368587       -0.40151080420323
C           -1.65068097997356       -1.68941166702285       -0.24984275668016
C           -4.75543648790278        1.97294896727774       -0.64302923252607
C           -5.98689271325844        2.47602898579249       -0.28309512037109
C           -9.26016566613473        1.46628530315115        1.02782142883388
C          -10.49924105435223        1.97193091015899        1.37471817898517
H          -11.61723673526984        3.71510401173723        1.92506408926604
H           -9.66092477480172        5.21465690676050        1.79681044981649
H           -7.45699129719465        4.31928414836540        1.18485650485567
H           -7.01921213894368       -0.01592128425762        1.74730263816487
H           -4.82695549710053       -0.91155367713731        1.12427847025456
H           -2.50964286156542        2.34300234188694        0.99941497740517
H           -0.59402667240480        3.85253016524421        0.72346380888068
H            1.84704632570430        3.73772589827435        0.93416048511989
H            3.74633351620030        5.27743513873072        0.67535018801949
H            4.32916278046244        6.16231355074542       -1.55310637496609
H            3.00001199101331        5.49486361074724       -3.52369859337306
H            1.10177176704279        3.95207078973634       -3.26708011105334
H            0.70008393442062        1.59622116819232       -2.66666030416546
H           -1.21512657833232        0.08666317999949       -2.39264642241789
H           -4.80428707293504       -1.49985659613228       -1.49708633219160
H           -4.49951600740321       -3.93624603370455       -1.69124473465730
H           -3.51674481626991       -6.53867359368353       -1.61087168598235
H           -2.11480591787115       -8.55522078209883       -1.33115678364558
H            0.17133347563813       -8.38092461487874       -0.46932417281973
H            1.13006878687463       -6.19732457138785        0.16597953188691
H            0.91143573532777       -4.62648836324513        2.11191075610302
H            3.02319547139265       -3.67499283261494        2.98500290629807
H            6.79714314718021       -1.86005273491176        2.74009411998028
H            8.68441645592200       -0.80887549294601        3.93362314943171
H            9.01510324613664        1.63624671642644        3.80929824468290
H            7.42980487309634        3.02281893315784        2.51960586687957
H            5.54889310514389        1.97659935768887        1.33840856862073
H            7.12791764661495       -0.15685485289790       -0.46010833405559
H            8.30020295863144        1.34103572951826       -2.00987794599812
H            7.03284751077599        2.98703724939977       -3.34660591256833
H            4.57308001749015        3.10739513427069       -3.12885225430620
H            3.40027293142480        1.61813501366892       -1.55782720561904
H            1.05780901878167       -1.90136962427954       -1.19112262580364
H           -0.87942592129472       -1.06869459595115        0.17945493225997
H           -4.12178249741462        2.52389945492404       -1.32236636076655
H           -6.31360291306889        3.41942352836044       -0.69460740735330
H           -9.15470187532182        0.41623501831576        0.79640097093342
H          -11.35311182581766        1.31156890143860        1.42753544685393

          :  Hamiltonian                  GFN2-xTB          :
         :: gradient norm              0.000064011846 Eh/a0 ::
         :: HOMO-LUMO gap              0.841095201074 eV    ::
         :: SCC energy              -153.880853633979 Eh    ::
         :: -> dispersion             -0.142769596635 Eh    ::
         :: -> Gsolv                  -0.063210339482 Eh    ::
         :: repulsion energy           2.848114486184 Eh    ::

    * Orbital Energies and Occupations

         #    Occupation            Energy/Eh            Energy/eV
      -------------------------------------------------------------
         1        2.0000           -0.6800057             -18.5039
       ...           ...                  ...                  ...
       130        2.0000           -0.4068656             -11.0714
       131        2.0000           -0.4056493             -11.0383
       132        2.0000           -0.4054351             -11.0324
       133        2.0000           -0.4039880             -10.9931
       134        2.0000           -0.4029335             -10.9644
       135        2.0000           -0.3916114             -10.6563
       136        2.0000           -0.3906458             -10.6300
       137        2.0000           -0.3872187             -10.5368
       138        2.0000           -0.3859914             -10.5034
       139        2.0000           -0.3655985              -9.9484
       140        1.7622           -0.3540651              -9.6346
       141        1.2378           -0.3518517              -9.5744
       142        1.0000           -0.2903851              -7.9018 (HOMO)
       143                         -0.2594752              -7.0607 (LUMO)
       144                         -0.2542453              -6.9184
       145                         -0.2538383              -6.9073
       146                         -0.2381712              -6.4810
       147                         -0.2331187              -6.3435
       148                         -0.2286570              -6.2221
       149                         -0.2266012              -6.1661
       150                         -0.2262929              -6.1577
       151                         -0.2243658              -6.1053
       152                         -0.2234111              -6.0793
       153                         -0.2210210              -6.0143
       ...                                ...                  ...
       278                          0.7412566              20.1706
      -------------------------------------------------------------
                  HL-Gap            0.0309099 Eh            0.8411 eV

     #   Z          covCN         q      C6AA      α(0)
     1   6 C        2.920    -0.031    28.780     8.797
     2   6 C        2.918    -0.030    28.753     8.793
     3   6 C        2.925    -0.035    28.859     8.810
     4   6 C        2.976     0.010    27.783     8.646
     5   6 C        2.975     0.008    27.846     8.656
     6   6 C        2.923    -0.032    28.806     8.802
     7   6 C        2.919    -0.045    29.114     8.848
     8   6 C        2.924     0.063    26.588     8.456
     9   7 N        2.753    -0.049    22.182     6.995
    10   6 C        2.927     0.062    26.606     8.459
    11   6 C        2.920    -0.044    29.092     8.845
    12   6 C        2.924    -0.033    28.814     8.803
    13   6 C        2.976     0.008    27.827     8.653
    14   6 C        2.977     0.011    27.770     8.644
    15   6 C        2.925    -0.033    28.822     8.804
    16   6 C        2.918    -0.029    28.729     8.790
    17   6 C        2.920    -0.030    28.747     8.792
    18   6 C        2.918    -0.029    28.713     8.787
    19   6 C        2.924    -0.033    28.830     8.805
    20   6 C        2.923    -0.031    28.769     8.796
    21   6 C        2.920    -0.042    29.055     8.839
    22   6 C        2.928     0.061    26.631     8.463
    23   6 C        2.921    -0.057    29.407     8.893
    24   6 C        2.911    -0.032    28.795     8.799
    25   6 C        3.065    -0.021    28.470     8.750
    26   6 C        3.069    -0.016    28.347     8.730
    27   6 C        2.912    -0.034    28.855     8.808
    28   6 C        2.919    -0.041    29.025     8.835
    29   6 C        2.923    -0.033    28.829     8.805
    30   6 C        2.909    -0.050    29.243     8.867
    31   6 C        3.080     0.049    26.820     8.490
    32   7 N        2.802    -0.041    22.023     6.970
    33   6 C        2.909     0.051    26.865     8.499
    34   6 C        2.916    -0.054    29.338     8.882
    35   6 C        2.918    -0.068    29.683     8.934
    36   6 C        2.937     0.085    26.109     8.380
    37   7 N        1.852    -0.249    27.334     7.749
    38   6 C        2.931     0.073    26.372     8.422
    39   6 C        2.978     0.006    27.884     8.662
    40   6 C        2.925    -0.031    28.765     8.795
    41   6 C        2.918    -0.030    28.745     8.792
    42   6 C        2.919    -0.032    28.805     8.801
    43   6 C        2.918    -0.029    28.734     8.790
    44   6 C        2.922    -0.034    28.848     8.808
    45   6 C        2.931     0.075    26.318     8.413
    46   6 C        2.979     0.006    27.871     8.660
    47   6 C        2.923    -0.034    28.848     8.808
    48   6 C        2.918    -0.030    28.739     8.791
    49   6 C        2.919    -0.032    28.787     8.799
    50   6 C        2.918    -0.030    28.740     8.791
    51   6 C        2.925    -0.029    28.733     8.790
    52   7 N        1.852    -0.251    27.385     7.756
    53   6 C        2.937     0.088    26.033     8.368
    54   6 C        2.921    -0.080    29.989     8.980
    55   6 C        3.083     0.050    26.779     8.483
    56   6 C        2.913    -0.065    29.625     8.925
    57   6 C        2.920    -0.045    29.117     8.849
    58   6 C        2.923    -0.032    28.807     8.802
    59   6 C        2.925    -0.034    28.858     8.810
    60   6 C        2.918    -0.030    28.752     8.793
    61   1 H        0.926     0.031     2.569     2.506
    62   1 H        0.926     0.032     2.561     2.503
    63   1 H        0.926     0.034     2.527     2.486
    64   1 H        0.926     0.042     2.420     2.433
    65   1 H        0.926     0.040     2.453     2.449
    66   1 H        0.926     0.040     2.446     2.446
    67   1 H        0.926     0.042     2.424     2.435
    68   1 H        0.926     0.029     2.597     2.520
    69   1 H        0.926     0.030     2.584     2.514
    70   1 H        0.926     0.033     2.548     2.496
    71   1 H        0.926     0.033     2.541     2.493
    72   1 H        0.926     0.035     2.517     2.481
    73   1 H        0.926     0.042     2.427     2.436
    74   1 H        0.926     0.039     2.467     2.456
    75   1 H        0.926     0.040     2.444     2.445
    76   1 H        0.926     0.042     2.416     2.431
    77   1 H        0.926     0.035     2.514     2.479
    78   1 H        0.926     0.032     2.565     2.504
    79   1 H        0.926     0.032     2.554     2.499
    80   1 H        0.926     0.030     2.588     2.516
    81   1 H        0.926     0.039     2.462     2.454
    82   1 H        0.926     0.042     2.428     2.437
    83   1 H        0.926     0.036     2.503     2.474
    84   1 H        0.926     0.037     2.493     2.469
    85   1 H        0.926     0.037     2.492     2.469
    86   1 H        0.926     0.035     2.510     2.478
    87   1 H        0.926     0.026     2.645     2.543
    88   1 H        0.926     0.025     2.656     2.549
    89   1 H        0.926     0.035     2.510     2.477
    90   1 H        0.926     0.038     2.482     2.463
    91   1 H        0.926     0.038     2.473     2.459
    92   1 H        0.926     0.036     2.508     2.476
    93   1 H        0.926     0.043     2.408     2.427
    94   1 H        0.926     0.035     2.520     2.483
    95   1 H        0.926     0.039     2.458     2.452
    96   1 H        0.926     0.042     2.416     2.431
    97   1 H        0.926     0.034     2.525     2.485
    98   1 H        0.926     0.032     2.560     2.502

molecular dipole:
                 x           y           z       tot (Debye)
 q only:       -2.014       1.342      -0.472
   full:       -1.908       1.289      -0.380       5.932

 projected vibrational frequencies (cm⁻¹)
eigval :       -0.00    -0.00     0.00     0.00     0.00     0.00
eigval :        7.16    14.54    15.48    21.37    21.98    31.84
eigval :       34.75    39.00    41.10    47.42    52.50    61.19
eigval :       63.76    67.78    70.97    72.79    79.83    89.02
eigval :       90.14    97.91   102.37   105.24   126.08   133.39
eigval :      149.61   155.65   174.07   177.33   193.83   199.00
eigval :      210.99   213.98   222.89   239.98   248.22   257.77
eigval :      281.65   289.64   294.59   302.66   304.37   331.06
eigval :      340.59   351.78   371.83   372.49   373.92   374.57
eigval :      380.54   381.61   382.98   387.17   388.63   392.27
eigval :      401.50   421.82   424.61   434.03   441.23   456.12
eigval :      461.40   473.12   492.22   496.39   510.55   529.28
eigval :      530.38   532.97   536.67   537.61   545.32   554.36
eigval :      567.70   581.78   583.87   584.92   588.58   588.70
eigval :      591.62   592.07   605.60   607.99   614.87   619.22
eigval :      630.08   641.54   666.01   666.42   667.01   668.03
eigval :      669.86   672.37   676.82   686.33   687.95   704.48
eigval :      711.84   714.70   736.93   746.62   755.89   756.51
eigval :      757.13   757.77   770.62   780.71   788.57   794.84
eigval :      822.60   824.91   827.67   830.13   854.18   864.03
eigval :      868.55   869.78   870.83   872.39   873.34   878.68
eigval :      879.36   880.70   884.39   896.74   897.34   899.89
eigval :      901.27   901.41   912.02   915.75   919.24   921.19
eigval :      921.48   922.52   925.20   925.32   928.03   928.42
eigval :      930.21   930.42   933.00   933.09   934.22   936.07
eigval :      960.83   970.67   971.72   986.55   998.54  1005.75
eigval :     1008.56  1016.35  1031.01  1067.88  1073.94  1074.52
eigval :     1078.96  1081.27  1086.01  1086.22  1099.97  1112.41
eigval :     1117.76  1118.11  1119.68  1120.21  1127.49  1139.93
eigval :     1143.31  1154.73  1159.75  1174.07  1176.95  1177.94
eigval :     1180.14  1180.58  1181.70  1190.06  1191.82  1194.82
eigval :     1196.05  1199.58  1203.05  1211.72  1227.23  1230.88
eigval :     1235.31  1254.61  1259.84  1266.23  1267.28  1271.04
eigval :     1277.28  1278.65  1279.62  1280.52  1281.98  1285.92
eigval :     1294.52  1300.50  1302.98  1311.84  1313.83  1316.42
eigval :     1316.91  1318.08  1321.21  1322.17  1323.64  1329.12
eigval :     1352.36  1356.89  1368.63  1393.00  1402.09  1407.21
eigval :     1409.10  1424.80  1427.57  1427.72  1431.21  1433.16
eigval :     1443.39  1457.74  1458.77  1461.04  1466.10  1469.26
eigval :     1475.37  1481.16  1493.74  1494.63  1511.22  1530.30
eigval :     1545.17  1550.86  1553.06  1568.05  1569.01  1578.71
eigval :     1578.91  1579.97  1580.32  1584.24  1586.23  1586.94
eigval :     1591.75  1598.85  1599.83  1602.54  3065.85  3067.10
eigval :     3067.26  3068.74  3069.97  3070.63  3072.94  3073.41
eigval :     3075.84  3077.56  3077.58  3078.12  3079.09  3079.33
eigval :     3079.52  3080.33  3081.54  3081.65  3081.92  3084.04
eigval :     3085.37  3086.50  3086.77  3087.87  3088.58  3088.92
eigval :     3089.11  3090.14  3091.06  3092.03  3092.27  3093.59
eigval :     3093.64  3095.58  3096.52  3098.93  3099.54  3100.04

   temp. (K)  partition function   enthalpy   heat capacity  entropy
                                   cal/mol     cal/K/mol   cal/K/mol   J/K/mol
 298.15  VIB  0.215E+23            28276.121    178.433    177.147
         ROT  0.176E+09              888.752      2.981     40.711
         INT  0.378E+31            29164.873    181.414    217.857
         TR   0.205E+29             1481.254      4.968     45.770
         TOT                       30646.1271   186.3821   263.6271  1103.0160

       T/K    H(0)-H(T)+PV         H(T)/Eh          T*S/Eh         G(T)/Eh
   ------------------------------------------------------------------------
    298.15    0.488377E-01    0.801319E+00    0.125258E+00    0.676061E+00
   ------------------------------------------------------------------------

         :::::::::::::::::::::::::::::::::::::::::::::::::::::
         ::                  THERMODYNAMIC                  ::
         :::::::::::::::::::::::::::::::::::::::::::::::::::::
         :: total free energy        -150.356677782114 Eh   ::
         ::.................................................::
         :: total energy             -151.032739147113 Eh   ::
         :: zero point energy           0.752481417335 Eh   ::
         :: G(RRHO) w/o ZPVE           -0.076420052337 Eh   ::
         :: G(RRHO) contrib.            0.676061364998 Eh   ::
         :::::::::::::::::::::::::::::::::::::::::::::::::::::

           -------------------------------------------------
          | TOTAL ENERGY             -151.032739147113 Eh   |
          | TOTAL ENTHALPY           -150.231420017586 Eh   |
          | TOTAL FREE ENERGY        -150.356677782114 Eh   |
          | GRADIENT NORM               0.000064476709 Eh/α |
          | HOMO-LUMO GAP               0.841099853306 eV   |
           -------------------------------------------------

 * finished run on 2025/09/04 at 11:15:44.422
