   * xtb version 6.7.1 (edcfbbe) compiled by 'albert@albert-system' on 2024-07-22

   ID    Z sym.   atoms
    1    6 C      1-8, 10-31, 33-36, 38-51, 53-60
    2    7 N      9, 32, 37, 52
    3    1 H      61-98

          program call               : xtb data2507/toluene/BDQC-2/BDQC-2_toluene_S0_crest.xyz --gfn 2 --gbsa toluene --ohess vtight --parallel 40 --molden --ceasefiles --namespace data2507/toluene/BDQC-2/BDQC-2_toluene_S0_finalOpt
      * Solvation model:               GBSA
        Solvent                        toluene
        Solvent mass                       9.2140E+01 g/mol
          :  Hamiltonian                  GFN2-xTB          :
 * total energy  :  -151.0898087 Eh     change       -0.2663739E-08 Eh
 * total energy  :  -151.0898874 Eh     change       -0.7864054E-04 Eh
 * total energy  :  -151.0899938 Eh     change       -0.1063868E-03 Eh
 * total energy  :  -151.0900329 Eh     change       -0.3911078E-04 Eh
 * total energy  :  -151.0901137 Eh     change       -0.8082755E-04 Eh
 * total energy  :  -151.0901395 Eh     change       -0.2582014E-04 Eh
 * total energy  :  -151.0901544 Eh     change       -0.1491310E-04 Eh
 * total energy  :  -151.0901699 Eh     change       -0.1540937E-04 Eh
 * total energy  :  -151.0901862 Eh     change       -0.1632919E-04 Eh
 * total energy  :  -151.0902107 Eh     change       -0.2450364E-04 Eh
 * total energy  :  -151.0906825 Eh     change       -0.9886107E-06 Eh
 * total energy  :  -151.0906836 Eh     change       -0.1114514E-05 Eh
 * total energy  :  -151.0906847 Eh     change       -0.1074554E-05 Eh
 * total energy  :  -151.0906856 Eh     change       -0.8827549E-06 Eh
 * total energy  :  -151.0906863 Eh     change       -0.7448168E-06 Eh
 * total energy  :  -151.0906871 Eh     change       -0.8137491E-06 Eh
 * total energy  :  -151.0906880 Eh     change       -0.8589021E-06 Eh
 * total energy  :  -151.0906889 Eh     change       -0.8826225E-06 Eh
 * total energy  :  -151.0906889 Eh     change       -0.8785690E-08 Eh
   *** GEOMETRY OPTIMIZATION CONVERGED AFTER 94 ITERATIONS ***

 final structure:
================
98
 xtb: 6.7.1 (edcfbbe)
C          -10.64556919478627        3.34359874022679        1.64785240503676
C           -9.54662539303485        4.18250644324357        1.56015213449556
C           -8.30986206698764        3.67518623951438        1.20693376186682
C           -8.14856066935674        2.31688593452451        0.93861914319706
C           -6.83445143873966        1.77624713389675        0.56416427307538
C           -6.39153798219684        0.55437764859192        1.06925839831286
C           -5.15612380881290        0.04639683779478        0.72663236068098
C           -4.32537167378463        0.74023103774879       -0.15415976331768
N           -3.07533315892078        0.23255105963486       -0.51864043350166
C           -1.99267154658804        1.10919985001000       -0.68075924818156
C           -1.81072996741595        2.18287975499129        0.19034351326530
C           -0.73066599871576        3.02783752673966        0.04047670503288
C            0.19549361425768        2.83651966260159       -0.98338239642521
C            1.34320990103093        3.74373461994262       -1.13370344847343
C            2.08033689492516        4.14491772885135       -0.02130569049524
C            3.15375615510452        5.00524849886736       -0.16024715391307
C            3.50317907057737        5.48708270322967       -1.41071724407457
C            2.77635731392696        5.09599170178244       -2.52333657940561
C            1.70926438996106        4.22687104620473       -2.38821847999304
C            0.00145763679003        1.76971189952881       -1.85920639453813
C           -1.07222184576383        0.91643323753368       -1.71099089004638
C           -2.86820030722963       -1.14490326888958       -0.64060764870858
C           -3.87979743231144       -1.97083251719158       -1.15662817156302
C           -3.70744861623400       -3.33407445490232       -1.25765657818842
C           -2.49342753668045       -3.89384785642292       -0.87568882938111
C           -1.97988341998227       -5.23430187733415       -0.82973154029825
C           -2.50653517072845       -6.47139545693731       -1.17809997592662
C           -1.71594402838883       -7.59433163328461       -1.02842728304045
C           -0.41066037234970       -7.49324120520537       -0.55362365868085
C            0.13637929440695       -6.27255126343781       -0.20143091865140
C           -0.66126429538367       -5.14506103079556       -0.32440256108622
N           -0.35989735844827       -3.81804969991528       -0.07020950018015
C            0.86001870930937       -3.30886669705781        0.38384915376285
C            1.47117072604713       -3.87072139189681        1.52843509658910
C            2.64382217973363       -3.36691931544407        2.01463849810387
C            3.25714416347877       -2.26984438866220        1.37666926748200
N            4.35749530277773       -1.69948762888138        1.90107424121348
C            4.91675690205680       -0.69709500036382        1.26324630301341
C            6.01972265995021       -0.00978157942691        1.94410274987622
C            6.93762557413705       -0.74819833487517        2.68835771762470
C            7.97789327702822       -0.11404159641825        3.34117851530482
C            8.10428531817330        1.26418373372446        3.27230974802471
C            7.17867766129971        2.00735887959312        2.55684767216292
C            6.14145738049765        1.37802451073443        1.89473590459354
C            4.43205751568747       -0.29194375685050       -0.02649751268939
C            5.17893969060650        0.61496261057648       -0.90615185969764
C            6.56293201455961        0.50840142502719       -1.03447735485838
C            7.24620192441840        1.34407270949295       -1.89759280368857
C            6.56009545864100        2.29163645000088       -2.64077762689848
C            5.18282986489218        2.39124213236465       -2.52952574616693
C            4.49346534785818        1.55459739118004       -1.67252115441764
N            3.30460340842097       -0.76972163105176       -0.49656415773174
C            2.66546079633009       -1.72999532635438        0.20149110722994
C            1.45331763185118       -2.25410546583469       -0.27264359180905
C           -1.46189631688197       -3.05273857899168       -0.40241726515061
C           -1.64810207662028       -1.69067020135838       -0.25150792445778
C           -4.76508629970490        1.96167628108221       -0.66690993945446
C           -5.99447764374809        2.47081964882252       -0.30562590326947
C           -9.26108476027605        1.48233995158765        1.03303882294839
C          -10.49801248272297        1.99207318277156        1.38211607528019
H          -11.61194083165163        3.74115636012008        1.92225260557793
H           -9.65424283876620        5.23718497439520        1.77065189944226
H           -7.45390865453460        4.33287945093481        1.15679293268588
H           -7.01186463595657        0.00983131215879        1.76619557699775
H           -4.82164519112599       -0.89174498570362        1.14506264422023
H           -2.51943241412181        2.34420377761486        0.98982932425602
H           -0.60728258854625        3.85714379237451        0.72194775803311
H            1.81868840936719        3.76236188375142        0.95538889360052
H            3.72006365530720        5.30214423228556        0.71114789317888
H            4.33880260459432        6.16310187779094       -1.51741090649644
H            3.04043510910058        5.47377469041750       -3.50123971953514
H            1.13801647654029        3.93433193007978       -3.25764434638957
H            0.71018507090570        1.59673372883035       -2.65609820717875
H           -1.20729514708752        0.08979390457407       -2.39362874593705
H           -4.80922004568951       -1.51977844615093       -1.47031138436338
H           -4.50236471362727       -3.95742023511067       -1.63791087915833
H           -3.51227802300284       -6.54859707607681       -1.56302930262466
H           -2.10844580015256       -8.56556887381072       -1.29158256732624
H            0.19035764907728       -8.38621958808774       -0.46284723883088
H            1.15635730967924       -6.20389907425637        0.14555645491599
H            0.97732006516486       -4.68904041163020        2.03038760538582
H            3.10974453349456       -3.77302540658509        2.89925430031297
H            6.82555042852270       -1.82101151141645        2.73576425145418
H            8.69097676451062       -0.69592173922172        3.90653904727760
H            8.91796872091610        1.75940591771349        3.78122940950446
H            7.26423553937663        3.08314813832182        2.51398512711294
H            5.41447893841198        1.96186511913062        1.34913233194973
H            7.09936715015095       -0.24098691592408       -0.47044921122964
H            8.31826272430354        1.25272182801662       -1.99220181273463
H            7.09830440935173        2.94624343461715       -3.31020410735513
H            4.64139808693997        3.12368342164974       -3.10847083180207
H            3.42140346847427        1.62827774095249       -1.57421944710225
H            1.02182833220290       -1.83274931180084       -1.16669771258106
H           -0.87655950046944       -1.06104350395286        0.16440038477632
H           -4.13446099361680        2.50538065053145       -1.35540765365373
H           -6.32333775846637        3.40892333204840       -0.72848877871404
H           -9.15714111895482        0.42995074666307        0.81086902386032
H          -11.35221168405053        1.33278054164417        1.44507838994892

          :  Hamiltonian                  GFN2-xTB          :
         :: gradient norm              0.000070776162 Eh/a0 ::
         :: HOMO-LUMO gap              1.290426558208 eV    ::
         :: SCC energy              -153.940741672707 Eh    ::
         :: -> dispersion             -0.142878080287 Eh    ::
         :: -> Gsolv                  -0.061482954754 Eh    ::
         :: repulsion energy           2.850052784496 Eh    ::

    * Orbital Energies and Occupations

         #    Occupation            Energy/Eh            Energy/eV
      -------------------------------------------------------------
         1        2.0000           -0.6813907             -18.5416
       ...           ...                  ...                  ...
       129        2.0000           -0.4093118             -11.1379
       130        2.0000           -0.4074390             -11.0870
       131        2.0000           -0.4056045             -11.0371
       132        2.0000           -0.4052140             -11.0264
       133        2.0000           -0.4045761             -11.0091
       134        2.0000           -0.4025210             -10.9532
       135        2.0000           -0.3995970             -10.8736
       136        2.0000           -0.3939989             -10.7213
       137        2.0000           -0.3875170             -10.5449
       138        2.0000           -0.3843119             -10.4577
       139        2.0000           -0.3672318              -9.9929
       140        2.0000           -0.3579302              -9.7398
       141        2.0000           -0.3465829              -9.4310 (HOMO)
       142                         -0.2991606              -8.1406 (LUMO)
       143                         -0.2686993              -7.3117
       144                         -0.2503820              -6.8132
       145                         -0.2486205              -6.7653
       146                         -0.2344486              -6.3797
       147                         -0.2318967              -6.3102
       148                         -0.2299632              -6.2576
       149                         -0.2275449              -6.1918
       150                         -0.2261930              -6.1550
       151                         -0.2253236              -6.1314
       152                         -0.2236060              -6.0846
       ...                                ...                  ...
       278                          0.7431971              20.2234
      -------------------------------------------------------------
                  HL-Gap            0.0474223 Eh            1.2904 eV

     #   Z          covCN         q      C6AA      α(0)
     1   6 C        2.920    -0.033    28.829     8.805
     2   6 C        2.918    -0.031    28.778     8.797
     3   6 C        2.925    -0.036    28.889     8.814
     4   6 C        2.976     0.009    27.802     8.649
     5   6 C        2.975     0.000    28.016     8.682
     6   6 C        2.924    -0.035    28.868     8.811
     7   6 C        2.920    -0.049    29.225     8.865
     8   6 C        2.923     0.063    26.578     8.454
     9   7 N        2.752    -0.076    22.716     7.079
    10   6 C        2.925     0.063    26.584     8.455
    11   6 C        2.920    -0.048    29.193     8.860
    12   6 C        2.924    -0.035    28.874     8.812
    13   6 C        2.976     0.001    27.995     8.679
    14   6 C        2.976     0.010    27.788     8.647
    15   6 C        2.925    -0.035    28.865     8.811
    16   6 C        2.918    -0.031    28.762     8.794
    17   6 C        2.920    -0.032    28.793     8.799
    18   6 C        2.918    -0.029    28.736     8.791
    19   6 C        2.925    -0.034    28.855     8.809
    20   6 C        2.923    -0.034    28.839     8.807
    21   6 C        2.920    -0.047    29.169     8.857
    22   6 C        2.926     0.063    26.586     8.456
    23   6 C        2.922    -0.058    29.442     8.898
    24   6 C        2.912    -0.034    28.841     8.806
    25   6 C        3.064    -0.024    28.547     8.761
    26   6 C        3.067    -0.015    28.323     8.727
    27   6 C        2.912    -0.035    28.873     8.811
    28   6 C        2.919    -0.041    29.023     8.834
    29   6 C        2.924    -0.035    28.873     8.812
    30   6 C        2.910    -0.052    29.283     8.873
    31   6 C        3.071     0.046    26.900     8.504
    32   7 N        2.802    -0.043    22.066     6.977
    33   6 C        2.910     0.067    26.509     8.443
    34   6 C        2.918    -0.042    29.040     8.837
    35   6 C        2.915    -0.043    29.069     8.841
    36   6 C        2.962     0.076    26.291     8.410
    37   7 N        1.850    -0.254    27.465     7.767
    38   6 C        2.949     0.088    26.045     8.370
    39   6 C        2.981     0.003    27.959     8.673
    40   6 C        2.925    -0.027    28.670     8.781
    41   6 C        2.918    -0.028    28.690     8.784
    42   6 C        2.920    -0.027    28.674     8.781
    43   6 C        2.919    -0.028    28.693     8.784
    44   6 C        2.923    -0.030    28.754     8.794
    45   6 C        2.949     0.092    25.966     8.358
    46   6 C        2.982     0.003    27.951     8.672
    47   6 C        2.923    -0.031    28.767     8.796
    48   6 C        2.919    -0.028    28.704     8.786
    49   6 C        2.920    -0.026    28.664     8.780
    50   6 C        2.919    -0.027    28.683     8.782
    51   6 C        2.925    -0.025    28.630     8.775
    52   7 N        1.852    -0.257    27.543     7.778
    53   6 C        2.962     0.081    26.183     8.393
    54   6 C        2.922    -0.059    29.474     8.903
    55   6 C        3.074     0.047    26.860     8.497
    56   6 C        2.914    -0.071    29.773     8.948
    57   6 C        2.921    -0.049    29.219     8.864
    58   6 C        2.924    -0.035    28.866     8.811
    59   6 C        2.925    -0.036    28.889     8.814
    60   6 C        2.918    -0.031    28.777     8.797
    61   1 H        0.926     0.029     2.597     2.520
    62   1 H        0.926     0.030     2.592     2.518
    63   1 H        0.926     0.031     2.572     2.508
    64   1 H        0.926     0.035     2.516     2.481
    65   1 H        0.926     0.032     2.554     2.499
    66   1 H        0.926     0.032     2.556     2.500
    67   1 H        0.926     0.035     2.520     2.482
    68   1 H        0.926     0.026     2.639     2.540
    69   1 H        0.926     0.029     2.605     2.524
    70   1 H        0.926     0.031     2.566     2.505
    71   1 H        0.926     0.032     2.563     2.503
    72   1 H        0.926     0.033     2.545     2.495
    73   1 H        0.926     0.037     2.484     2.465
    74   1 H        0.926     0.032     2.552     2.498
    75   1 H        0.926     0.035     2.521     2.483
    76   1 H        0.926     0.038     2.478     2.462
    77   1 H        0.926     0.033     2.538     2.491
    78   1 H        0.926     0.031     2.578     2.511
    79   1 H        0.926     0.032     2.559     2.502
    80   1 H        0.926     0.029     2.595     2.519
    81   1 H        0.926     0.057     2.231     2.336
    82   1 H        0.926     0.059     2.209     2.324
    83   1 H        0.926     0.044     2.398     2.422
    84   1 H        0.926     0.042     2.420     2.433
    85   1 H        0.926     0.042     2.418     2.432
    86   1 H        0.926     0.040     2.449     2.447
    87   1 H        0.926     0.028     2.616     2.529
    88   1 H        0.926     0.028     2.616     2.529
    89   1 H        0.926     0.041     2.441     2.443
    90   1 H        0.926     0.043     2.413     2.429
    91   1 H        0.926     0.042     2.416     2.431
    92   1 H        0.926     0.041     2.430     2.438
    93   1 H        0.926     0.057     2.233     2.337
    94   1 H        0.926     0.028     2.620     2.531
    95   1 H        0.926     0.032     2.562     2.503
    96   1 H        0.926     0.035     2.515     2.480
    97   1 H        0.926     0.031     2.568     2.506
    98   1 H        0.926     0.030     2.590     2.517

molecular dipole:
                 x           y           z       tot (Debye)
 q only:        0.683       0.511      -0.022
   full:        0.705       0.512       0.052       2.220

 projected vibrational frequencies (cm⁻¹)
eigval :       -0.00    -0.00     0.00     0.00     0.00     0.00
eigval :        5.70    14.79    15.77    20.88    21.90    31.76
eigval :       34.24    39.36    41.56    47.30    52.47    60.17
eigval :       63.57    68.00    71.30    71.46    79.34    85.59
eigval :       90.66    97.48   102.73   104.71   126.26   132.52
eigval :      149.90   156.03   173.04   177.40   194.98   199.94
eigval :      214.70   216.51   224.49   244.21   249.56   262.18
eigval :      283.29   295.50   300.91   305.03   317.33   334.68
eigval :      344.73   356.77   372.56   372.63   373.95   375.92
eigval :      378.21   381.35   384.03   388.94   391.04   395.16
eigval :      402.84   422.28   425.70   433.62   449.17   453.10
eigval :      466.46   473.54   490.69   496.09   507.18   531.97
eigval :      534.19   535.70   537.18   543.67   553.83   562.39
eigval :      571.46   584.58   586.06   588.83   589.77   591.07
eigval :      592.96   597.68   607.16   608.94   616.44   631.02
eigval :      642.71   660.57   666.33   667.54   670.08   672.35
eigval :      679.19   684.91   688.95   695.77   703.86   713.85
eigval :      723.04   737.32   746.61   749.29   756.02   757.63
eigval :      760.00   771.03   776.45   782.66   819.49   820.98
eigval :      822.81   827.46   840.32   861.64   862.79   869.96
eigval :      871.51   871.87   875.11   876.17   879.32   880.97
eigval :      884.31   891.12   896.91   899.80   900.50   903.32
eigval :      906.33   912.70   916.20   916.83   918.97   921.19
eigval :      925.97   927.33   927.54   927.99   928.96   931.66
eigval :      931.75   932.49   932.69   933.56   934.19   941.80
eigval :      961.58   971.17   973.11   986.27   997.19  1009.57
eigval :     1017.25  1017.84  1034.24  1069.72  1074.74  1075.68
eigval :     1078.79  1081.78  1086.87  1087.17  1095.75  1109.45
eigval :     1118.74  1119.25  1119.99  1120.39  1140.22  1141.49
eigval :     1143.76  1156.57  1161.89  1177.40  1178.44  1179.85
eigval :     1180.26  1182.27  1182.39  1192.57  1193.91  1195.59
eigval :     1196.49  1201.79  1204.65  1208.87  1231.85  1235.53
eigval :     1242.56  1265.31  1267.68  1269.45  1273.23  1276.61
eigval :     1277.96  1280.23  1280.43  1282.22  1287.33  1296.20
eigval :     1299.93  1308.56  1313.60  1316.50  1316.96  1318.62
eigval :     1320.30  1323.24  1329.44  1331.54  1349.96  1356.89
eigval :     1360.36  1383.56  1401.85  1403.78  1408.30  1420.67
eigval :     1427.20  1429.36  1431.96  1432.97  1436.57  1450.39
eigval :     1463.20  1463.25  1467.62  1472.64  1475.69  1480.63
eigval :     1483.84  1499.10  1499.85  1511.89  1528.49  1552.48
eigval :     1559.20  1563.07  1578.35  1579.06  1580.54  1581.05
eigval :     1585.23  1588.65  1590.40  1592.99  1593.43  1595.61
eigval :     1599.28  1601.47  1603.19  1607.89  3064.53  3064.95
eigval :     3065.09  3066.21  3073.05  3073.49  3073.56  3073.75
eigval :     3073.89  3074.72  3075.21  3075.45  3076.35  3077.17
eigval :     3078.00  3078.62  3078.95  3079.55  3084.08  3084.36
eigval :     3084.86  3085.27  3086.57  3086.70  3086.94  3087.66
eigval :     3088.44  3089.09  3089.47  3090.99  3093.32  3093.51
eigval :     3093.71  3096.37  3096.90  3100.68  3102.95  3107.01

   temp. (K)  partition function   enthalpy   heat capacity  entropy
                                   cal/mol     cal/K/mol   cal/K/mol   J/K/mol
 298.15  VIB  0.235E+23            28106.286    177.160    176.485
         ROT  0.176E+09              888.752      2.981     40.708
         INT  0.413E+31            28995.039    180.141    217.193
         TR   0.205E+29             1481.254      4.968     45.770
         TOT                       30476.2928   185.1093   262.9628  1100.2363

       T/K    H(0)-H(T)+PV         H(T)/Eh          T*S/Eh         G(T)/Eh
   ------------------------------------------------------------------------
    298.15    0.485671E-01    0.803835E+00    0.124942E+00    0.678893E+00
   ------------------------------------------------------------------------

         :::::::::::::::::::::::::::::::::::::::::::::::::::::
         ::                  THERMODYNAMIC                  ::
         :::::::::::::::::::::::::::::::::::::::::::::::::::::
         :: total free energy        -150.411796015148 Eh   ::
         ::.................................................::
         :: total energy             -151.090688887460 Eh   ::
         :: zero point energy           0.755267914353 Eh   ::
         :: G(RRHO) w/o ZPVE           -0.076375042040 Eh   ::
         :: G(RRHO) contrib.            0.678892872312 Eh   ::
         :::::::::::::::::::::::::::::::::::::::::::::::::::::

           -------------------------------------------------
          | TOTAL ENERGY             -151.090688887460 Eh   |
          | TOTAL ENTHALPY           -150.286853909161 Eh   |
          | TOTAL FREE ENERGY        -150.411796015148 Eh   |
          | GRADIENT NORM               0.000070777069 Eh/α |
          | HOMO-LUMO GAP               1.290426546512 eV   |
           -------------------------------------------------

 * finished run on 2025/09/04 at 11:15:33.147
