   * xtb version 6.7.1 (edcfbbe) compiled by 'albert@albert-system' on 2024-07-22

   ID    Z sym.   atoms
    1    6 C      1-8, 10-31, 33-36, 38-51, 53-60
    2    7 N      9, 32, 37, 52
    3    1 H      61-98

          program call               : xtb data2507/toluene/BDQC-2/BDQC-2.xyz --gfn 2 --gbsa toluene --ohess vtight --parallel 40 --molden --ceasefiles --namespace data2507/toluene/BDQC-2/BDQC-2_toluene_S0_preOpt
      * Solvation model:               GBSA
        Solvent                        toluene
        Solvent mass                       9.2140E+01 g/mol
          :  Hamiltonian                  GFN2-xTB          :
 * total energy  :  -151.0570099 Eh     change       -0.1906074E-08 Eh
 * total energy  :  -151.0742421 Eh     change       -0.1723222E-01 Eh
 * total energy  :  -151.0807304 Eh     change       -0.6488311E-02 Eh
 * total energy  :  -151.0832619 Eh     change       -0.2531457E-02 Eh
 * total energy  :  -151.0849312 Eh     change       -0.1669382E-02 Eh
 * total energy  :  -151.0854920 Eh     change       -0.5607776E-03 Eh
 * total energy  :  -151.0857924 Eh     change       -0.3003495E-03 Eh
 * total energy  :  -151.0861118 Eh     change       -0.3194665E-03 Eh
 * total energy  :  -151.0864388 Eh     change       -0.3270144E-03 Eh
 * total energy  :  -151.0866905 Eh     change       -0.2516569E-03 Eh
 * total energy  :  -151.0875727 Eh     change       -0.4549081E-06 Eh
 * total energy  :  -151.0875732 Eh     change       -0.4262012E-06 Eh
 * total energy  :  -151.0875736 Eh     change       -0.4135301E-06 Eh
 * total energy  :  -151.0875740 Eh     change       -0.4133271E-06 Eh
 * total energy  :  -151.0875744 Eh     change       -0.4109552E-06 Eh
 * total energy  :  -151.0875748 Eh     change       -0.3985313E-06 Eh
 * total energy  :  -151.0875752 Eh     change       -0.3843942E-06 Eh
 * total energy  :  -151.0875755 Eh     change       -0.3592348E-06 Eh
 * total energy  :  -151.0875755 Eh     change       -0.1682565E-08 Eh
   *** GEOMETRY OPTIMIZATION CONVERGED AFTER 94 ITERATIONS ***

 final structure:
================
98
 xtb: 6.7.1 (edcfbbe)
C          -11.55473376967321        0.33880747059908        1.92529987209046
C          -10.82363235877694        1.49063192889640        1.68490112268741
C           -9.51192622044816        1.40556000277486        1.25618271493975
C           -8.90516359333003        0.16546493006628        1.06356630262285
C           -7.50730841895577        0.07620552405622        0.61910731252169
C           -6.64221619062202       -0.87202489182038        1.16393871125919
C           -5.32447202628902       -0.94729795531201        0.76448751403853
C           -4.82984063775678       -0.08001247357916       -0.21013791985175
N           -3.49275659398701       -0.15069228382342       -0.61757429361872
C           -2.78208326753328        1.02515559549578       -0.88009070471785
C           -3.01025268902823        2.17691547227478       -0.12583030770720
C           -2.31112844788313        3.33616358094270       -0.38877460853960
C           -1.36129480141690        3.38925068651421       -1.40793697391302
C           -0.62261367234564        4.62964501266005       -1.68566818689212
C           -0.14983085653044        5.42518064196799       -0.64330620627318
C            0.53980510394875        6.59464726321420       -0.90512579733837
C            0.76700381925713        6.99254576695268       -2.21243258298435
C            0.30154657275065        6.21047730926286       -3.25683501627173
C           -0.38430838837974        5.03834340672033       -2.99671097109788
C           -1.13546881608746        2.23472011913103       -2.15632814531850
C           -1.83136883563995        1.07158743701394       -1.90063462386689
C           -2.85961443608820       -1.39527618743420       -0.71356140577201
C           -3.57329752994830       -2.50230048331478       -1.19876886841836
C           -2.98034998497198       -3.74020914181918       -1.31027166631094
C           -1.65260874220506       -3.89054973201388       -0.92853729977901
C           -0.73839169173593       -4.99722605839852       -0.93175404492683
C           -0.86180285855629       -6.33529042605835       -1.28389443250220
C            0.23416977891054       -7.16246372367852       -1.13527157014481
C            1.43560047419801       -6.67422675503869       -0.62739014913246
C            1.58188328460215       -5.34594037981301       -0.27076958144272
C            0.49323176704390       -4.50439626460493       -0.44252926446559
N            0.35821086107956       -3.15939001635306       -0.13773320826808
C            1.36093118869041       -2.32874456829193        0.36866601118505
C            1.07588222131254       -1.50035289143621        1.47970390397513
C            2.02889115010853       -0.67549451170651        2.00352443250582
C            3.32449373787041       -0.65606379966908        1.44919334936761
N            4.29111982879726        0.09746610094205        2.00524851490194
C            5.48810465102575        0.08863887245923        1.46560499757348
C            6.53624349195651        0.83151589875879        2.17737254409835
C            6.24581631791914        2.08338267038632        2.71524389769622
C            7.21826043886302        2.79345726695228        3.39425783374791
C            8.48416040283017        2.25490323615701        3.55943379682390
C            8.77113238115733        0.99790795799680        3.05124631675064
C            7.80580349499689        0.28780765335355        2.36227550548724
C            5.74206354053784       -0.64284765322802        0.25768120400302
C            7.00838695316663       -0.53475028801790       -0.47869085512425
C            7.58560420074488       -1.67948260778722       -1.02379477381862
C            8.77697285779314       -1.59623173410297       -1.72003441167443
C            9.39504010801689       -0.36859823160499       -1.89526222716984
C            8.81083254879898        0.77800342728531       -1.38081469508949
C            7.62489133615903        0.69935902923376       -0.67497737970705
N            4.82724203366037       -1.43038901390921       -0.25678956656185
C            3.61349385472475       -1.48394140969594        0.33024650646932
C            2.61544005544727       -2.31851021602803       -0.19829093998869
C           -0.93919557768038       -2.77733501034623       -0.42846234207958
C           -1.52784632827384       -1.52846989880952       -0.32870904227441
C           -5.69382010497340        0.86209143434819       -0.76946079927983
C           -7.00631890077055        0.94082969952346       -0.35364373049983
C           -9.65117197261666       -0.98628956622493        1.30846433243912
C          -10.96396532794220       -0.89942092721428        1.73359935050777
H          -12.57990638834108        0.40586822065638        2.25950794742974
H          -11.27742458685688        2.45999178463109        1.83557396835105
H           -8.94243007618695        2.30840846245464        1.08826121080511
H           -6.99926371010195       -1.53817126381203        1.93576003880369
H           -4.66404302974529       -1.67656504449171        1.21083775906029
H           -3.74063824737043        2.15499545741066        0.66994026001118
H           -2.51401388650898        4.22036429476453        0.19766602376274
H           -0.30892944426826        5.11282260654895        0.37886285798086
H            0.90391790392643        7.19814148961439       -0.08570370018736
H            1.30362859957098        7.90774634157617       -2.41637323154521
H            0.47163174984000        6.51734813557532       -4.27912264255474
H           -0.75909856665867        4.44217630986798       -3.81639073298840
H           -0.39499653543525        2.24547178262226       -2.94303221111402
H           -1.64449362239034        0.18796825811378       -2.49363291638747
H           -4.60107532734250       -2.36581704121622       -1.49998249120362
H           -3.53553353320884       -4.57862822457564       -1.70205010167845
H           -1.79854862038763       -6.71753049047353       -1.66070296921883
H            0.16013079669676       -8.20540318375913       -1.40614188699818
H            2.27135381259368       -7.34770206867277       -0.50597557000356
H            2.51298339107834       -4.98348486861328        0.13789683205047
H            0.09420876903875       -1.55109026571635        1.92562473035832
H            1.82603087281047       -0.04675209007780        2.85663924392599
H            5.25443528626817        2.49032124827353        2.58236059458145
H            6.98749803186902        3.76857437082372        3.79754519602063
H            9.24407930875804        2.80999931689522        4.08920517741907
H            9.75157929305171        0.56742145190688        3.19213125040940
H            8.02947646980344       -0.69768634541770        1.98006901592646
H            7.09209967945179       -2.62960351995089       -0.88332372509008
H            9.22309455519339       -2.49093786658904       -2.12887522613005
H           10.32637734598798       -0.30377620695365       -2.43810350110538
H            9.28054702301708        1.73908246865971       -1.52959357744641
H            7.16586842344698        1.59743944333182       -0.28781706043827
H            2.84955004011961       -2.92208202821382       -1.06118905799205
H           -0.97822199153470       -0.66966029293069        0.02437700686227
H           -5.32662895605745        1.53004386921617       -1.53521009492544
H           -7.66315879943658        1.66608160480369       -0.81137160936884
H           -9.20306014151060       -1.95590682490504        1.14520423098720
H          -11.53050030509567       -1.80191658618778        1.91467750672792

          :  Hamiltonian                  GFN2-xTB          :
         :: gradient norm              0.000034044617 Eh/a0 ::
         :: HOMO-LUMO gap              1.289252178022 eV    ::
         :: SCC energy              -153.936635178246 Eh    ::
         :: -> dispersion             -0.135852368271 Eh    ::
         :: -> Gsolv                  -0.064701902247 Eh    ::
         :: repulsion energy           2.849059641543 Eh    ::

    * Orbital Energies and Occupations

         #    Occupation            Energy/Eh            Energy/eV
      -------------------------------------------------------------
         1        2.0000           -0.6817397             -18.5511
       ...           ...                  ...                  ...
       129        2.0000           -0.4096248             -11.1465
       130        2.0000           -0.4072532             -11.0819
       131        2.0000           -0.4064962             -11.0613
       132        2.0000           -0.4053716             -11.0307
       133        2.0000           -0.4035383             -10.9808
       134        2.0000           -0.4026880             -10.9577
       135        2.0000           -0.3995340             -10.8719
       136        2.0000           -0.3952508             -10.7553
       137        2.0000           -0.3866649             -10.5217
       138        2.0000           -0.3845539             -10.4642
       139        2.0000           -0.3678074             -10.0085
       140        2.0000           -0.3579721              -9.7409
       141        2.0000           -0.3468149              -9.4373 (HOMO)
       142                         -0.2994357              -8.1481 (LUMO)
       143                         -0.2679802              -7.2921
       144                         -0.2508659              -6.8264
       145                         -0.2488696              -6.7721
       146                         -0.2344479              -6.3797
       147                         -0.2326877              -6.3318
       148                         -0.2304247              -6.2702
       149                         -0.2277801              -6.1982
       150                         -0.2267227              -6.1694
       151                         -0.2259757              -6.1491
       152                         -0.2236316              -6.0853
       ...                                ...                  ...
       278                          0.7425391              20.2055
      -------------------------------------------------------------
                  HL-Gap            0.0473791 Eh            1.2893 eV

     #   Z          covCN         q      C6AA      α(0)
     1   6 C        2.920    -0.033    28.825     8.804
     2   6 C        2.918    -0.031    28.776     8.797
     3   6 C        2.925    -0.036    28.887     8.814
     4   6 C        2.976     0.009    27.802     8.649
     5   6 C        2.975     0.001    27.998     8.679
     6   6 C        2.924    -0.035    28.864     8.810
     7   6 C        2.920    -0.048    29.203     8.862
     8   6 C        2.924     0.063    26.580     8.455
     9   7 N        2.752    -0.075    22.693     7.075
    10   6 C        2.923     0.063    26.588     8.456
    11   6 C        2.920    -0.049    29.221     8.865
    12   6 C        2.924    -0.035    28.868     8.811
    13   6 C        2.975     0.000    28.017     8.682
    14   6 C        2.976     0.009    27.810     8.650
    15   6 C        2.925    -0.036    28.893     8.815
    16   6 C        2.918    -0.031    28.778     8.797
    17   6 C        2.920    -0.033    28.826     8.804
    18   6 C        2.918    -0.031    28.777     8.797
    19   6 C        2.925    -0.036    28.887     8.814
    20   6 C        2.924    -0.035    28.878     8.813
    21   6 C        2.920    -0.049    29.228     8.866
    22   6 C        2.926     0.063    26.594     8.457
    23   6 C        2.922    -0.057    29.419     8.895
    24   6 C        2.912    -0.033    28.833     8.805
    25   6 C        3.066    -0.024    28.527     8.758
    26   6 C        3.066    -0.015    28.319     8.726
    27   6 C        2.912    -0.035    28.871     8.811
    28   6 C        2.920    -0.041    29.015     8.833
    29   6 C        2.924    -0.035    28.863     8.810
    30   6 C        2.910    -0.051    29.262     8.870
    31   6 C        3.071     0.045    26.908     8.505
    32   7 N        2.802    -0.042    22.042     6.973
    33   6 C        2.909     0.067    26.500     8.441
    34   6 C        2.919    -0.042    29.034     8.836
    35   6 C        2.916    -0.043    29.060     8.840
    36   6 C        2.963     0.077    26.274     8.408
    37   7 N        1.850    -0.255    27.477     7.769
    38   6 C        2.950     0.088    26.043     8.370
    39   6 C        2.981     0.003    27.949     8.672
    40   6 C        2.925    -0.026    28.664     8.780
    41   6 C        2.918    -0.027    28.688     8.783
    42   6 C        2.920    -0.027    28.677     8.782
    43   6 C        2.919    -0.028    28.696     8.784
    44   6 C        2.923    -0.030    28.759     8.794
    45   6 C        2.949     0.091    25.984     8.361
    46   6 C        2.981     0.003    27.951     8.672
    47   6 C        2.925    -0.026    28.658     8.779
    48   6 C        2.918    -0.027    28.687     8.783
    49   6 C        2.920    -0.027    28.669     8.780
    50   6 C        2.919    -0.028    28.692     8.784
    51   6 C        2.923    -0.030    28.750     8.793
    52   7 N        1.851    -0.258    27.569     7.782
    53   6 C        2.962     0.081    26.188     8.394
    54   6 C        2.921    -0.060    29.498     8.907
    55   6 C        3.069     0.048    26.866     8.499
    56   6 C        2.913    -0.071    29.778     8.948
    57   6 C        2.920    -0.048    29.197     8.861
    58   6 C        2.924    -0.035    28.863     8.810
    59   6 C        2.925    -0.036    28.887     8.814
    60   6 C        2.918    -0.031    28.776     8.797
    61   1 H        0.926     0.029     2.596     2.520
    62   1 H        0.926     0.030     2.590     2.517
    63   1 H        0.926     0.031     2.567     2.505
    64   1 H        0.926     0.036     2.506     2.476
    65   1 H        0.926     0.033     2.549     2.497
    66   1 H        0.926     0.033     2.540     2.492
    67   1 H        0.926     0.036     2.504     2.475
    68   1 H        0.926     0.031     2.569     2.506
    69   1 H        0.926     0.030     2.581     2.512
    70   1 H        0.926     0.030     2.587     2.515
    71   1 H        0.926     0.030     2.584     2.514
    72   1 H        0.926     0.031     2.572     2.508
    73   1 H        0.926     0.033     2.541     2.493
    74   1 H        0.926     0.031     2.570     2.507
    75   1 H        0.926     0.034     2.526     2.486
    76   1 H        0.926     0.038     2.472     2.459
    77   1 H        0.926     0.034     2.528     2.486
    78   1 H        0.926     0.031     2.569     2.506
    79   1 H        0.926     0.032     2.557     2.501
    80   1 H        0.926     0.028     2.610     2.526
    81   1 H        0.926     0.057     2.236     2.339
    82   1 H        0.926     0.059     2.210     2.325
    83   1 H        0.926     0.042     2.420     2.433
    84   1 H        0.926     0.042     2.421     2.433
    85   1 H        0.926     0.042     2.418     2.432
    86   1 H        0.926     0.040     2.446     2.446
    87   1 H        0.926     0.028     2.620     2.531
    88   1 H        0.926     0.042     2.417     2.431
    89   1 H        0.926     0.042     2.417     2.431
    90   1 H        0.926     0.043     2.413     2.429
    91   1 H        0.926     0.041     2.442     2.444
    92   1 H        0.926     0.028     2.612     2.527
    93   1 H        0.926     0.058     2.217     2.328
    94   1 H        0.926     0.032     2.562     2.503
    95   1 H        0.926     0.032     2.552     2.498
    96   1 H        0.926     0.035     2.510     2.477
    97   1 H        0.926     0.032     2.564     2.504
    98   1 H        0.926     0.030     2.589     2.516

molecular dipole:
                 x           y           z       tot (Debye)
 q only:        0.549       0.321       0.119
   full:        0.574       0.359       0.148       1.762

 projected vibrational frequencies (cm⁻¹)
eigval :       -0.00     0.00     0.00     0.00     0.00     0.00
eigval :        5.38     8.40     9.05    17.60    19.53    21.75
eigval :       29.24    31.39    39.64    40.62    44.42    54.23
eigval :       63.25    64.59    66.52    71.94    80.80    82.11
eigval :       88.58    97.43   102.47   105.21   118.30   138.60
eigval :      147.67   157.46   170.40   184.17   195.21   200.69
eigval :      210.34   216.88   234.50   237.30   250.86   261.59
eigval :      283.15   294.97   298.27   304.22   321.05   328.85
eigval :      341.14   363.60   369.48   371.44   375.39   376.11
eigval :      377.04   379.35   382.58   385.00   388.05   392.49
eigval :      408.00   421.79   426.08   430.84   447.91   455.00
eigval :      469.02   473.47   489.58   493.46   507.78   530.38
eigval :      532.35   534.22   536.27   543.77   555.46   564.47
eigval :      570.18   584.37   585.58   587.75   588.59   591.03
eigval :      591.82   599.80   607.46   609.39   616.61   631.41
eigval :      645.22   661.34   664.72   667.80   669.01   670.89
eigval :      677.02   683.86   686.69   696.63   703.06   714.69
eigval :      722.53   737.60   746.44   750.18   752.40   755.39
eigval :      759.94   770.75   776.70   783.10   816.19   818.16
eigval :      821.22   829.11   839.99   861.33   864.63   866.71
eigval :      868.14   871.54   875.92   876.02   876.80   877.40
eigval :      883.45   887.51   894.62   897.90   901.73   902.22
eigval :      904.85   912.95   915.66   916.52   917.00   918.89
eigval :      924.46   925.27   927.09   928.43   928.53   928.79
eigval :      929.57   930.11   930.85   931.52   932.15   941.75
eigval :      961.02   971.12   972.83   984.84   996.33  1008.79
eigval :     1017.01  1018.14  1034.32  1071.93  1074.81  1075.46
eigval :     1078.42  1081.47  1087.16  1087.59  1095.98  1109.59
eigval :     1118.92  1119.15  1120.50  1120.78  1141.81  1143.12
eigval :     1145.49  1154.35  1160.98  1176.89  1177.99  1178.78
eigval :     1180.62  1181.62  1181.72  1193.18  1193.41  1195.69
eigval :     1196.34  1203.37  1205.66  1209.25  1232.34  1234.38
eigval :     1241.35  1264.27  1268.82  1269.48  1273.43  1275.75
eigval :     1277.75  1281.05  1281.25  1281.84  1288.05  1290.06
eigval :     1301.20  1308.28  1313.97  1316.34  1316.75  1317.63
eigval :     1319.06  1323.67  1327.88  1331.51  1349.76  1356.52
eigval :     1360.19  1384.59  1402.06  1406.26  1408.28  1418.47
eigval :     1426.76  1428.58  1432.28  1432.96  1435.83  1449.49
eigval :     1462.88  1463.86  1468.74  1471.67  1476.05  1480.43
eigval :     1483.10  1499.19  1499.47  1511.49  1531.31  1552.07
eigval :     1558.74  1563.24  1578.51  1578.84  1580.34  1580.49
eigval :     1584.17  1588.39  1591.41  1593.18  1594.00  1595.34
eigval :     1597.22  1601.61  1603.36  1607.25  3064.52  3065.14
eigval :     3066.01  3066.46  3072.82  3073.35  3073.62  3074.04
eigval :     3074.48  3074.75  3074.86  3075.90  3076.24  3076.41
eigval :     3076.58  3078.27  3078.87  3079.40  3082.76  3083.32
eigval :     3084.12  3084.77  3085.48  3086.43  3086.76  3087.13
eigval :     3088.27  3089.17  3089.38  3090.09  3092.00  3093.81
eigval :     3095.41  3095.66  3095.70  3097.84  3102.70  3104.04

   temp. (K)  partition function   enthalpy   heat capacity  entropy
                                   cal/mol     cal/K/mol   cal/K/mol   J/K/mol
 298.15  VIB  0.353E+24            28230.000    176.404    178.563
         ROT  0.207E+09              888.752      2.981     41.036
         INT  0.732E+32            29118.752    179.385    219.599
         TR   0.205E+29             1481.254      4.968     45.770
         TOT                       30600.0063   184.3531   265.3689  1110.3034

       T/K    H(0)-H(T)+PV         H(T)/Eh          T*S/Eh         G(T)/Eh
   ------------------------------------------------------------------------
    298.15    0.487642E-01    0.803618E+00    0.126085E+00    0.677533E+00
   ------------------------------------------------------------------------

         :::::::::::::::::::::::::::::::::::::::::::::::::::::
         ::                  THERMODYNAMIC                  ::
         :::::::::::::::::::::::::::::::::::::::::::::::::::::
         :: total free energy        -150.410042819190 Eh   ::
         ::.................................................::
         :: total energy             -151.087575533361 Eh   ::
         :: zero point energy           0.754853824223 Eh   ::
         :: G(RRHO) w/o ZPVE           -0.077321110052 Eh   ::
         :: G(RRHO) contrib.            0.677532714171 Eh   ::
         :::::::::::::::::::::::::::::::::::::::::::::::::::::

           -------------------------------------------------
          | TOTAL ENERGY             -151.087575533361 Eh   |
          | TOTAL ENTHALPY           -150.283957495194 Eh   |
          | TOTAL FREE ENERGY        -150.410042819190 Eh   |
          | GRADIENT NORM               0.000034046895 Eh/α |
          | HOMO-LUMO GAP               1.289251958417 eV   |
           -------------------------------------------------

 * finished run on 2025/09/04 at 11:07:23.738
