   * xtb version 6.7.1 (edcfbbe) compiled by 'albert@albert-system' on 2024-07-22

   ID    Z sym.   atoms
    1    6 C      1-12, 14-17, 19-22, 24-39
    2    7 N      13, 18, 23
    3    1 H      40-64

          program call               : xtb data2507/toluene/arylene/arylene_toluene_S0_crest.xyz --gfn 2 --gbsa toluene --ohess vtight --parallel 40 --molden --ceasefiles --namespace data2507/toluene/arylene/arylene_toluene_S0_finalOpt
      * Solvation model:               GBSA
        Solvent                        toluene
        Solvent mass                       9.2140E+01 g/mol
          :  Hamiltonian                  GFN2-xTB          :
 * total energy  :   -98.7184964 Eh     change       -0.3418748E-08 Eh
 * total energy  :   -98.7185211 Eh     change       -0.2473391E-04 Eh
 * total energy  :   -98.7185333 Eh     change       -0.1212841E-04 Eh
 * total energy  :   -98.7185390 Eh     change       -0.5689549E-05 Eh
 * total energy  :   -98.7185455 Eh     change       -0.6526605E-05 Eh
 * total energy  :   -98.7185493 Eh     change       -0.3823176E-05 Eh
 * total energy  :   -98.7185523 Eh     change       -0.2995917E-05 Eh
 * total energy  :   -98.7185548 Eh     change       -0.2495302E-05 Eh
 * total energy  :   -98.7185563 Eh     change       -0.1482271E-05 Eh
 * total energy  :   -98.7185571 Eh     change       -0.8441786E-06 Eh
 * total energy  :   -98.7185593 Eh     change       -0.5080538E-06 Eh
 * total energy  :   -98.7185599 Eh     change       -0.5139439E-06 Eh
 * total energy  :   -98.7185603 Eh     change       -0.4000616E-06 Eh
 * total energy  :   -98.7185606 Eh     change       -0.3193666E-06 Eh
 * total energy  :   -98.7185609 Eh     change       -0.2972667E-06 Eh
 * total energy  :   -98.7185611 Eh     change       -0.2446315E-06 Eh
 * total energy  :   -98.7185614 Eh     change       -0.2466480E-06 Eh
 * total energy  :   -98.7185616 Eh     change       -0.2560990E-06 Eh
 * total energy  :   -98.7185616 Eh     change       -0.4166864E-08 Eh
   *** GEOMETRY OPTIMIZATION CONVERGED AFTER 22 ITERATIONS ***

 final structure:
================
64
 xtb: 6.7.1 (edcfbbe)
C            7.96721520260390       -1.60855195169616        2.47525274586469
C            6.76290471764664       -2.30518686052757        2.38809287997636
C            5.74182725503481       -1.87963289638544        1.56036418573604
C            5.95329365486371       -0.73352233882451        0.80603892176156
C            7.16515946604784       -0.00952769610865        0.90134906001829
C            8.17667019577940       -0.45770375672745        1.74172439247062
C            7.03124826879774        1.12365200419000        0.02944496333746
C            7.87328295810734        2.17495568835506       -0.31145540565502
C            7.42699309757356        3.11283211376234       -1.22119243662061
C            6.16284532163336        3.00627487491629       -1.79892248874552
C            5.30730053749163        1.97044373662999       -1.47658797140955
C            5.74225809657736        1.03496459614850       -0.54747292060511
N            5.10446745935761       -0.09103861416708       -0.07058873282759
C            3.80757923822158       -0.51121983531233       -0.41355960589421
C            2.72994746230955        0.36186418216100       -0.29888043876537
C            1.45526178357473       -0.04661848901727       -0.63414957756254
C            1.22069859456694       -1.35232615836764       -1.07057096273340
N           -0.03459475954326       -1.80529012047415       -1.43197719149671
C           -1.27338509509462       -1.32841663178307       -1.04346859206680
C           -2.37685567601412       -1.57124908823257       -1.86646610697395
C           -3.63390102391141       -1.12716554980758       -1.51457552675979
C           -3.82618318316469       -0.44242410361564       -0.31791741643570
N           -5.10336184304666        0.02355378726336        0.03923938502294
C           -6.26044657135764       -0.72615021242481        0.07300952618846
C           -6.44394259373182       -2.08097358373227       -0.16876806479238
C           -7.72211011284384       -2.59136376004145       -0.04799610712917
C           -8.79805594210493       -1.78196800960839        0.31314256743296
C           -8.61865359215485       -0.43860819451091        0.57665353289244
C           -7.34250449503718        0.09865629654201        0.46185617421961
C           -6.79941534266068        1.41190823086215        0.66764657035627
C           -7.35425986944538        2.63140686072805        1.03561433389414
C           -6.52977349411092        3.73565048609444        1.12113596662541
C           -5.16908837855167        3.63813527642210        0.83431517598711
C           -4.59372942046208        2.43696638435295        0.46705365413465
C           -5.41380059561316        1.31894517593557        0.39721995378576
C           -2.73870765107876       -0.23071780647327        0.52443388717727
C           -1.47871959975631       -0.66699611758802        0.16940735138626
C            2.31152752523703       -2.21657499830840       -1.20528728163934
C            3.58685971402843       -1.80247659126874       -0.88483775477897
H            8.74236013191296       -1.97447350477295        3.13283840617730
H            6.62435041507045       -3.19598919985860        2.98378192204311
H            4.80685893148598       -2.41721344638264        1.50920091393887
H            9.10537481362800        0.08816801094219        1.81946709566931
H            8.85796904987028        2.25143343630997        0.12564193553314
H            8.06601465952259        3.93871403240446       -1.49808414425539
H            5.84673503187296        3.74900943693384       -2.51722692591083
H            4.33566112653077        1.88756347628905       -1.94006045419460
H            2.89652543178397        1.36858182207369        0.05441555528375
H            0.63923789843728        0.65601391087394       -0.57617203062959
H           -0.04879637661235       -2.57717437399544       -2.08338779664749
H           -2.23824859128674       -2.10457273201780       -2.79614159100891
H           -4.47262903396779       -1.29762420598339       -2.17268614701465
H           -5.61400916299448       -2.71843753183677       -0.43450219501980
H           -7.89165622635165       -3.64215328608093       -0.23410016672288
H           -9.78304293086112       -2.21828381839196        0.39434362341188
H           -9.45016919611076        0.18508669630389        0.87005615855168
H           -8.41069303955395        2.71085083519752        1.24555849061818
H           -6.94188647820932        4.69254891776382        1.40695891438720
H           -4.55175467262603        4.52270964031915        0.89753303523044
H           -3.54163908929089        2.37329096358647        0.23317012415291
H           -2.88941013532762        0.26394514246368        1.47247867029367
H           -0.65487317451527       -0.52582305841706        0.85099953567999
H            2.15071657688370       -3.22003081998214       -1.57298673956715
H            4.42209031354085       -2.47642397780198       -1.00400064507626

          :  Hamiltonian                  GFN2-xTB          :
         :: gradient norm              0.000048410921 Eh/a0 ::
         :: HOMO-LUMO gap              2.858433309944 eV    ::
         :: SCC energy              -100.573521143252 Eh    ::
         :: -> dispersion             -0.084650640922 Eh    ::
         :: -> Gsolv                  -0.040819088113 Eh    ::
         :: repulsion energy           1.854959516124 Eh    ::

    * Orbital Energies and Occupations

         #    Occupation            Energy/Eh            Energy/eV
      -------------------------------------------------------------
         1        2.0000           -0.6734171             -18.3246
       ...           ...                  ...                  ...
        80        2.0000           -0.4171058             -11.3500
        81        2.0000           -0.4167194             -11.3395
        82        2.0000           -0.4164418             -11.3320
        83        2.0000           -0.4126641             -11.2292
        84        2.0000           -0.4116108             -11.2005
        85        2.0000           -0.4105479             -11.1716
        86        2.0000           -0.4032855             -10.9740
        87        2.0000           -0.4032311             -10.9725
        88        2.0000           -0.3765848             -10.2474
        89        2.0000           -0.3765299             -10.2459
        90        2.0000           -0.3734420             -10.1619
        91        2.0000           -0.3607325              -9.8160
        92        2.0000           -0.3501609              -9.5284 (HOMO)
        93                         -0.2451154              -6.6699 (LUMO)
        94                         -0.2432369              -6.6188
        95                         -0.2369049              -6.4465
        96                         -0.2309320              -6.2840
        97                         -0.2298021              -6.2532
        98                         -0.2200586              -5.9881
        99                         -0.2199793              -5.9859
       100                         -0.2129224              -5.7939
       101                         -0.1894393              -5.1549
       102                         -0.1844054              -5.0179
       103                         -0.1842542              -5.0138
       ...                                ...                  ...
       181                          0.7465359              20.3143
      -------------------------------------------------------------
                  HL-Gap            0.1050455 Eh            2.8584 eV

     #   Z          covCN         q      C6AA      α(0)
     1   6 C        2.919    -0.044    29.086     8.844
     2   6 C        2.924    -0.036    28.890     8.814
     3   6 C        2.909    -0.053    29.305     8.877
     4   6 C        3.078     0.047    26.860     8.497
     5   6 C        3.067    -0.020    28.432     8.743
     6   6 C        2.912    -0.035    28.883     8.813
     7   6 C        3.067    -0.020    28.432     8.743
     8   6 C        2.912    -0.036    28.883     8.813
     9   6 C        2.919    -0.044    29.086     8.844
    10   6 C        2.924    -0.036    28.890     8.814
    11   6 C        2.909    -0.053    29.306     8.877
    12   6 C        3.078     0.047    26.862     8.497
    13   7 N        2.802    -0.047    22.140     6.988
    14   6 C        2.911     0.051    26.847     8.496
    15   6 C        2.921    -0.042    29.051     8.839
    16   6 C        2.921    -0.053    29.309     8.878
    17   6 C        2.902     0.067    26.491     8.439
    18   7 N        2.700    -0.146    24.152     7.299
    19   6 C        2.902     0.067    26.494     8.440
    20   6 C        2.925    -0.058    29.435     8.897
    21   6 C        2.920    -0.041    29.030     8.836
    22   6 C        2.911     0.052    26.841     8.495
    23   7 N        2.802    -0.046    22.136     6.988
    24   6 C        3.077     0.047    26.864     8.498
    25   6 C        2.909    -0.053    29.306     8.877
    26   6 C        2.923    -0.036    28.892     8.815
    27   6 C        2.919    -0.044    29.086     8.844
    28   6 C        2.912    -0.035    28.883     8.813
    29   6 C        3.068    -0.020    28.431     8.743
    30   6 C        3.067    -0.020    28.432     8.743
    31   6 C        2.912    -0.035    28.883     8.813
    32   6 C        2.919    -0.044    29.085     8.844
    33   6 C        2.923    -0.036    28.889     8.814
    34   6 C        2.909    -0.052    29.302     8.876
    35   6 C        3.078     0.047    26.861     8.497
    36   6 C        2.921    -0.042    29.045     8.838
    37   6 C        2.921    -0.052    29.301     8.877
    38   6 C        2.925    -0.058    29.440     8.898
    39   6 C        2.920    -0.041    29.022     8.834
    40   1 H        0.926     0.026     2.646     2.544
    41   1 H        0.926     0.029     2.608     2.525
    42   1 H        0.926     0.029     2.597     2.520
    43   1 H        0.926     0.028     2.614     2.528
    44   1 H        0.926     0.028     2.613     2.528
    45   1 H        0.926     0.026     2.645     2.543
    46   1 H        0.926     0.028     2.608     2.525
    47   1 H        0.926     0.029     2.596     2.520
    48   1 H        0.926     0.042     2.418     2.432
    49   1 H        0.926     0.046     2.375     2.410
    50   1 H        0.860     0.166     1.296     1.783
    51   1 H        0.926     0.038     2.482     2.464
    52   1 H        0.926     0.043     2.415     2.430
    53   1 H        0.926     0.029     2.598     2.520
    54   1 H        0.926     0.029     2.607     2.525
    55   1 H        0.926     0.026     2.645     2.543
    56   1 H        0.926     0.028     2.613     2.528
    57   1 H        0.926     0.028     2.613     2.528
    58   1 H        0.926     0.026     2.645     2.543
    59   1 H        0.926     0.029     2.607     2.525
    60   1 H        0.926     0.029     2.598     2.521
    61   1 H        0.926     0.043     2.415     2.430
    62   1 H        0.926     0.046     2.367     2.406
    63   1 H        0.926     0.037     2.485     2.465
    64   1 H        0.926     0.042     2.419     2.432

molecular dipole:
                 x           y           z       tot (Debye)
 q only:       -0.028      -0.778      -0.622
   full:       -0.031      -0.893      -0.724       2.923

 projected vibrational frequencies (cm⁻¹)
eigval :       -0.00    -0.00    -0.00     0.00     0.00     0.00
eigval :        8.23    13.55    16.45    34.84    39.58    56.81
eigval :       58.10    66.62   101.11   104.12   104.95   133.57
eigval :      143.55   145.11   158.20   168.51   185.66   221.63
eigval :      231.17   255.39   269.92   271.98   289.96   319.97
eigval :      335.15   363.25   379.58   385.16   392.57   395.86
eigval :      400.09   413.34   418.01   422.49   424.50   429.48
eigval :      435.55   446.58   488.50   491.85   518.39   518.68
eigval :      532.35   533.22   540.26   540.75   575.79   579.49
eigval :      585.50   588.18   595.66   601.62   617.72   636.43
eigval :      672.79   673.99   674.74   675.75   701.99   704.84
eigval :      710.08   710.81   755.33   755.68   767.33   769.62
eigval :      779.03   780.88   804.14   806.81   824.67   856.26
eigval :      865.19   868.95   871.13   872.96   876.20   881.86
eigval :      895.90   896.84   899.41   901.19   902.24   902.64
eigval :      909.56   913.97   917.84   920.61   921.93   923.96
eigval :      925.29   934.66   942.83   949.27  1010.70  1010.77
eigval :     1016.14  1020.55  1067.30  1067.94  1070.83  1071.99
eigval :     1115.97  1117.08  1131.67  1140.99  1150.16  1151.07
eigval :     1174.28  1176.12  1179.91  1181.04  1181.40  1183.37
eigval :     1195.14  1199.55  1226.75  1233.96  1234.66  1235.54
eigval :     1242.81  1253.47  1271.98  1276.94  1298.74  1300.03
eigval :     1303.86  1304.40  1324.46  1328.85  1355.08  1355.63
eigval :     1358.04  1361.53  1361.60  1367.55  1391.37  1420.57
eigval :     1426.17  1427.64  1430.21  1433.26  1452.05  1474.74
eigval :     1475.02  1487.25  1487.43  1493.41  1494.16  1560.51
eigval :     1561.32  1572.31  1572.38  1586.86  1587.10  1596.51
eigval :     1596.65  1601.27  1603.25  1612.93  1613.18  3069.24
eigval :     3069.33  3069.56  3069.70  3072.44  3072.82  3074.21
eigval :     3074.35  3075.17  3075.33  3082.07  3082.30  3083.19
eigval :     3083.53  3086.72  3087.48  3089.23  3089.36  3091.24
eigval :     3091.45  3092.10  3092.45  3104.19  3106.58  3423.16

   temp. (K)  partition function   enthalpy   heat capacity  entropy
                                   cal/mol     cal/K/mol   cal/K/mol   J/K/mol
 298.15  VIB  0.716E+13            17091.556    113.050    104.620
         ROT  0.626E+08              888.752      2.981     38.656
         INT  0.448E+21            17980.308    116.031    143.276
         TR   0.108E+29             1481.254      4.968     44.493
         TOT                       19461.5618   120.9992   187.7684   785.6228

       T/K    H(0)-H(T)+PV         H(T)/Eh          T*S/Eh         G(T)/Eh
   ------------------------------------------------------------------------
    298.15    0.310140E-01    0.526011E+00    0.892148E-01    0.436797E+00
   ------------------------------------------------------------------------

         :::::::::::::::::::::::::::::::::::::::::::::::::::::
         ::                  THERMODYNAMIC                  ::
         :::::::::::::::::::::::::::::::::::::::::::::::::::::
         :: total free energy         -98.281765016712 Eh   ::
         ::.................................................::
         :: total energy              -98.718561621646 Eh   ::
         :: zero point energy           0.494997437853 Eh   ::
         :: G(RRHO) w/o ZPVE           -0.058200832919 Eh   ::
         :: G(RRHO) contrib.            0.436796604934 Eh   ::
         :::::::::::::::::::::::::::::::::::::::::::::::::::::

           -------------------------------------------------
          | TOTAL ENERGY              -98.718561621646 Eh   |
          | TOTAL ENTHALPY            -98.192550210947 Eh   |
          | TOTAL FREE ENERGY         -98.281765016712 Eh   |
          | GRADIENT NORM               0.000048407837 Eh/α |
          | HOMO-LUMO GAP               2.858433360519 eV   |
           -------------------------------------------------

 * finished run on 2025/08/25 at 06:47:43.591
