   * xtb version 6.7.1 (edcfbbe) compiled by 'albert@albert-system' on 2024-07-22

   ID    Z sym.   atoms
    1    6 C      1-12, 14-17, 19-22, 24-39
    2    7 N      13, 18, 23
    3    1 H      40-64

          program call               : xtb data2507/toluene/arylene/arylene_toluene_T1_crest.xyz --gfn 2 --uhf 2 --gbsa toluene --ohess vtight --parallel 40 --molden --ceasefiles --namespace data2507/toluene/arylene/arylene_toluene_T1_finalOpt
      * Solvation model:               GBSA
        Solvent                        toluene
        Solvent mass                       9.2140E+01 g/mol
          :  Hamiltonian                  GFN2-xTB          :
 * total energy  :   -98.6166585 Eh     change       -0.2646544E-08 Eh
 * total energy  :   -98.6166925 Eh     change       -0.3400271E-04 Eh
 * total energy  :   -98.6167034 Eh     change       -0.1087696E-04 Eh
 * total energy  :   -98.6167068 Eh     change       -0.3414121E-05 Eh
 * total energy  :   -98.6167102 Eh     change       -0.3356678E-05 Eh
 * total energy  :   -98.6167142 Eh     change       -0.4072088E-05 Eh
 * total energy  :   -98.6167193 Eh     change       -0.5014037E-05 Eh
 * total energy  :   -98.6167249 Eh     change       -0.5604828E-05 Eh
 * total energy  :   -98.6167307 Eh     change       -0.5849047E-05 Eh
 * total energy  :   -98.6167361 Eh     change       -0.5384467E-05 Eh
 * total energy  :   -98.6167597 Eh     change       -0.1289707E-06 Eh
 * total energy  :   -98.6167598 Eh     change       -0.1078498E-06 Eh
 * total energy  :   -98.6167599 Eh     change       -0.1460901E-06 Eh
 * total energy  :   -98.6167601 Eh     change       -0.1371777E-06 Eh
 * total energy  :   -98.6167602 Eh     change       -0.1342683E-06 Eh
 * total energy  :   -98.6167603 Eh     change       -0.1252634E-06 Eh
 * total energy  :   -98.6167605 Eh     change       -0.1224286E-06 Eh
 * total energy  :   -98.6167606 Eh     change       -0.1294251E-06 Eh
 * total energy  :   -98.6167606 Eh     change       -0.1055582E-09 Eh
   *** GEOMETRY OPTIMIZATION CONVERGED AFTER 44 ITERATIONS ***

 final structure:
================
64
 xtb: 6.7.1 (edcfbbe)
C            6.53217717690061       -3.62107461976803       -1.30539202522041
C            5.16305411296509       -3.39887313987752       -1.45094170200740
C            4.58401659808657       -2.20063881642554       -1.05743064388067
C            5.40260897919641       -1.23144697447099       -0.50341722238823
C            6.80435488703876       -1.43378336283488       -0.38872926115751
C            7.36197766794109       -2.64743993694721       -0.78601573402147
C            7.35286437638511       -0.22681092661398        0.14212785992121
C            8.64346563358131        0.16929773086260        0.48726433400138
C            8.82873632442720        1.42193195148088        1.03754502758322
C            7.74965835704385        2.27536691851376        1.26631772801521
C            6.45647491041058        1.90609480070411        0.92395553713352
C            6.26545512046396        0.66717398529001        0.33656921693919
N            5.08953132068696        0.04748103723145       -0.06353805323408
C            3.82446144477434        0.60335653178968       -0.03144982664679
C            2.72068425557413       -0.14057233130885        0.44118725019673
C            1.46600011793029        0.39824547107247        0.46830076703293
C            1.23559434832142        1.71554231587068        0.00365890929976
N           -0.00146582409261        2.29951803200216        0.00194864180734
C           -1.23779396592492        1.71407193223315       -0.00131935588437
C           -2.35541614311428        2.47256704717387        0.42610303914883
C           -3.60882710038580        1.93200317407158        0.44563679598693
C           -3.82525423401704        0.59854531513450        0.03096960844392
N           -5.08945110275137        0.04069517279249        0.06274220541350
C           -6.26651342019821        0.65903338803519       -0.33608137124662
C           -6.45952765281219        1.89753216386651       -0.92370716890498
C           -7.75353218033282        2.26537217297778       -1.26452353590472
C           -8.83146442729699        1.41096882195328       -1.03392904986421
C           -8.64420847934329        0.15868680978997       -0.48352669768276
C           -7.35273762041114       -0.23604832876973       -0.14006495798784
C           -6.80226858208026       -1.44237628867421        0.39021320175434
C           -7.35814308285857       -2.65653896332756        0.78841651115025
C           -6.52666239956662       -3.62933156144418        1.30668302047324
C           -5.15754654903450       -3.40579832126394        1.45019145520732
C           -4.58026261948667       -2.20697117733855        1.05588933436600
C           -5.40058932116401       -1.23858095476986        0.50305800193514
C           -2.72018661287721       -0.14355399049035       -0.44151799792017
C           -1.46617381256830        0.39688266423408       -0.46725613991994
C            2.35188591741212        2.47572709605421       -0.42422189396746
C            3.60594896137520        1.93673397355370       -0.44525581781105
H            6.94806186688244       -4.56855367173717       -1.61716932405289
H            4.54246507263899       -4.16975627487892       -1.88312916316702
H            3.52727719894349       -2.03374064266843       -1.19900726201579
H            8.42471208973901       -2.81554004472245       -0.69354638740755
H            9.47814734266925       -0.49831872528543        0.33294504731013
H            9.82304803581252        1.74501221658129        1.31122043370582
H            7.92110582302307        3.23822973909112        1.72421717936006
H            5.62833551449793        2.56569724543709        1.13315197900804
H            2.89301304974701       -1.12680752233735        0.84433731914228
H            0.65092026168952       -0.15618171877605        0.90559316396576
H           -0.00208414581434        3.31419474912307        0.00266893655829
H           -2.19828710712009        3.48426128400260        0.77174640060835
H           -4.44070154825588        2.50416326544757        0.82596931203623
H           -5.63230242530518        2.55786834802727       -1.13423086747477
H           -7.92655013898388        3.22786182043222       -1.72261726285633
H           -9.82647845153514        1.73299110880515       -1.30629900221485
H           -9.47800429532620       -0.50971594799609       -0.32783869643878
H           -8.42085187576325       -2.82564653879945        0.69751824630159
H           -6.94118576433615       -4.57717555616175        1.61916523008947
H           -4.53555190753390       -4.17606823213977        1.88144588354443
H           -3.52349081820832       -2.03907864655501        1.19598724374391
H           -2.89094219904271       -1.12966244492673       -0.84563709540180
H           -0.65004354069616       -0.15615433098219       -0.90434195382104
H            2.19316318231109        3.48744817258866       -0.76905677610142
H            4.43673725006922        2.51013664767058       -0.82608735328145

          :  Hamiltonian                  GFN2-xTB          :
         :: gradient norm              0.000024702215 Eh/a0 ::
         :: HOMO-LUMO gap              0.147820444654 eV    ::
         :: SCC energy              -100.451341838229 Eh    ::
         :: -> dispersion             -0.084843786170 Eh    ::
         :: -> Gsolv                  -0.041549690421 Eh    ::
         :: repulsion energy           1.834581252926 Eh    ::

    * Orbital Energies and Occupations

         #    Occupation            Energy/Eh            Energy/eV
      -------------------------------------------------------------
         1        2.0000           -0.6745535             -18.3555
       ...           ...                  ...                  ...
        81        2.0000           -0.4147205             -11.2851
        82        2.0000           -0.4142752             -11.2730
        83        2.0000           -0.4135852             -11.2542
        84        2.0000           -0.4118289             -11.2064
        85        2.0000           -0.4074900             -11.0884
        86        2.0000           -0.4022977             -10.9471
        87        2.0000           -0.4022434             -10.9456
        88        2.0000           -0.3802032             -10.3459
        89        2.0000           -0.3727994             -10.1444
        90        2.0000           -0.3727990             -10.1444
        91        1.9995           -0.3615446              -9.8381
        92        1.0005           -0.3471948              -9.4477
        93        0.9456           -0.2485214              -6.7626 (HOMO)
        94        0.0540           -0.2430889              -6.6148 (LUMO)
        95        0.0004           -0.2384862              -6.4895
        96                         -0.2282185              -6.2101
        97                         -0.2273460              -6.1864
        98                         -0.2187198              -5.9517
        99                         -0.2187161              -5.9516
       100                         -0.2172237              -5.9110
       101                         -0.1892081              -5.1486
       102                         -0.1829637              -4.9787
       103                         -0.1825293              -4.9669
       104                         -0.1825253              -4.9668
       ...                                ...                  ...
       181                          0.7467640              20.3205
      -------------------------------------------------------------
                  HL-Gap            0.0054324 Eh            0.1478 eV

     #   Z          covCN         q      C6AA      α(0)
     1   6 C        2.918    -0.039    28.965     8.826
     2   6 C        2.922    -0.045    29.127     8.850
     3   6 C        2.909    -0.049    29.216     8.863
     4   6 C        3.064     0.040    27.045     8.528
     5   6 C        3.060    -0.022    28.488     8.753
     6   6 C        2.911    -0.039    28.979     8.827
     7   6 C        3.061    -0.022    28.488     8.753
     8   6 C        2.911    -0.039    28.978     8.827
     9   6 C        2.918    -0.039    28.967     8.826
    10   6 C        2.922    -0.046    29.130     8.851
    11   6 C        2.909    -0.049    29.223     8.864
    12   6 C        3.063     0.040    27.049     8.529
    13   7 N        2.794    -0.019    21.610     6.904
    14   6 C        2.909     0.043    27.046     8.528
    15   6 C        2.915    -0.044    29.105     8.847
    16   6 C        2.913    -0.048    29.191     8.860
    17   6 C        2.901     0.046    26.965     8.514
    18   7 N        2.698    -0.087    22.931     7.112
    19   6 C        2.901     0.046    26.964     8.514
    20   6 C        2.917    -0.054    29.348     8.884
    21   6 C        2.914    -0.044    29.082     8.843
    22   6 C        2.909     0.043    27.045     8.528
    23   7 N        2.794    -0.019    21.610     6.904
    24   6 C        3.063     0.040    27.050     8.529
    25   6 C        2.909    -0.049    29.222     8.864
    26   6 C        2.922    -0.046    29.130     8.851
    27   6 C        2.918    -0.039    28.967     8.826
    28   6 C        2.911    -0.039    28.978     8.827
    29   6 C        3.061    -0.022    28.488     8.753
    30   6 C        3.060    -0.022    28.488     8.753
    31   6 C        2.911    -0.039    28.979     8.827
    32   6 C        2.918    -0.039    28.965     8.825
    33   6 C        2.922    -0.045    29.127     8.850
    34   6 C        2.909    -0.049    29.216     8.863
    35   6 C        3.064     0.040    27.045     8.528
    36   6 C        2.915    -0.044    29.105     8.847
    37   6 C        2.913    -0.048    29.191     8.860
    38   6 C        2.917    -0.054    29.348     8.884
    39   6 C        2.914    -0.044    29.082     8.843
    40   1 H        0.926     0.024     2.668     2.554
    41   1 H        0.926     0.025     2.657     2.549
    42   1 H        0.926     0.031     2.567     2.506
    43   1 H        0.926     0.025     2.658     2.550
    44   1 H        0.926     0.025     2.658     2.550
    45   1 H        0.926     0.024     2.668     2.554
    46   1 H        0.926     0.025     2.658     2.550
    47   1 H        0.926     0.031     2.568     2.506
    48   1 H        0.926     0.043     2.408     2.426
    49   1 H        0.926     0.049     2.337     2.391
    50   1 H        0.860     0.177     1.233     1.740
    51   1 H        0.926     0.038     2.473     2.459
    52   1 H        0.926     0.044     2.401     2.423
    53   1 H        0.926     0.031     2.568     2.506
    54   1 H        0.926     0.025     2.658     2.550
    55   1 H        0.926     0.024     2.668     2.554
    56   1 H        0.926     0.025     2.658     2.550
    57   1 H        0.926     0.025     2.658     2.550
    58   1 H        0.926     0.024     2.668     2.554
    59   1 H        0.926     0.025     2.657     2.549
    60   1 H        0.926     0.031     2.567     2.505
    61   1 H        0.926     0.043     2.407     2.426
    62   1 H        0.926     0.049     2.337     2.390
    63   1 H        0.926     0.038     2.473     2.459
    64   1 H        0.926     0.044     2.401     2.423

molecular dipole:
                 x           y           z       tot (Debye)
 q only:       -0.001       1.340       0.000
   full:       -0.001       1.491       0.000       3.791

 projected vibrational frequencies (cm⁻¹)
eigval :       -0.00    -0.00     0.00     0.00     0.00     0.00
eigval :       13.01    13.24    17.17    37.32    41.10    59.27
eigval :       60.63    81.79   104.65   105.87   110.70   136.34
eigval :      142.59   146.57   171.14   180.05   190.05   215.34
eigval :      233.04   264.59   265.05   270.74   293.72   299.92
eigval :      324.34   327.51   377.54   382.14   383.92   390.32
eigval :      404.51   404.77   410.29   414.17   429.75   436.21
eigval :      441.48   446.27   452.39   512.51   512.54   524.91
eigval :      525.01   538.79   539.21   567.33   567.49   573.76
eigval :      578.57   582.18   585.33   600.68   612.25   622.97
eigval :      642.31   645.52   661.00   661.07   690.25   690.57
eigval :      695.87   701.16   750.22   750.91   756.26   756.40
eigval :      764.92   764.97   784.94   785.93   804.68   812.79
eigval :      844.57   852.30   853.47   854.59   857.83   860.40
eigval :      881.33   882.57   885.31   891.12   891.40   891.62
eigval :      903.28   903.71   905.90   907.48   910.83   912.26
eigval :      913.04   913.34   918.28   933.01   983.11   985.11
eigval :     1004.43  1004.51  1063.00  1064.11  1064.28  1068.72
eigval :     1104.42  1106.28  1128.95  1137.97  1140.58  1143.39
eigval :     1144.81  1172.34  1173.55  1174.38  1174.75  1175.09
eigval :     1182.16  1189.49  1197.25  1222.43  1222.53  1224.11
eigval :     1227.20  1235.56  1256.27  1264.42  1277.79  1279.44
eigval :     1286.74  1299.38  1325.91  1325.94  1332.23  1338.94
eigval :     1343.96  1344.75  1351.49  1356.99  1370.67  1371.91
eigval :     1401.40  1401.44  1402.66  1413.86  1418.66  1445.64
eigval :     1450.62  1453.27  1457.87  1466.91  1473.93  1478.14
eigval :     1488.10  1513.56  1515.75  1518.42  1518.48  1533.48
eigval :     1562.86  1563.39  1565.25  1565.26  1595.91  3066.85
eigval :     3066.92  3068.43  3068.53  3071.69  3072.03  3076.43
eigval :     3076.47  3077.34  3077.40  3083.40  3083.48  3084.46
eigval :     3084.79  3089.05  3090.01  3092.46  3092.53  3092.92
eigval :     3093.92  3099.47  3099.94  3102.26  3104.37  3352.14

   temp. (K)  partition function   enthalpy   heat capacity  entropy
                                   cal/mol     cal/K/mol   cal/K/mol   J/K/mol
 298.15  VIB  0.317E+13            17234.017    115.171    104.442
         ROT  0.306E+08              888.752      2.981     37.233
         INT  0.970E+20            18122.769    118.152    141.675
         TR   0.108E+29             1481.254      4.968     44.493
         TOT                       19604.0231   123.1203   186.1674   778.9242

       T/K    H(0)-H(T)+PV         H(T)/Eh          T*S/Eh         G(T)/Eh
   ------------------------------------------------------------------------
    298.15    0.312410E-01    0.521102E+00    0.884541E-01    0.432648E+00
   ------------------------------------------------------------------------

         :::::::::::::::::::::::::::::::::::::::::::::::::::::
         ::                  THERMODYNAMIC                  ::
         :::::::::::::::::::::::::::::::::::::::::::::::::::::
         :: total free energy         -98.184113019469 Eh   ::
         ::.................................................::
         :: total energy              -98.616760585752 Eh   ::
         :: zero point energy           0.489860684648 Eh   ::
         :: G(RRHO) w/o ZPVE           -0.057213118365 Eh   ::
         :: G(RRHO) contrib.            0.432647566283 Eh   ::
         :::::::::::::::::::::::::::::::::::::::::::::::::::::

           -------------------------------------------------
          | TOTAL ENERGY              -98.616760585752 Eh   |
          | TOTAL ENTHALPY            -98.095658901797 Eh   |
          | TOTAL FREE ENERGY         -98.184113019469 Eh   |
          | GRADIENT NORM               0.000025611921 Eh/α |
          | HOMO-LUMO GAP               0.147823589678 eV   |
           -------------------------------------------------

 * finished run on 2025/08/25 at 06:51:31.374
