   * xtb version 6.7.1 (edcfbbe) compiled by 'albert@albert-system' on 2024-07-22

   ID    Z sym.   atoms
    1    6 C      1-12, 14-17, 19-22, 24-39
    2    7 N      13, 18, 23
    3    1 H      40-64

          program call               : xtb data2507/toluene/arylene/arylene_toluene_S0_finalOpt.xtbopt.xyz --gfn 2 --uhf 2 --gbsa toluene --ohess vtight --parallel 40 --molden --ceasefiles --namespace data2507/toluene/arylene/arylene_toluene_T1_preOpt
      * Solvation model:               GBSA
        Solvent                        toluene
        Solvent mass                       9.2140E+01 g/mol
          :  Hamiltonian                  GFN2-xTB          :
 * total energy  :   -98.6106740 Eh     change       -0.9934098E-09 Eh
 * total energy  :   -98.6137329 Eh     change       -0.3058897E-02 Eh
 * total energy  :   -98.6148025 Eh     change       -0.1069578E-02 Eh
 * total energy  :   -98.6150177 Eh     change       -0.2152046E-03 Eh
 * total energy  :   -98.6152542 Eh     change       -0.2365169E-03 Eh
 * total energy  :   -98.6154205 Eh     change       -0.1662738E-03 Eh
 * total energy  :   -98.6155720 Eh     change       -0.1514820E-03 Eh
 * total energy  :   -98.6156761 Eh     change       -0.1040926E-03 Eh
 * total energy  :   -98.6157250 Eh     change       -0.4893276E-04 Eh
 * total energy  :   -98.6157519 Eh     change       -0.2690017E-04 Eh
 * total energy  :   -98.6158810 Eh     change       -0.4176151E-05 Eh
 * total energy  :   -98.6158832 Eh     change       -0.2153144E-05 Eh
 * total energy  :   -98.6158846 Eh     change       -0.1444403E-05 Eh
 * total energy  :   -98.6158861 Eh     change       -0.1500333E-05 Eh
 * total energy  :   -98.6158871 Eh     change       -0.9896770E-06 Eh
 * total energy  :   -98.6158876 Eh     change       -0.5256558E-06 Eh
 * total energy  :   -98.6158880 Eh     change       -0.4017288E-06 Eh
 * total energy  :   -98.6158884 Eh     change       -0.3939089E-06 Eh
 * total energy  :   -98.6158884 Eh     change       -0.2629008E-10 Eh
   *** GEOMETRY OPTIMIZATION CONVERGED AFTER 44 ITERATIONS ***

 final structure:
================
64
 xtb: 6.7.1 (edcfbbe)
C            8.19933504622341       -1.75349266607480        2.14423199151444
C            6.99847235525663       -2.46144250553535        2.10206651900978
C            5.90902791565618       -1.98672571822647        1.38626016351663
C            6.04906402787371       -0.79087804254659        0.70230634981204
C            7.25435299113377       -0.04271029937877        0.77417360522804
C            8.33681026668607       -0.54299361779535        1.49468758875250
C            7.03684817684452        1.15992658620232        0.03443982036705
C            7.83976345744870        2.25787467543911       -0.26693930721858
C            7.32600537711905        3.25513932118778       -1.07165755857269
C            6.03608461041854        3.16581101917246       -1.59413114282024
C            5.21507556160386        2.08651100236966       -1.30145762544529
C            5.70834920186026        1.09914909556807       -0.46527867312045
N            5.11933215384445       -0.08676495398842       -0.04966190110009
C            3.83216362959318       -0.50529168414243       -0.34180375132991
C            2.74214539948339        0.38720844455568       -0.26625138304657
C            1.46872988648768       -0.02874657951417       -0.54161406795807
C            1.21327765645304       -1.36777955725184       -0.91994025006178
N           -0.03385050388097       -1.84450379431369       -1.21951918693421
C           -1.26912159779864       -1.36754304099476       -0.87702090483706
C           -2.39026575402961       -1.77588579456582       -1.64263754670451
C           -3.64631037429189       -1.33078507213138       -1.34887729832092
C           -3.86306933814528       -0.44858004635671       -0.26564540275988
N           -5.12790842587263        0.02423668425289        0.02417226755008
C           -6.30051723069902       -0.71905038851578        0.02491508090417
C           -6.48668596856558       -2.07673369738157       -0.16932525225579
C           -7.77759176610580       -2.57952469160393       -0.08052597511069
C           -8.85824042187065       -1.74617509136743        0.20741070636253
C           -8.67750330778275       -0.39733782793424        0.44082036558961
C           -7.38951927479720        0.12955367133009        0.36409344213366
C           -6.84567738441909        1.43138119955713        0.58226067628975
C           -7.40643743969164        2.66232710348700        0.91819311562696
C           -6.58147552280959        3.76622115604911        1.00577931264141
C           -5.21430175575502        3.66767019148723        0.74836445723386
C           -4.63161884547964        2.45132737703301        0.41948132628753
C           -5.44492133973659        1.33295647346807        0.36235236916156
C           -2.75412348716308       -0.07970111221770        0.52949473402917
C           -1.49799036147220       -0.53195489400279        0.24325034946043
C            2.31838639318144       -2.24455342297248       -1.05366825064941
C            3.58527318081042       -1.83285244277739       -0.75517264459508
H            9.02906485646940       -2.15690711782970        2.70693880650677
H            6.91224620653204       -3.39340652961371        2.64079715512271
H            4.97849391279797       -2.53347094940133        1.38246361698918
H            9.26102645033110        0.01316341920509        1.54714644610184
H            8.84706216623384        2.31874533915360        0.11762391803076
H            7.93480087016926        4.11426488223335       -1.31483719020702
H            5.67049287182593        3.94751814601819       -2.24341060576405
H            4.22879959319932        2.01936919988740       -1.73435837392978
H            2.91862060744320        1.40579961263386        0.04286778348467
H            0.65655922371926        0.67872903987794       -0.50721926641606
H           -0.04236134122528       -2.68773789064654       -1.78454003460652
H           -2.23288170403411       -2.42527717587057       -2.49193665186416
H           -4.48055090251463       -1.60741447280519       -1.97451133364881
H           -5.65706353057478       -2.73843067380285       -0.36554810908956
H           -7.94569789728362       -3.63554628970030       -0.23076312412846
H           -9.85060998749803       -2.17066526890331        0.26200706636201
H           -9.51364264888898        0.24054809479103        0.68605265207148
H           -8.46784294165007        2.74727189562544        1.09792975019394
H           -7.00051862234041        4.72814233299776        1.26480958004419
H           -4.59833925639831        4.55310629430801        0.79938574184657
H           -3.57684136552728        2.39415640902997        0.19843071711387
H           -2.92493548169342        0.51600913473064        1.41323112875106
H           -0.68089459475204       -0.30700826300443        0.90977802381371
H            2.14541273710655       -3.25559994655175       -1.39472628028520
H            4.41917576987816       -2.50642295378768       -0.87982245503223

          :  Hamiltonian                  GFN2-xTB          :
         :: gradient norm              0.000047924221 Eh/a0 ::
         :: HOMO-LUMO gap              0.146120715800 eV    ::
         :: SCC energy              -100.450064477802 Eh    ::
         :: -> dispersion             -0.084696986207 Eh    ::
         :: -> Gsolv                  -0.041506036924 Eh    ::
         :: repulsion energy           1.834176036305 Eh    ::

    * Orbital Energies and Occupations

         #    Occupation            Energy/Eh            Energy/eV
      -------------------------------------------------------------
         1        2.0000           -0.6744686             -18.3532
       ...           ...                  ...                  ...
        81        2.0000           -0.4146161             -11.2823
        82        2.0000           -0.4144077             -11.2766
        83        2.0000           -0.4133854             -11.2488
        84        2.0000           -0.4126145             -11.2278
        85        2.0000           -0.4077162             -11.0945
        86        2.0000           -0.4024135             -10.9502
        87        2.0000           -0.4022510             -10.9458
        88        2.0000           -0.3792417             -10.3197
        89        2.0000           -0.3729490             -10.1485
        90        2.0000           -0.3727378             -10.1427
        91        1.9991           -0.3614308              -9.8350
        92        1.0009           -0.3481526              -9.4737
        93        0.9438           -0.2485193              -6.7626 (HOMO)
        94        0.0557           -0.2431497              -6.6164 (LUMO)
        95        0.0005           -0.2385372              -6.4909
        96                         -0.2281100              -6.2072
        97                         -0.2273510              -6.1865
        98                         -0.2188446              -5.9551
        99                         -0.2187227              -5.9517
       100                         -0.2169703              -5.9041
       101                         -0.1892612              -5.1501
       102                         -0.1831604              -4.9840
       103                         -0.1825951              -4.9687
       104                         -0.1825363              -4.9671
       ...                                ...                  ...
       181                          0.7466773              20.3181
      -------------------------------------------------------------
                  HL-Gap            0.0053697 Eh            0.1461 eV

     #   Z          covCN         q      C6AA      α(0)
     1   6 C        2.918    -0.039    28.974     8.827
     2   6 C        2.922    -0.045    29.114     8.848
     3   6 C        2.909    -0.049    29.227     8.865
     4   6 C        3.065     0.040    27.030     8.525
     5   6 C        3.061    -0.022    28.486     8.752
     6   6 C        2.911    -0.039    28.974     8.826
     7   6 C        3.061    -0.022    28.484     8.752
     8   6 C        2.911    -0.039    28.974     8.826
     9   6 C        2.918    -0.039    28.974     8.827
    10   6 C        2.922    -0.045    29.111     8.848
    11   6 C        2.909    -0.050    29.229     8.865
    12   6 C        3.064     0.040    27.032     8.526
    13   7 N        2.795    -0.021    21.655     6.912
    14   6 C        2.909     0.043    27.036     8.526
    15   6 C        2.915    -0.045    29.120     8.849
    16   6 C        2.913    -0.049    29.205     8.862
    17   6 C        2.900     0.046    26.958     8.513
    18   7 N        2.698    -0.086    22.926     7.111
    19   6 C        2.900     0.046    26.971     8.515
    20   6 C        2.918    -0.054    29.344     8.883
    21   6 C        2.914    -0.044    29.082     8.843
    22   6 C        2.909     0.042    27.053     8.529
    23   7 N        2.794    -0.016    21.568     6.898
    24   6 C        3.063     0.039    27.060     8.530
    25   6 C        2.909    -0.049    29.212     8.863
    26   6 C        2.921    -0.046    29.145     8.853
    27   6 C        2.918    -0.038    28.954     8.824
    28   6 C        2.911    -0.040    28.982     8.828
    29   6 C        3.060    -0.022    28.490     8.753
    30   6 C        3.060    -0.022    28.491     8.753
    31   6 C        2.911    -0.040    28.984     8.828
    32   6 C        2.918    -0.038    28.951     8.823
    33   6 C        2.921    -0.046    29.141     8.853
    34   6 C        2.909    -0.049    29.205     8.861
    35   6 C        3.064     0.039    27.055     8.529
    36   6 C        2.915    -0.044    29.095     8.845
    37   6 C        2.913    -0.048    29.195     8.860
    38   6 C        2.918    -0.055    29.356     8.885
    39   6 C        2.914    -0.043    29.068     8.841
    40   1 H        0.926     0.024     2.667     2.554
    41   1 H        0.926     0.025     2.656     2.548
    42   1 H        0.926     0.031     2.571     2.507
    43   1 H        0.926     0.025     2.656     2.549
    44   1 H        0.926     0.025     2.656     2.548
    45   1 H        0.926     0.024     2.667     2.554
    46   1 H        0.926     0.025     2.656     2.548
    47   1 H        0.926     0.031     2.568     2.506
    48   1 H        0.926     0.043     2.414     2.430
    49   1 H        0.926     0.048     2.344     2.394
    50   1 H        0.860     0.177     1.230     1.737
    51   1 H        0.926     0.038     2.472     2.459
    52   1 H        0.926     0.044     2.398     2.422
    53   1 H        0.926     0.031     2.566     2.505
    54   1 H        0.926     0.025     2.659     2.550
    55   1 H        0.926     0.024     2.666     2.554
    56   1 H        0.926     0.025     2.658     2.550
    57   1 H        0.926     0.025     2.658     2.549
    58   1 H        0.926     0.025     2.665     2.553
    59   1 H        0.926     0.025     2.658     2.549
    60   1 H        0.926     0.032     2.565     2.504
    61   1 H        0.926     0.043     2.403     2.424
    62   1 H        0.926     0.049     2.330     2.387
    63   1 H        0.926     0.037     2.490     2.468
    64   1 H        0.926     0.042     2.417     2.431

molecular dipole:
                 x           y           z       tot (Debye)
 q only:       -0.054      -1.071      -0.705
   full:       -0.054      -1.198      -0.791       3.651

 projected vibrational frequencies (cm⁻¹)
eigval :       -0.00    -0.00    -0.00     0.00     0.00     0.00
eigval :       12.06    16.54    18.28    37.95    43.78    58.73
eigval :       64.71    87.25   103.18   105.04   108.47   132.17
eigval :      142.95   151.20   169.90   170.81   193.37   224.49
eigval :      232.86   255.83   266.75   270.39   287.65   305.12
eigval :      316.00   342.73   375.65   382.72   386.41   389.29
eigval :      394.87   399.56   410.72   414.84   429.64   437.55
eigval :      444.02   446.88   451.66   512.10   513.04   525.45
eigval :      525.81   537.51   540.22   566.73   572.46   574.15
eigval :      578.80   587.32   589.25   594.30   611.49   625.49
eigval :      642.56   646.16   660.29   660.98   690.31   691.52
eigval :      696.99   701.67   750.45   751.33   755.70   756.17
eigval :      762.19   763.14   785.93   788.79   801.87   822.32
eigval :      836.18   853.21   854.81   856.17   856.74   862.96
eigval :      883.57   885.25   886.82   890.37   891.30   891.54
eigval :      902.88   904.79   905.24   906.12   907.23   911.44
eigval :      912.71   916.26   919.80   936.76   981.52   986.54
eigval :     1004.02  1004.86  1062.98  1063.79  1065.92  1069.03
eigval :     1103.87  1105.73  1128.29  1138.19  1140.17  1141.34
eigval :     1146.17  1172.76  1172.98  1173.87  1174.44  1175.67
eigval :     1180.78  1188.94  1196.93  1220.90  1223.92  1224.89
eigval :     1227.18  1236.60  1255.07  1265.04  1277.45  1279.12
eigval :     1287.71  1298.62  1321.83  1329.45  1333.21  1339.69
eigval :     1342.30  1345.46  1350.39  1357.92  1370.19  1372.57
eigval :     1399.23  1403.37  1405.51  1413.77  1418.89  1444.11
eigval :     1450.39  1452.67  1457.50  1466.78  1474.19  1477.90
eigval :     1488.85  1513.18  1515.04  1515.52  1521.14  1534.10
eigval :     1561.96  1563.57  1563.91  1566.12  1595.54  3066.92
eigval :     3067.79  3067.96  3068.66  3068.89  3070.87  3076.89
eigval :     3077.63  3077.68  3078.55  3083.43  3083.94  3084.45
eigval :     3085.02  3089.88  3091.97  3092.61  3093.07  3094.10
eigval :     3095.09  3096.71  3097.57  3105.62  3112.97  3346.31

   temp. (K)  partition function   enthalpy   heat capacity  entropy
                                   cal/mol     cal/K/mol   cal/K/mol   J/K/mol
 298.15  VIB  0.229E+13            17220.121    115.283    104.215
         ROT  0.627E+08              888.752      2.981     38.658
         INT  0.144E+21            18108.874    118.264    142.874
         TR   0.108E+29             1481.254      4.968     44.493
         TOT                       19590.1277   123.2319   187.3668   783.9425

       T/K    H(0)-H(T)+PV         H(T)/Eh          T*S/Eh         G(T)/Eh
   ------------------------------------------------------------------------
    298.15    0.312189E-01    0.521145E+00    0.890240E-01    0.432121E+00
   ------------------------------------------------------------------------

         :::::::::::::::::::::::::::::::::::::::::::::::::::::
         ::                  THERMODYNAMIC                  ::
         :::::::::::::::::::::::::::::::::::::::::::::::::::::
         :: total free energy         -98.183767241476 Eh   ::
         ::.................................................::
         :: total energy              -98.615888440356 Eh   ::
         :: zero point energy           0.489926339787 Eh   ::
         :: G(RRHO) w/o ZPVE           -0.057805140907 Eh   ::
         :: G(RRHO) contrib.            0.432121198880 Eh   ::
         :::::::::::::::::::::::::::::::::::::::::::::::::::::

           -------------------------------------------------
          | TOTAL ENERGY              -98.615888440356 Eh   |
          | TOTAL ENTHALPY            -98.094743244888 Eh   |
          | TOTAL FREE ENERGY         -98.183767241476 Eh   |
          | GRADIENT NORM               0.000046529265 Eh/α |
          | HOMO-LUMO GAP               0.146116186103 eV   |
           -------------------------------------------------

 * finished run on 2025/08/25 at 06:47:48.573
