   * xtb version 6.7.1 (edcfbbe) compiled by 'albert@albert-system' on 2024-07-22

   ID    Z sym.   atoms
    1    6 C      1-4, 6-23, 25-39, 41, 42, 44, 45, 47-52, 54-58
    2    7 N      5, 24, 40, 43
    3   16 S      46, 53
    4    1 H      59-92

          program call               : xtb data2507/toluene/pDTPA-DTPZ/pDTPA-DTPZ.xyz --gfn 2 --gbsa toluene --ohess vtight --parallel 40 --molden --ceasefiles --namespace data2507/toluene/pDTPA-DTPZ/pDTPA-DTPZ_toluene_S0_preOpt
      * Solvation model:               GBSA
        Solvent                        toluene
        Solvent mass                       9.2140E+01 g/mol
          :  Hamiltonian                  GFN2-xTB          :
 * total energy  :  -146.9450862 Eh     change       -0.7105712E-09 Eh
 * total energy  :  -146.9646715 Eh     change       -0.1958530E-01 Eh
 * total energy  :  -146.9722396 Eh     change       -0.7568085E-02 Eh
 * total energy  :  -146.9744014 Eh     change       -0.2161758E-02 Eh
 * total energy  :  -146.9757931 Eh     change       -0.1391768E-02 Eh
 * total energy  :  -146.9765266 Eh     change       -0.7334586E-03 Eh
 * total energy  :  -146.9769510 Eh     change       -0.4244371E-03 Eh
 * total energy  :  -146.9772254 Eh     change       -0.2744104E-03 Eh
 * total energy  :  -146.9774246 Eh     change       -0.1991927E-03 Eh
 * total energy  :  -146.9775825 Eh     change       -0.1578922E-03 Eh
 * total energy  :  -146.9788806 Eh     change       -0.1425126E-06 Eh
 * total energy  :  -146.9788807 Eh     change       -0.1655107E-06 Eh
 * total energy  :  -146.9788809 Eh     change       -0.1570598E-06 Eh
 * total energy  :  -146.9788810 Eh     change       -0.1316446E-06 Eh
 * total energy  :  -146.9788812 Eh     change       -0.1433626E-06 Eh
 * total energy  :  -146.9788813 Eh     change       -0.1730853E-06 Eh
 * total energy  :  -146.9788815 Eh     change       -0.1681079E-06 Eh
 * total energy  :  -146.9788816 Eh     change       -0.1148011E-06 Eh
 * total energy  :  -146.9788817 Eh     change       -0.7982459E-07 Eh
   *** GEOMETRY OPTIMIZATION CONVERGED AFTER 90 ITERATIONS ***

 final structure:
================
92
 xtb: 6.7.1 (edcfbbe)
C           -9.14247471591072       -2.44939968639824       -0.71980825288973
C           -7.98803493247097       -2.45976209095145        0.04667217994661
C           -7.30879609841797       -1.28469796480833        0.30470935855032
C           -7.77402671430414       -0.07605552078428       -0.21341722127706
N           -7.08053866205642        1.11685022366255        0.03828527543263
C           -7.79048886729677        2.30006105311767        0.27549976144400
C           -7.31702847692224        3.52028803917911       -0.20758673543774
C           -8.02274373865764        4.68426913233624        0.02917472141519
C           -9.21266247775357        4.65280800269595        0.73861758873879
C           -9.69008599475222        3.44291925352173        1.21650999937070
C           -8.98638859131485        2.27502833680432        0.99350689053307
C           -5.68492747100487        1.11546989287073        0.04306990887587
C           -4.96881620890418        1.92442548820565        0.92802238319591
C           -3.59076367271791        1.90306567632897        0.93568103707935
C           -2.87740041013672        1.06735903929742        0.07502080532786
C           -1.41451193068657        1.03382507559542        0.11011383227571
C           -0.66653310184310        2.18295373197771        0.24079092836899
C            0.73138178444091        2.16047897643945        0.24757425794204
C            1.44646189628786        0.98968021468643        0.12212524129147
C            2.91155136330187        0.99170809878678        0.09898096484880
C            3.62995149698598        1.80789427782720        0.97369309335768
C            5.00800501757388        1.82746643209271        0.95909618067081
C            5.71792948661988        1.02926090894337        0.06010518052043
N            7.11484448211935        1.04891913826442        0.04255591942771
C            7.80540450386979        0.95110999997665       -1.17173454819834
C            9.00320286028203        0.24036650619524       -1.25016233921367
C            9.68809584974626        0.15904245855014       -2.44744672151664
C            9.18972283561002        0.77347200447177       -3.58506601162148
C            7.99662032653168        1.47472576617879       -3.51447518598488
C            7.30939804315557        1.56975318140054       -2.31966133513456
C            7.82639730451117        1.16666451056191        1.24400937314815
C            8.98767025425443        1.93664479661951        1.30732316221797
C            9.68838837072322        2.04322491304250        2.49351058561186
C            9.24133963974827        1.39514243255157        3.63382039007132
C            8.08573467709884        0.63247117202530        3.57725071377623
C            7.38267697089922        0.51311839389012        2.39380035817705
C            5.00363109984439        0.21419672797276       -0.81957172637483
C            3.62569146178807        0.19796573722003       -0.79815547738977
C            0.71530268761181       -0.22830460377012        0.02139787405846
N            1.37536036761818       -1.39120909931232       -0.03198596975374
C            0.68179241487942       -2.51267301643496       -0.10233392295419
C           -0.75815627315574       -2.48982164636581       -0.09768836797155
N           -1.41480259498954       -1.34656762233886       -0.02848348825362
C           -0.71816512070007       -0.20568008914344        0.01889600317572
C           -1.44761799859123       -3.72697856502296       -0.15860505365739
S           -3.16929555596173       -3.91170605473460       -0.16821359810412
C           -2.99772814260331       -5.62622252459899       -0.26303393373488
C           -1.70671811056656       -6.03884317518883       -0.28589704761675
C           -0.79394018901000       -4.95468340654891       -0.22672415263711
C            0.63309337826553       -4.97788550155949       -0.23272280332948
C            1.50824975785467       -6.09223089020364       -0.29869046499065
C            2.81256252387622       -5.72352068683262       -0.28626789249485
S            3.04274192697363       -4.01580861126500       -0.19369437587834
C            1.32832275992571       -3.77269896297855       -0.17008591262226
C           -3.59763746824599        0.27036571274688       -0.81508623486752
C           -4.97423828849994        0.29592238156348       -0.83654524343551
C           -8.93510588491023       -0.07103906326792       -0.98569800694475
C           -9.61280572704805       -1.25023047415577       -1.23048102567696
H           -9.67254930001039       -3.36910858392485       -0.91723550576902
H           -7.61515928958162       -3.38827967238647        0.45372071527511
H           -6.41296565667113       -1.29453575297439        0.90817808553463
H           -6.39636272371297        3.54659167050776       -0.77214508645184
H           -7.64518569092904        5.62175716980865       -0.35282015306377
H           -9.76357635035060        5.56400264585752        0.91740526501909
H          -10.61413458377782        3.40833889152720        1.77526244708985
H           -9.35667694549210        1.33484329259306        1.37556465502938
H           -5.50338608163275        2.55903612584981        1.61983165747719
H           -3.05596342133555        2.51482120597334        1.64772635364887
H           -1.17129700773904        3.13583545191444        0.30566320800673
H            1.26478226063932        3.09729407912589        0.31792781140149
H            3.09931383922919        2.42252246090259        1.68634736301790
H            5.54726804262370        2.46426910892565        1.64531390334464
H            9.38996390006658       -0.24772891175667       -0.36741253253011
H           10.61410329370306       -0.39566777839984       -2.49350018645437
H            9.72652520468284        0.70604920471669       -4.51944006245214
H            7.60187135797201        1.96098706738782       -4.39488351669027
H            6.38499314826369        2.12633650632683       -2.26575090962553
H            9.33329230981907        2.45017620908373        0.42189289994648
H           10.58538970566496        2.64441563177073        2.52919200911426
H            9.78985978923370        1.48311748913020        4.55965616271009
H            7.73243282733483        0.11881115635806        4.45966451198513
H            6.48696275326725       -0.08948258917506        2.34926936488697
H            5.53947218736631       -0.41092549854860       -1.51876038258784
H            3.09059929569935       -0.43675270459770       -1.48672799692730
H           -3.88114260871797       -6.23310893090357       -0.29737802710992
H           -1.40822934156253       -7.06941165414533       -0.34271285044214
H            1.17470740500108       -7.11216536775161       -0.35249250148089
H            3.67497725021234       -6.35956688122966       -0.32696368018874
H           -3.06728053769547       -0.36242962423518       -1.50901042369168
H           -5.51333664950173       -0.32137657756141       -1.54004635360191
H           -9.29866372605318        0.86111594385755       -1.39319740996422
H          -10.50969877894736       -1.23267821491112       -1.83262675340612

          :  Hamiltonian                  GFN2-xTB          :
         :: gradient norm              0.000028318598 Eh/a0 ::
         :: HOMO-LUMO gap              1.021845231236 eV    ::
         :: SCC energy              -149.624657802001 Eh    ::
         :: -> dispersion             -0.137838818606 Eh    ::
         :: -> Gsolv                  -0.064487799077 Eh    ::
         :: repulsion energy           2.645776108933 Eh    ::

    * Orbital Energies and Occupations

         #    Occupation            Energy/Eh            Energy/eV
      -------------------------------------------------------------
         1        2.0000           -0.7373199             -20.0635
       ...           ...                  ...                  ...
       125        2.0000           -0.4067611             -11.0685
       126        2.0000           -0.4066920             -11.0667
       127        2.0000           -0.4057133             -11.0400
       128        2.0000           -0.4037523             -10.9867
       129        2.0000           -0.4035433             -10.9810
       130        2.0000           -0.4032458             -10.9729
       131        2.0000           -0.4029113             -10.9638
       132        2.0000           -0.3906216             -10.6294
       133        2.0000           -0.3896845             -10.6039
       134        2.0000           -0.3798442             -10.3361
       135        2.0000           -0.3562024              -9.6928
       136        2.0000           -0.3503143              -9.5325
       137        2.0000           -0.3464875              -9.4284 (HOMO)
       138                         -0.3089354              -8.4066 (LUMO)
       139                         -0.2712934              -7.3823
       140                         -0.2545515              -6.9267
       141                         -0.2310543              -6.2873
       142                         -0.2304437              -6.2707
       143                         -0.2297084              -6.2507
       144                         -0.2296678              -6.2496
       145                         -0.2264837              -6.1629
       146                         -0.2264552              -6.1622
       147                         -0.2252526              -6.1294
       148                         -0.2211278              -6.0172
       ...                                ...                  ...
       276                          0.7279585              19.8088
      -------------------------------------------------------------
                  HL-Gap            0.0375521 Eh            1.0218 eV

     #   Z          covCN         q      C6AA      α(0)
     1   6 C        2.919    -0.038    28.953     8.824
     2   6 C        2.919    -0.030    28.739     8.791
     3   6 C        2.922    -0.047    29.156     8.855
     4   6 C        2.924     0.065    26.546     8.449
     5   7 N        2.752    -0.074    22.685     7.074
     6   6 C        2.923     0.065    26.545     8.449
     7   6 C        2.922    -0.048    29.194     8.861
     8   6 C        2.919    -0.030    28.752     8.793
     9   6 C        2.919    -0.039    28.974     8.827
    10   6 C        2.919    -0.030    28.750     8.793
    11   6 C        2.922    -0.048    29.185     8.859
    12   6 C        2.924     0.066    26.518     8.445
    13   6 C        2.920    -0.049    29.217     8.864
    14   6 C        2.924    -0.035    28.873     8.812
    15   6 C        2.975     0.006    27.873     8.660
    16   6 C        2.973    -0.007    28.190     8.709
    17   6 C        2.919    -0.040    29.003     8.831
    18   6 C        2.920    -0.040    28.993     8.830
    19   6 C        2.973    -0.007    28.199     8.710
    20   6 C        2.975     0.007    27.866     8.659
    21   6 C        2.924    -0.035    28.877     8.813
    22   6 C        2.920    -0.049    29.212     8.863
    23   6 C        2.923     0.066    26.519     8.445
    24   7 N        2.752    -0.076    22.715     7.078
    25   6 C        2.923     0.065    26.539     8.448
    26   6 C        2.922    -0.048    29.185     8.859
    27   6 C        2.919    -0.030    28.751     8.793
    28   6 C        2.919    -0.039    28.976     8.827
    29   6 C        2.919    -0.030    28.752     8.793
    30   6 C        2.922    -0.048    29.194     8.861
    31   6 C        2.924     0.065    26.538     8.448
    32   6 C        2.922    -0.047    29.179     8.858
    33   6 C        2.919    -0.030    28.751     8.793
    34   6 C        2.919    -0.039    28.967     8.826
    35   6 C        2.919    -0.030    28.748     8.792
    36   6 C        2.922    -0.047    29.177     8.858
    37   6 C        2.920    -0.047    29.177     8.858
    38   6 C        2.923    -0.026    28.654     8.778
    39   6 C        2.963     0.083    26.158     8.389
    40   7 N        1.847    -0.266    27.767     7.810
    41   6 C        2.976     0.083    26.153     8.389
    42   6 C        2.976     0.082    26.159     8.390
    43   7 N        1.848    -0.265    27.745     7.807
    44   6 C        2.964     0.083    26.156     8.389
    45   6 C        3.009    -0.002    28.063     8.690
    46  16 S        2.267    -0.002   141.134    19.995
    47   6 C        2.941    -0.016    28.406     8.741
    48   6 C        3.080    -0.047    29.084     8.841
    49   6 C        3.153    -0.007    27.909     8.640
    50   6 C        3.153    -0.007    27.906     8.639
    51   6 C        3.080    -0.047    29.082     8.841
    52   6 C        2.941    -0.016    28.399     8.740
    53  16 S        2.267    -0.004   141.212    20.000
    54   6 C        3.008    -0.002    28.057     8.689
    55   6 C        2.923    -0.025    28.639     8.776
    56   6 C        2.921    -0.048    29.187     8.859
    57   6 C        2.922    -0.047    29.171     8.857
    58   6 C        2.919    -0.030    28.752     8.793
    59   1 H        0.926     0.033     2.540     2.492
    60   1 H        0.926     0.035     2.514     2.479
    61   1 H        0.926     0.033     2.542     2.493
    62   1 H        0.926     0.032     2.557     2.501
    63   1 H        0.926     0.034     2.535     2.490
    64   1 H        0.926     0.032     2.554     2.499
    65   1 H        0.926     0.034     2.532     2.488
    66   1 H        0.926     0.032     2.552     2.498
    67   1 H        0.926     0.036     2.498     2.472
    68   1 H        0.926     0.036     2.502     2.474
    69   1 H        0.926     0.046     2.374     2.409
    70   1 H        0.926     0.046     2.375     2.410
    71   1 H        0.926     0.036     2.506     2.475
    72   1 H        0.926     0.036     2.508     2.477
    73   1 H        0.926     0.032     2.553     2.499
    74   1 H        0.926     0.034     2.531     2.488
    75   1 H        0.926     0.032     2.555     2.500
    76   1 H        0.926     0.033     2.541     2.493
    77   1 H        0.926     0.031     2.569     2.507
    78   1 H        0.926     0.033     2.550     2.497
    79   1 H        0.926     0.034     2.527     2.486
    80   1 H        0.926     0.033     2.550     2.497
    81   1 H        0.926     0.033     2.538     2.491
    82   1 H        0.926     0.032     2.562     2.503
    83   1 H        0.926     0.036     2.506     2.475
    84   1 H        0.926     0.038     2.482     2.464
    85   1 H        0.926     0.064     2.154     2.295
    86   1 H        0.926     0.056     2.244     2.342
    87   1 H        0.926     0.056     2.241     2.341
    88   1 H        0.926     0.064     2.157     2.297
    89   1 H        0.926     0.037     2.486     2.466
    90   1 H        0.926     0.036     2.507     2.476
    91   1 H        0.926     0.033     2.549     2.497
    92   1 H        0.926     0.034     2.525     2.485

molecular dipole:
                 x           y           z       tot (Debye)
 q only:       -0.150      -0.542      -0.070
   full:       -0.135      -0.672      -0.056       1.749

 projected vibrational frequencies (cm⁻¹)
eigval :       -0.00    -0.00    -0.00     0.00     0.00     0.00
eigval :        8.00    10.96    12.91    14.03    16.18    20.05
eigval :       32.81    42.29    45.33    50.32    53.15    56.50
eigval :       59.42    63.85    69.27    71.99    78.88    90.77
eigval :       99.75   107.02   109.35   113.79   128.16   134.93
eigval :      151.52   161.24   167.83   186.21   204.86   207.06
eigval :      225.29   229.60   232.48   243.74   252.11   273.05
eigval :      303.92   307.09   314.37   323.32   332.91   334.90
eigval :      349.41   355.72   357.95   377.69   378.34   378.80
eigval :      381.00   383.50   386.36   387.81   391.16   401.25
eigval :      419.25   420.59   422.21   430.03   439.74   463.36
eigval :      480.44   485.99   488.20   491.02   496.42   509.32
eigval :      516.51   539.80   555.65   576.13   578.14   581.38
eigval :      584.32   586.35   588.83   591.13   592.95   598.07
eigval :      601.38   606.68   616.78   629.94   644.46   649.07
eigval :      656.02   660.07   660.33   660.83   669.45   672.64
eigval :      687.00   688.30   695.41   711.62   730.72   738.73
eigval :      743.24   755.20   757.79   758.66   759.54   761.84
eigval :      763.45   770.05   809.54   816.62   817.13   826.55
eigval :      831.26   840.82   842.24   866.65   867.34   872.77
eigval :      874.24   874.70   875.97   877.14   889.27   890.68
eigval :      892.44   893.23   898.69   908.16   909.21   909.55
eigval :      910.10   914.85   916.90   924.36   925.74   925.86
eigval :      927.41   928.17   928.22   929.11   930.11   930.82
eigval :      931.85   944.23   956.60   957.79   986.40   987.78
eigval :     1003.92  1004.12  1017.03  1025.26  1036.32  1069.68
eigval :     1081.51  1081.86  1082.93  1082.97  1095.57  1120.66
eigval :     1120.75  1123.17  1123.29  1132.40  1140.93  1141.39
eigval :     1143.91  1149.21  1176.86  1179.03  1180.02  1180.34
eigval :     1184.59  1185.55  1194.06  1194.51  1195.81  1197.07
eigval :     1209.59  1212.64  1215.95  1238.24  1261.51  1263.12
eigval :     1271.68  1273.25  1276.13  1277.39  1277.54  1280.60
eigval :     1281.44  1302.59  1308.85  1310.31  1311.79  1315.31
eigval :     1315.88  1323.22  1324.13  1325.26  1325.58  1326.20
eigval :     1337.31  1345.54  1361.00  1377.62  1406.51  1407.95
eigval :     1415.06  1420.55  1434.28  1434.43  1440.74  1441.04
eigval :     1469.27  1469.76  1470.56  1471.32  1472.44  1472.58
eigval :     1479.49  1486.00  1488.31  1501.38  1511.94  1525.75
eigval :     1541.35  1549.73  1552.47  1573.68  1575.45  1575.81
eigval :     1579.25  1579.37  1588.27  1591.05  1591.11  1591.17
eigval :     1598.90  1599.40  3071.49  3071.64  3072.00  3072.01
eigval :     3072.50  3073.08  3073.24  3073.79  3074.22  3074.52
eigval :     3077.38  3081.41  3082.16  3082.38  3082.79  3083.10
eigval :     3083.42  3084.50  3085.55  3085.87  3086.52  3086.89
eigval :     3087.04  3088.47  3093.24  3093.87  3093.97  3094.57
eigval :     3102.06  3102.54  3136.83  3140.31  3159.80  3160.15

   temp. (K)  partition function   enthalpy   heat capacity  entropy
                                   cal/mol     cal/K/mol   cal/K/mol   J/K/mol
 298.15  VIB  0.369E+23            27618.913    172.300    174.332
         ROT  0.203E+09              888.752      2.981     40.993
         INT  0.750E+31            28507.665    175.281    215.325
         TR   0.210E+29             1481.254      4.968     45.816
         TOT                       29988.9193   180.2493   261.1412  1092.6149

       T/K    H(0)-H(T)+PV         H(T)/Eh          T*S/Eh         G(T)/Eh
   ------------------------------------------------------------------------
    298.15    0.477904E-01    0.738485E+00    0.124077E+00    0.614408E+00
   ------------------------------------------------------------------------

         :::::::::::::::::::::::::::::::::::::::::::::::::::::
         ::                  THERMODYNAMIC                  ::
         :::::::::::::::::::::::::::::::::::::::::::::::::::::
         :: total free energy        -146.364473545533 Eh   ::
         ::.................................................::
         :: total energy             -146.978881686738 Eh   ::
         :: zero point energy           0.690694380881 Eh   ::
         :: G(RRHO) w/o ZPVE           -0.076286239676 Eh   ::
         :: G(RRHO) contrib.            0.614408141205 Eh   ::
         :::::::::::::::::::::::::::::::::::::::::::::::::::::

           -------------------------------------------------
          | TOTAL ENERGY             -146.978881686738 Eh   |
          | TOTAL ENTHALPY           -146.240396921014 Eh   |
          | TOTAL FREE ENERGY        -146.364473545533 Eh   |
          | GRADIENT NORM               0.000028344514 Eh/α |
          | HOMO-LUMO GAP               1.021845725970 eV   |
           -------------------------------------------------

 * finished run on 2025/09/11 at 07:31:03.592
