   * xtb version 6.7.1 (edcfbbe) compiled by 'albert@albert-system' on 2024-07-22

   ID    Z sym.   atoms
    1    6 C      1-4, 6-23, 25-39, 41, 42, 44, 45, 47-52, 54-58
    2    7 N      5, 24, 40, 43
    3   16 S      46, 53
    4    1 H      59-92

          program call               : xtb data2507/toluene/pDTPA-DTPZ/pDTPA-DTPZ_toluene_S0_finalOpt.xtbopt.xyz --gfn 2 --uhf 2 --gbsa toluene --ohess vtight --parallel 40 --molden --ceasefiles --namespace data2507/toluene/pDTPA-DTPZ/pDTPA-DTPZ_toluene_T1_preOpt
      * Solvation model:               GBSA
        Solvent                        toluene
        Solvent mass                       9.2140E+01 g/mol
          :  Hamiltonian                  GFN2-xTB          :
 * total energy  :  -146.9323399 Eh     change       -0.2696083E-09 Eh
 * total energy  :  -146.9343806 Eh     change       -0.2040703E-02 Eh
 * total energy  :  -146.9350014 Eh     change       -0.6208339E-03 Eh
 * total energy  :  -146.9350902 Eh     change       -0.8881238E-04 Eh
 * total energy  :  -146.9351477 Eh     change       -0.5749605E-04 Eh
 * total energy  :  -146.9351643 Eh     change       -0.1662455E-04 Eh
 * total energy  :  -146.9351796 Eh     change       -0.1528545E-04 Eh
 * total energy  :  -146.9351998 Eh     change       -0.2018543E-04 Eh
 * total energy  :  -146.9352076 Eh     change       -0.7813172E-05 Eh
 * total energy  :  -146.9352183 Eh     change       -0.1064272E-04 Eh
 * total energy  :  -146.9352994 Eh     change       -0.2155978E-05 Eh
 * total energy  :  -146.9353013 Eh     change       -0.1839158E-05 Eh
 * total energy  :  -146.9353033 Eh     change       -0.1982758E-05 Eh
 * total energy  :  -146.9353055 Eh     change       -0.2245395E-05 Eh
 * total energy  :  -146.9353073 Eh     change       -0.1818390E-05 Eh
 * total energy  :  -146.9353083 Eh     change       -0.9771199E-06 Eh
 * total energy  :  -146.9353088 Eh     change       -0.5126809E-06 Eh
 * total energy  :  -146.9353091 Eh     change       -0.2748506E-06 Eh
 * total energy  :  -146.9353091 Eh     change       -0.2467544E-08 Eh
   *** GEOMETRY OPTIMIZATION CONVERGED AFTER 44 ITERATIONS ***

 final structure:
================
92
 xtb: 6.7.1 (edcfbbe)
C           -9.17986686622921        5.02600678640777       -0.24517407430514
C           -9.61453731634062        3.91111019249340       -0.94472940542147
C           -8.92157004097525        2.71884229195891       -0.86148929604917
C           -7.77918466745354        2.62551947185385       -0.06551517419125
N           -7.07634721492480        1.41746117644116        0.02675445468391
C           -7.77956680479933        0.20676096330285        0.06716987243967
C           -8.99055658062081        0.11794474791170        0.75513367542320
C           -9.68429337794622       -1.07625395406319        0.78938108247661
C           -9.18236475452472       -2.19815753102147        0.14860967364965
C           -7.97823323083756       -2.11584210329488       -0.53308913718219
C           -7.28083456341793       -0.92438512910860       -0.58098077612918
C           -5.68428241687527        1.41885106094192        0.07670060555930
C           -4.99616380195649        0.46099700409176        0.82816153946251
C           -3.62127319703846        0.44336662527255        0.85006338512569
C           -2.87101325522215        1.38266772120443        0.13551352098574
C           -1.41277379624322        1.35703116335156        0.13714249899428
C           -0.67385893455994        2.54501781813067        0.13304294270169
C            0.70230821376159        2.53995858328722        0.13248807541436
C            1.43258831830544        1.34664327877862        0.13616531443244
C            2.89099027557307        1.36200604965258        0.13254067427311
C            3.63569868089685        0.41866143816396        0.84753879487116
C            5.01067803250301        0.42737893143405        0.82446621318413
C            5.70435248905177        1.37981504997826        0.07119959909942
N            7.09634950400495        1.37003570700560        0.02072941151417
C            7.80630963417922        2.57374971167317       -0.07430560012797
C            8.94873966913630        2.65871448979476       -0.87115347808478
C            9.64870705018015        3.84669792723345       -0.95717286679197
C            9.22109904672726        4.96551186363527       -0.25952876855123
C            8.08596992420180        4.88652270564725        0.53197245631473
C            7.38205318295220        3.70175274353786        0.62939654679624
C            7.79259798162027        0.15539134749878        0.06353867677544
C            9.00302672605604        0.06104952364676        0.75175341682426
C            9.69005105430417       -1.13695068454893        0.78827311715699
C            9.18189153137205       -2.25718386522781        0.14949579985911
C            7.97825674459470       -2.16938572583779       -0.53239631890043
C            7.28752259874656       -0.97413297963657       -0.58250984760183
C            4.96852419277696        2.33678885938666       -0.63454876550513
C            3.59276126740645        2.32928027365683       -0.59632597916799
C            0.72653874582871        0.12508752461024        0.12585370509417
N            1.37425302955047       -1.04228585614178        0.07162882082404
C            0.71643202138463       -2.19401241977859        0.01305138791260
C           -0.72257120603171       -2.18869226227947        0.01303118357166
N           -1.37181924250273       -1.03212135063103        0.07147030432410
C           -0.71553744071896        0.13042134034530        0.12599710154075
C           -1.38408298327404       -3.42387699367595       -0.04774814308110
S           -3.11366558496282       -3.62930566599894       -0.06410279946620
C           -2.92145658011506       -5.34894163848405       -0.14911865131709
C           -1.62857134103083       -5.74629114713841       -0.16496755852665
C           -0.71905729293648       -4.65674653889196       -0.10768214071620
C            0.69443672114249       -4.66200936194730       -0.10762646992647
C            1.59576572137627       -5.75833831319647       -0.16481216866887
C            2.89158641755604       -5.37066876758159       -0.14894641092223
S            3.09664615882939       -3.65250785306499       -0.06415047505442
C            1.36866379581290       -3.43413363458870       -0.04769867080177
C           -3.56715508931008        2.35586412124076       -0.59088913596993
C           -4.94287858252788        2.37236184580266       -0.62789065979776
C           -7.34778428239282        3.74961034290297        0.64009779077542
C           -8.04469922525089        4.93873085929496        0.54539581319923
H           -9.72265917588614        5.95653470810814       -0.31481479112719
H          -10.49523317966369        3.97207512488551       -1.56702714577975
H           -9.25400228731350        1.85403816424255       -1.41665944263741
H           -9.37666076213116        0.98728657125473        1.26679931629047
H          -10.61870480919724       -1.13307134083403        1.32811977004264
H           -9.72563665330810       -3.13048773109768        0.18077189701609
H           -7.58016740334802       -2.98328626264722       -1.03856967189632
H           -6.34840762488656       -0.86156316010342       -1.12237421591678
H           -5.55249134571167       -0.26530530093473        1.40206904203157
H           -3.11072688745484       -0.29913640425224        1.44233732298299
H           -1.20120280401710        3.48642115401952        0.16915686330380
H            1.23658314115297        3.47746436999214        0.16810452525706
H            3.12080131502886       -0.31978717769154        1.44112105317116
H            5.56277257331959       -0.30167778427285        1.39897245347715
H            9.27569304334299        1.79083652576675       -1.42479300667617
H           10.52937013966887        3.90127543163772       -1.58011715443470
H            9.76937145302916        5.89265943541109       -0.33131552638764
H            7.75019031213864        5.75165122955454        1.08466135678243
H            6.50479695791435        3.63709718865828        1.25628308790647
H            9.39392916916819        0.92914949202863        1.26187542608572
H           10.62406604945386       -1.19800571906086        1.32723200204027
H            9.71996152898306       -3.19246216784536        0.18338190659293
H            7.57541964066113       -3.03550893106047       -1.03635685894991
H            6.35547938154183       -0.90706585547661       -1.12406412941857
H            5.48731178815671        3.07145892326609       -1.23292390418649
H            3.04659186529728        3.05681646682368       -1.17809989688589
H           -3.80054461142165       -5.96212699206442       -0.18210762906032
H           -1.32093236518914       -6.77521627270443       -0.21529953844395
H            1.28043024553280       -6.78493772439581       -0.21511936136098
H            3.76607111091896       -5.99040695532822       -0.18186686376078
H           -3.01683277934485        3.08080280922644       -1.17198229099387
H           -5.45740508452960        3.11136621507309       -1.22460608298443
H           -6.47051608318049        3.67854306002820        1.26627280146118
H           -7.70346295980291        5.80071568038820        1.09963038748384

          :  Hamiltonian                  GFN2-xTB          :
         :: gradient norm              0.000039080978 Eh/a0 ::
         :: HOMO-LUMO gap              1.091731705329 eV    ::
         :: SCC energy              -149.579321192902 Eh    ::
         :: -> dispersion             -0.138619535615 Eh    ::
         :: -> Gsolv                  -0.067019263347 Eh    ::
         :: repulsion energy           2.644012103889 Eh    ::

    * Orbital Energies and Occupations

         #    Occupation            Energy/Eh            Energy/eV
      -------------------------------------------------------------
         1        2.0000           -0.7257800             -19.7495
       ...           ...                  ...                  ...
       126        2.0000           -0.4095203             -11.1436
       127        2.0000           -0.4087500             -11.1227
       128        2.0000           -0.4073009             -11.0832
       129        2.0000           -0.4066824             -11.0664
       130        2.0000           -0.4060950             -11.0504
       131        2.0000           -0.3999869             -10.8842
       132        2.0000           -0.3827511             -10.4152
       133        2.0000           -0.3790996             -10.3158
       134        2.0000           -0.3711234             -10.0988
       135        1.9997           -0.3566774              -9.7057
       136        1.5201           -0.3490954              -9.4994
       137        1.4803           -0.3489440              -9.4953
       138        1.0000           -0.3011712              -8.1953 (HOMO)
       139                         -0.2610510              -7.1036 (LUMO)
       140                         -0.2525868              -6.8732
       141                         -0.2354928              -6.4081
       142                         -0.2354387              -6.4066
       143                         -0.2339735              -6.3667
       144                         -0.2308797              -6.2826
       145                         -0.2308753              -6.2824
       146                         -0.2259495              -6.1484
       147                         -0.2258524              -6.1458
       148                         -0.2230623              -6.0698
       149                         -0.2230601              -6.0698
       ...                                ...                  ...
       276                          0.7446026              20.2617
      -------------------------------------------------------------
                  HL-Gap            0.0401202 Eh            1.0917 eV

     #   Z          covCN         q      C6AA      α(0)
     1   6 C        2.919    -0.035    28.860     8.810
     2   6 C        2.919    -0.028    28.697     8.785
     3   6 C        2.922    -0.044    29.094     8.845
     4   6 C        2.925     0.064    26.560     8.452
     5   7 N        2.752    -0.054    22.285     7.011
     6   6 C        2.925     0.064    26.558     8.451
     7   6 C        2.922    -0.045    29.109     8.848
     8   6 C        2.919    -0.028    28.705     8.786
     9   6 C        2.919    -0.034    28.856     8.809
    10   6 C        2.919    -0.027    28.682     8.782
    11   6 C        2.921    -0.043    29.072     8.842
    12   6 C        2.924     0.064    26.573     8.454
    13   6 C        2.919    -0.045    29.112     8.848
    14   6 C        2.923    -0.027    28.683     8.783
    15   6 C        2.974     0.013    27.713     8.635
    16   6 C        2.974    -0.021    28.525     8.761
    17   6 C        2.917    -0.048    29.197     8.861
    18   6 C        2.917    -0.048    29.197     8.861
    19   6 C        2.974    -0.021    28.525     8.761
    20   6 C        2.974     0.013    27.713     8.635
    21   6 C        2.923    -0.027    28.683     8.783
    22   6 C        2.919    -0.045    29.113     8.848
    23   6 C        2.924     0.064    26.573     8.454
    24   7 N        2.752    -0.054    22.285     7.011
    25   6 C        2.925     0.064    26.560     8.452
    26   6 C        2.922    -0.044    29.094     8.845
    27   6 C        2.919    -0.028    28.697     8.785
    28   6 C        2.919    -0.035    28.860     8.810
    29   6 C        2.919    -0.028    28.698     8.785
    30   6 C        2.922    -0.044    29.094     8.845
    31   6 C        2.925     0.064    26.558     8.451
    32   6 C        2.922    -0.045    29.109     8.848
    33   6 C        2.919    -0.028    28.705     8.786
    34   6 C        2.919    -0.034    28.856     8.809
    35   6 C        2.919    -0.027    28.682     8.782
    36   6 C        2.921    -0.043    29.072     8.842
    37   6 C        2.919    -0.047    29.161     8.855
    38   6 C        2.924    -0.035    28.877     8.812
    39   6 C        2.943     0.085    26.109     8.380
    40   7 N        1.848    -0.268    27.816     7.817
    41   6 C        2.962     0.080    26.216     8.398
    42   6 C        2.962     0.080    26.216     8.398
    43   7 N        1.848    -0.268    27.815     7.816
    44   6 C        2.943     0.085    26.109     8.380
    45   6 C        3.006    -0.003    28.082     8.693
    46  16 S        2.254    -0.060   143.560    20.166
    47   6 C        2.937    -0.016    28.419     8.743
    48   6 C        3.073    -0.049    29.132     8.850
    49   6 C        3.141    -0.017    28.190     8.688
    50   6 C        3.141    -0.017    28.190     8.688
    51   6 C        3.073    -0.049    29.132     8.850
    52   6 C        2.937    -0.016    28.419     8.743
    53  16 S        2.254    -0.060   143.560    20.166
    54   6 C        3.006    -0.003    28.082     8.693
    55   6 C        2.924    -0.035    28.877     8.812
    56   6 C        2.919    -0.047    29.161     8.855
    57   6 C        2.922    -0.044    29.095     8.845
    58   6 C        2.919    -0.028    28.698     8.785
    59   1 H        0.926     0.038     2.473     2.459
    60   1 H        0.926     0.040     2.454     2.450
    61   1 H        0.926     0.038     2.476     2.461
    62   1 H        0.926     0.038     2.472     2.458
    63   1 H        0.926     0.040     2.453     2.449
    64   1 H        0.926     0.038     2.477     2.461
    65   1 H        0.926     0.039     2.467     2.456
    66   1 H        0.926     0.037     2.487     2.466
    67   1 H        0.926     0.039     2.465     2.455
    68   1 H        0.926     0.042     2.418     2.432
    69   1 H        0.926     0.037     2.489     2.467
    70   1 H        0.926     0.037     2.489     2.467
    71   1 H        0.926     0.042     2.418     2.432
    72   1 H        0.926     0.039     2.465     2.455
    73   1 H        0.926     0.038     2.476     2.461
    74   1 H        0.926     0.040     2.454     2.450
    75   1 H        0.926     0.038     2.473     2.459
    76   1 H        0.926     0.039     2.459     2.452
    77   1 H        0.926     0.038     2.482     2.464
    78   1 H        0.926     0.038     2.472     2.459
    79   1 H        0.926     0.040     2.453     2.449
    80   1 H        0.926     0.038     2.477     2.461
    81   1 H        0.926     0.039     2.467     2.456
    82   1 H        0.926     0.037     2.487     2.466
    83   1 H        0.926     0.040     2.446     2.446
    84   1 H        0.926     0.040     2.452     2.448
    85   1 H        0.926     0.051     2.304     2.374
    86   1 H        0.926     0.043     2.407     2.426
    87   1 H        0.926     0.043     2.407     2.426
    88   1 H        0.926     0.051     2.304     2.374
    89   1 H        0.926     0.040     2.451     2.448
    90   1 H        0.926     0.040     2.445     2.445
    91   1 H        0.926     0.038     2.482     2.464
    92   1 H        0.926     0.039     2.459     2.452

molecular dipole:
                 x           y           z       tot (Debye)
 q only:        0.006       1.587      -0.006
   full:        0.004       1.292      -0.035       3.285

 projected vibrational frequencies (cm⁻¹)
eigval :       -0.00    -0.00    -0.00     0.00     0.00     0.00
eigval :       11.34    11.60    13.91    15.36    18.66    19.17
eigval :       40.22    43.51    44.54    48.41    53.20    56.08
eigval :       63.54    65.40    67.66    75.24    79.77    88.05
eigval :       92.67   104.00   105.36   111.00   130.92   135.24
eigval :      155.86   166.84   169.36   180.99   181.43   205.28
eigval :      224.74   230.43   233.80   243.75   256.32   261.51
eigval :      294.71   305.92   311.44   314.04   331.25   334.35
eigval :      338.58   352.94   353.11   360.14   377.66   378.58
eigval :      378.82   379.23   386.02   386.05   388.92   412.87
eigval :      414.65   420.51   420.60   420.76   431.82   460.92
eigval :      480.11   485.35   487.10   487.89   501.92   510.65
eigval :      514.03   535.73   545.50   569.70   573.70   577.31
eigval :      579.29   583.38   585.61   586.36   589.17   591.08
eigval :      593.64   596.99   611.73   616.18   625.04   639.82
eigval :      650.73   652.91   660.65   660.99   663.10   667.56
eigval :      669.77   683.67   684.51   690.76   704.50   728.15
eigval :      734.13   735.01   750.67   754.79   756.73   756.76
eigval :      760.24   760.41   802.19   806.66   813.59   820.03
eigval :      824.35   825.72   831.85   855.11   856.55   861.77
eigval :      871.76   871.92   872.22   873.19   890.31   893.41
eigval :      895.08   895.44   897.62   898.60   902.22   908.98
eigval :      909.09   911.50   912.20   920.04   920.62   926.67
eigval :      927.26   927.85   928.42   929.69   930.67   930.83
eigval :      931.24   940.20   942.75   948.61   984.71   984.87
eigval :     1002.99  1003.06  1013.99  1019.11  1033.55  1070.61
eigval :     1080.39  1080.55  1081.49  1081.65  1093.86  1120.04
eigval :     1120.55  1120.93  1122.65  1123.38  1139.39  1144.06
eigval :     1146.42  1151.46  1178.31  1178.52  1178.93  1179.64
eigval :     1179.82  1180.65  1191.30  1192.17  1192.75  1195.14
eigval :     1207.84  1211.15  1215.54  1225.37  1238.79  1263.86
eigval :     1268.28  1273.29  1273.61  1274.97  1275.55  1278.78
eigval :     1278.86  1285.79  1297.70  1298.08  1301.08  1304.70
eigval :     1313.68  1314.94  1317.58  1320.56  1323.86  1324.37
eigval :     1324.82  1329.06  1343.34  1359.66  1366.41  1386.48
eigval :     1413.47  1416.17  1426.35  1432.60  1432.79  1438.59
eigval :     1438.96  1462.33  1462.93  1463.75  1463.78  1468.15
eigval :     1469.71  1473.51  1483.33  1494.27  1496.11  1503.61
eigval :     1524.67  1533.74  1536.37  1538.17  1571.50  1571.51
eigval :     1574.65  1575.21  1578.61  1582.99  1584.94  1585.01
eigval :     1591.97  1593.44  3076.23  3076.32  3076.49  3076.86
eigval :     3077.09  3077.45  3077.78  3078.00  3078.28  3078.90
eigval :     3080.30  3083.68  3083.74  3085.95  3085.98  3086.84
eigval :     3087.15  3088.82  3089.01  3089.40  3089.65  3090.22
eigval :     3090.47  3092.59  3096.50  3097.08  3097.15  3097.62
eigval :     3105.33  3105.74  3127.35  3130.68  3156.48  3156.68

   temp. (K)  partition function   enthalpy   heat capacity  entropy
                                   cal/mol     cal/K/mol   cal/K/mol   J/K/mol
 298.15  VIB  0.214E+23            27812.615    173.746    174.988
         ROT  0.202E+09              888.752      2.981     40.982
         INT  0.432E+31            28701.367    176.727    215.971
         TR   0.210E+29             1481.254      4.968     45.816
         TOT                       30182.6209   181.6953   261.7868  1095.3160

       T/K    H(0)-H(T)+PV         H(T)/Eh          T*S/Eh         G(T)/Eh
   ------------------------------------------------------------------------
    298.15    0.480991E-01    0.736276E+00    0.124383E+00    0.611892E+00
   ------------------------------------------------------------------------

         :::::::::::::::::::::::::::::::::::::::::::::::::::::
         ::                  THERMODYNAMIC                  ::
         :::::::::::::::::::::::::::::::::::::::::::::::::::::
         :: total free energy        -146.323416897581 Eh   ::
         ::.................................................::
         :: total energy             -146.935309086203 Eh   ::
         :: zero point energy           0.688176475681 Eh   ::
         :: G(RRHO) w/o ZPVE           -0.076284287058 Eh   ::
         :: G(RRHO) contrib.            0.611892188623 Eh   ::
         :::::::::::::::::::::::::::::::::::::::::::::::::::::

           -------------------------------------------------
          | TOTAL ENERGY             -146.935309086203 Eh   |
          | TOTAL ENTHALPY           -146.199033542447 Eh   |
          | TOTAL FREE ENERGY        -146.323416897581 Eh   |
          | GRADIENT NORM               0.000039657722 Eh/α |
          | HOMO-LUMO GAP               1.091726354759 eV   |
           -------------------------------------------------

 * finished run on 2025/09/11 at 07:41:27.400
