   * xtb version 6.7.1 (edcfbbe) compiled by 'albert@albert-system' on 2024-07-22

   ID    Z sym.   atoms
    1    6 C      1-4, 6-23, 25-39, 41, 42, 44, 45, 47-52, 54-58
    2    7 N      5, 24, 40, 43
    3   16 S      46, 53
    4    1 H      59-92

          program call               : xtb data2507/toluene/pDTPA-DTPZ/pDTPA-DTPZ_toluene_S0_crest.xyz --gfn 2 --gbsa toluene --ohess vtight --parallel 40 --molden --ceasefiles --namespace data2507/toluene/pDTPA-DTPZ/pDTPA-DTPZ_toluene_S0_finalOpt
      * Solvation model:               GBSA
        Solvent                        toluene
        Solvent mass                       9.2140E+01 g/mol
          :  Hamiltonian                  GFN2-xTB          :
 * total energy  :  -146.9793382 Eh     change       -0.7643735E-09 Eh
 * total energy  :  -146.9794269 Eh     change       -0.8865498E-04 Eh
 * total energy  :  -146.9795021 Eh     change       -0.7526049E-04 Eh
 * total energy  :  -146.9795418 Eh     change       -0.3965301E-04 Eh
 * total energy  :  -146.9795780 Eh     change       -0.3625338E-04 Eh
 * total energy  :  -146.9796305 Eh     change       -0.5247595E-04 Eh
 * total energy  :  -146.9796475 Eh     change       -0.1696445E-04 Eh
 * total energy  :  -146.9796995 Eh     change       -0.5198832E-04 Eh
 * total energy  :  -146.9797123 Eh     change       -0.1281325E-04 Eh
 * total energy  :  -146.9797484 Eh     change       -0.3611065E-04 Eh
 * total energy  :  -146.9798975 Eh     change       -0.1551069E-05 Eh
 * total energy  :  -146.9798990 Eh     change       -0.1570160E-05 Eh
 * total energy  :  -146.9798998 Eh     change       -0.7848260E-06 Eh
 * total energy  :  -146.9799003 Eh     change       -0.5025671E-06 Eh
 * total energy  :  -146.9799008 Eh     change       -0.5152101E-06 Eh
 * total energy  :  -146.9799014 Eh     change       -0.6049804E-06 Eh
 * total energy  :  -146.9799021 Eh     change       -0.6230715E-06 Eh
 * total energy  :  -146.9799027 Eh     change       -0.6390545E-06 Eh
 * total energy  :  -146.9799027 Eh     change       -0.1188729E-07 Eh
   *** GEOMETRY OPTIMIZATION CONVERGED AFTER 44 ITERATIONS ***

 final structure:
================
92
 xtb: 6.7.1 (edcfbbe)
C           -9.22149306557805        4.96966518847370       -0.43018075018322
C           -9.65552440370827        3.80597189018410       -1.04473928342096
C           -8.95170492694690        2.62720396506477       -0.88881969141463
C           -7.79968531187717        2.59513234333734       -0.10304846779380
N           -7.08372573622265        1.40241447773026        0.06209662667693
C           -7.76917394680875        0.18522756479576        0.17572734732623
C           -8.97082215022604        0.11345193402092        0.88011737372088
C           -9.64629563759740       -1.08769163378027        0.98341600569459
C           -9.13361464890102       -2.23436392314035        0.39832737085294
C           -7.93724842358445       -2.16933327851270       -0.29800046611432
C           -7.26019475945812       -0.97088931358309       -0.41627855117882
C           -5.68842943259257        1.42089952792545        0.09449677273471
C           -4.98496900784964        0.54214204573452        0.92092710182127
C           -3.60767739592206        0.53680874682367        0.92821999025781
C           -2.88168825282747        1.41394435285339        0.12257542229447
C           -1.41780172009975        1.39852900939918        0.10739182703598
C           -0.68185811302219        2.56274870135997        0.10048714129358
C            0.71628759625446        2.55612896798858        0.09910060992997
C            1.44197613807491        1.38523353054750        0.10223285434402
C            2.90590980724562        1.38905175204151        0.11414201017665
C            3.62738810353790        0.49539795791030        0.90580373778767
C            5.00470594692943        0.49134856599638        0.89625498735440
C            5.71262969055640        1.37914599556459        0.08372633525958
N            7.10823358086010        1.35435055307062        0.05035273284743
C            7.82827685954029        2.54944396516796       -0.07389626477092
C            8.98402710880531        2.60391488834029       -0.85294728886315
C            9.69306608453571        3.78461461055617       -0.96480859676564
C            9.26028775538065        4.92839407493954       -0.31310026662360
C            8.11028259928033        4.88086480947213        0.45853895993062
C            7.39900114556584        3.70291303166891        0.58296911000611
C            7.78668722625704        0.13105192924958        0.13076150448991
C            8.99137552625701        0.03366779451844        0.82699761702472
C            9.65946134842793       -1.17395833027395        0.89667380537499
C            9.13639955039869       -2.30240738827368        0.28591502646866
C            7.93662652940710       -2.21235630679498       -0.40167786977903
C            7.26689996898155       -1.00700491450438       -0.48659550122766
C            4.99581750488167        2.28650762903043       -0.69893961380364
C            3.61790508417093        2.29230589499694       -0.67653568878326
C            0.72295663146145        0.15591573726322        0.07274371411898
N            1.39562082551672       -0.99817606177852       -0.00302428030824
C            0.71448257854532       -2.12830816623965       -0.05233285773995
C           -0.72554220528595       -2.12143887109099       -0.04527819924332
N           -1.39515529049972       -0.98469313644344        0.00827607514884
C           -0.71042806497454        0.16273555548913        0.07708221700338
C           -1.39997112809099       -3.36664733816704       -0.11217524590637
S           -3.11927169683755       -3.57243624124726       -0.11600849993501
C           -2.92734090652516       -5.28489114383620       -0.20798030495770
C           -1.63153017687542       -5.68177708439225       -0.23520957951601
C           -0.73171338164772       -4.58661415374879       -0.17987210195971
C            0.69548999846348       -4.59337483378211       -0.18788034687472
C            1.58406538677614       -5.69711423659122       -0.25321734277756
C            2.88385133451767       -5.31269260645683       -0.24026049910911
S            3.09331510942730       -3.60218530588665       -0.15010651662445
C            1.37615710425888       -3.37989716329862       -0.12713944886710
C           -3.58848271587586        2.30999094760864       -0.68052393989502
C           -4.96645659723599        2.31146010549134       -0.70279761637838
C           -7.37035261621501        3.76814727130573        0.51810855055964
C           -8.07636648026864        4.94380208277683        0.34973014260849
H           -9.77183864084981        5.88981698264967       -0.55756812277788
H          -10.54450435048564        3.81739806024294       -1.65867420404457
H           -9.28659455362158        1.72345002515767       -1.37683636667142
H           -9.36783395659414        1.00371616779359        1.34600730560455
H          -10.57550274958992       -1.12934324976239        1.53312519429755
H           -9.66251121858211       -3.17168685765960        0.48486542229271
H           -7.53038703318530       -3.05620662452475       -0.76153614321989
H           -6.33329327200987       -0.92153369162494       -0.96868304853467
H           -5.53025047000641       -0.13827761924108        1.55838089024582
H           -3.08175126010733       -0.14461709308406        1.57819943138256
H           -1.19772111976004        3.51152576198317        0.12936385289814
H            1.24056921945254        3.50023516276363        0.12824171327759
H            3.09804280721538       -0.19197010917304        1.54657262201253
H            5.54656220074326       -0.20278376349869        1.52176250098602
H            9.31829336308863        1.71599836163257       -1.36963564249666
H           10.58549916116344        3.81345570658586       -1.57313708716301
H            9.81548951723611        5.84981305196543       -0.40522158380303
H            7.76819860395656        5.76602138090186        0.97506867282746
H            6.50793643230336        3.66534393882052        1.19276520775122
H            9.39668793636181        0.90905883757078        1.31340803874516
H           10.59126773881802       -1.23518635370345        1.44009286958838
H            9.65997907458042       -3.24477400957173        0.34573424618043
H            7.52130817131660       -3.08486402399154       -0.88463362289613
H            6.33713719900192       -0.93848763126704       -1.03215153315201
H            5.52966102692365        2.97635189027833       -1.33633999937639
H            3.08097920621106        2.98113309622107       -1.31252788210195
H           -3.80346972030659       -5.90254833301074       -0.23665543316865
H           -1.32085814929186       -6.70878045190682       -0.29152170870584
H            1.26287709213042       -6.72106703234674       -0.30608980821694
H            3.75359860523277       -5.93877864031063       -0.27857057703370
H           -3.04745548089601        2.98645445971294       -1.32631086247410
H           -5.49607064217034        2.99393394901270       -1.35152023510920
H           -6.48299407888059        3.74783781999452        1.13408513178187
H           -7.73381745065964        5.84462177071546        0.83807177505555

          :  Hamiltonian                  GFN2-xTB          :
         :: gradient norm              0.000063839857 Eh/a0 ::
         :: HOMO-LUMO gap              1.022726981690 eV    ::
         :: SCC energy              -149.626028093763 Eh    ::
         :: -> dispersion             -0.138741374886 Eh    ::
         :: -> Gsolv                  -0.064451619555 Eh    ::
         :: repulsion energy           2.646125384619 Eh    ::

    * Orbital Energies and Occupations

         #    Occupation            Energy/Eh            Energy/eV
      -------------------------------------------------------------
         1        2.0000           -0.7372181             -20.0607
       ...           ...                  ...                  ...
       125        2.0000           -0.4067165             -11.0673
       126        2.0000           -0.4064609             -11.0604
       127        2.0000           -0.4055927             -11.0367
       128        2.0000           -0.4038830             -10.9902
       129        2.0000           -0.4034748             -10.9791
       130        2.0000           -0.4030426             -10.9673
       131        2.0000           -0.4027826             -10.9603
       132        2.0000           -0.3906867             -10.6311
       133        2.0000           -0.3895945             -10.6014
       134        2.0000           -0.3802049             -10.3459
       135        2.0000           -0.3559401              -9.6856
       136        2.0000           -0.3505202              -9.5381
       137        2.0000           -0.3463055              -9.4235 (HOMO)
       138                         -0.3087209              -8.4007 (LUMO)
       139                         -0.2711712              -7.3789
       140                         -0.2543744              -6.9219
       141                         -0.2310852              -6.2881
       142                         -0.2303861              -6.2691
       143                         -0.2295959              -6.2476
       144                         -0.2295293              -6.2458
       145                         -0.2264194              -6.1612
       146                         -0.2264121              -6.1610
       147                         -0.2250713              -6.1245
       148                         -0.2211846              -6.0187
       ...                                ...                  ...
       276                          0.7280565              19.8114
      -------------------------------------------------------------
                  HL-Gap            0.0375846 Eh            1.0227 eV

     #   Z          covCN         q      C6AA      α(0)
     1   6 C        2.919    -0.039    28.967     8.826
     2   6 C        2.919    -0.030    28.748     8.793
     3   6 C        2.922    -0.047    29.177     8.858
     4   6 C        2.923     0.065    26.543     8.449
     5   7 N        2.752    -0.075    22.695     7.075
     6   6 C        2.924     0.065    26.545     8.449
     7   6 C        2.922    -0.048    29.182     8.859
     8   6 C        2.919    -0.030    28.755     8.793
     9   6 C        2.919    -0.039    28.963     8.825
    10   6 C        2.919    -0.030    28.741     8.791
    11   6 C        2.922    -0.047    29.168     8.857
    12   6 C        2.924     0.066    26.520     8.445
    13   6 C        2.921    -0.048    29.183     8.859
    14   6 C        2.923    -0.025    28.639     8.776
    15   6 C        2.975     0.006    27.872     8.660
    16   6 C        2.973    -0.007    28.200     8.711
    17   6 C        2.919    -0.040    29.001     8.831
    18   6 C        2.919    -0.040    29.002     8.831
    19   6 C        2.973    -0.008    28.203     8.711
    20   6 C        2.975     0.007    27.869     8.659
    21   6 C        2.923    -0.026    28.641     8.776
    22   6 C        2.921    -0.047    29.178     8.858
    23   6 C        2.924     0.066    26.520     8.445
    24   7 N        2.752    -0.075    22.697     7.076
    25   6 C        2.923     0.065    26.543     8.449
    26   6 C        2.922    -0.047    29.177     8.858
    27   6 C        2.919    -0.030    28.749     8.793
    28   6 C        2.919    -0.039    28.968     8.826
    29   6 C        2.919    -0.030    28.750     8.793
    30   6 C        2.922    -0.048    29.185     8.859
    31   6 C        2.924     0.065    26.545     8.449
    32   6 C        2.922    -0.048    29.187     8.859
    33   6 C        2.919    -0.030    28.756     8.794
    34   6 C        2.919    -0.039    28.966     8.826
    35   6 C        2.919    -0.030    28.742     8.792
    36   6 C        2.922    -0.047    29.173     8.857
    37   6 C        2.920    -0.049    29.212     8.863
    38   6 C        2.924    -0.035    28.875     8.812
    39   6 C        2.963     0.083    26.156     8.389
    40   7 N        1.847    -0.266    27.768     7.810
    41   6 C        2.976     0.082    26.157     8.389
    42   6 C        2.976     0.082    26.156     8.389
    43   7 N        1.847    -0.266    27.769     7.810
    44   6 C        2.963     0.083    26.155     8.389
    45   6 C        3.009    -0.002    28.063     8.690
    46  16 S        2.268    -0.003   141.162    19.997
    47   6 C        2.941    -0.016    28.406     8.741
    48   6 C        3.080    -0.047    29.085     8.841
    49   6 C        3.153    -0.007    27.911     8.640
    50   6 C        3.153    -0.007    27.911     8.640
    51   6 C        3.080    -0.047    29.085     8.841
    52   6 C        2.941    -0.016    28.406     8.741
    53  16 S        2.267    -0.003   141.164    19.997
    54   6 C        3.009    -0.002    28.063     8.690
    55   6 C        2.924    -0.035    28.874     8.812
    56   6 C        2.920    -0.049    29.219     8.864
    57   6 C        2.922    -0.048    29.183     8.859
    58   6 C        2.919    -0.030    28.750     8.793
    59   1 H        0.926     0.033     2.550     2.497
    60   1 H        0.926     0.034     2.529     2.487
    61   1 H        0.926     0.033     2.551     2.497
    62   1 H        0.926     0.032     2.554     2.499
    63   1 H        0.926     0.034     2.530     2.487
    64   1 H        0.926     0.033     2.545     2.495
    65   1 H        0.926     0.035     2.520     2.482
    66   1 H        0.926     0.033     2.548     2.496
    67   1 H        0.926     0.036     2.504     2.475
    68   1 H        0.926     0.037     2.490     2.468
    69   1 H        0.926     0.045     2.378     2.412
    70   1 H        0.926     0.045     2.377     2.411
    71   1 H        0.926     0.037     2.484     2.465
    72   1 H        0.926     0.036     2.503     2.474
    73   1 H        0.926     0.033     2.549     2.497
    74   1 H        0.926     0.034     2.529     2.487
    75   1 H        0.926     0.033     2.550     2.497
    76   1 H        0.926     0.034     2.532     2.488
    77   1 H        0.926     0.032     2.559     2.502
    78   1 H        0.926     0.032     2.555     2.500
    79   1 H        0.926     0.034     2.531     2.488
    80   1 H        0.926     0.033     2.548     2.496
    81   1 H        0.926     0.035     2.522     2.483
    82   1 H        0.926     0.033     2.551     2.498
    83   1 H        0.926     0.036     2.504     2.475
    84   1 H        0.926     0.036     2.504     2.474
    85   1 H        0.926     0.064     2.156     2.296
    86   1 H        0.926     0.056     2.245     2.343
    87   1 H        0.926     0.056     2.245     2.343
    88   1 H        0.926     0.064     2.156     2.296
    89   1 H        0.926     0.036     2.508     2.476
    90   1 H        0.926     0.036     2.505     2.475
    91   1 H        0.926     0.032     2.556     2.500
    92   1 H        0.926     0.034     2.531     2.488

molecular dipole:
                 x           y           z       tot (Debye)
 q only:       -0.019      -0.528      -0.009
   full:       -0.018      -0.651      -0.035       1.659

 projected vibrational frequencies (cm⁻¹)
eigval :       -0.00     0.00     0.00     0.00     0.00     0.00
eigval :       10.71    11.24    13.38    14.07    17.06    21.19
eigval :       38.89    43.40    46.07    47.56    54.66    56.27
eigval :       62.25    65.42    66.06    77.77    79.27    90.92
eigval :       95.12   104.15   106.62   114.08   128.99   134.39
eigval :      153.20   165.81   167.81   187.14   202.45   211.14
eigval :      222.74   230.96   232.66   245.93   255.70   267.71
eigval :      301.24   306.44   314.48   331.43   333.37   335.16
eigval :      348.49   355.20   359.83   373.31   378.30   379.17
eigval :      380.18   380.35   387.06   388.05   392.92   410.82
eigval :      418.38   421.21   422.67   427.35   440.19   462.67
eigval :      481.06   485.38   488.22   491.20   497.58   508.91
eigval :      516.16   539.81   558.35   576.14   578.62   580.53
eigval :      583.09   586.62   589.08   590.86   593.09   599.84
eigval :      601.16   604.86   615.45   631.21   644.67   648.60
eigval :      656.17   660.38   660.55   661.31   669.54   672.76
eigval :      686.64   688.29   695.39   710.97   730.65   738.75
eigval :      743.28   755.98   756.03   759.07   760.11   760.25
eigval :      762.65   769.46   808.81   815.28   816.68   825.99
eigval :      830.70   840.88   845.01   863.60   865.53   873.91
eigval :      874.22   874.41   875.21   875.82   889.84   891.08
eigval :      891.34   891.84   898.37   908.83   909.32   909.51
eigval :      910.69   912.91   916.32   923.54   924.91   925.79
eigval :      926.14   928.40   928.80   929.20   929.70   929.72
eigval :      930.44   944.18   956.64   957.80   986.45   987.84
eigval :     1004.01  1004.10  1016.99  1024.93  1036.23  1069.83
eigval :     1081.79  1081.97  1082.93  1083.12  1095.98  1120.92
eigval :     1121.15  1123.33  1123.57  1132.81  1140.35  1141.29
eigval :     1143.09  1148.34  1178.91  1179.23  1179.82  1180.30
eigval :     1184.89  1185.41  1194.23  1194.71  1195.69  1196.59
eigval :     1209.77  1212.73  1215.75  1238.49  1261.69  1263.31
eigval :     1271.33  1272.92  1276.32  1277.40  1277.68  1280.44
eigval :     1281.44  1303.06  1308.85  1310.92  1311.32  1315.41
eigval :     1315.73  1323.31  1324.03  1325.37  1325.50  1326.12
eigval :     1337.53  1346.05  1360.93  1377.74  1406.97  1407.87
eigval :     1415.37  1420.43  1434.36  1434.39  1440.87  1440.90
eigval :     1469.02  1469.53  1470.49  1471.39  1472.30  1472.49
eigval :     1479.56  1485.89  1488.20  1501.16  1511.91  1525.62
eigval :     1541.43  1549.83  1551.95  1573.95  1575.42  1575.84
eigval :     1579.22  1579.37  1587.60  1590.53  1590.94  1591.00
eigval :     1598.70  1599.16  3071.50  3071.65  3072.25  3072.27
eigval :     3073.09  3073.32  3073.69  3073.85  3073.95  3074.16
eigval :     3077.41  3081.84  3081.98  3082.48  3082.60  3082.82
eigval :     3082.90  3085.34  3085.97  3086.33  3086.48  3086.62
eigval :     3086.94  3088.46  3093.56  3093.72  3094.23  3094.36
eigval :     3101.50  3102.11  3137.20  3140.38  3159.70  3160.19

   temp. (K)  partition function   enthalpy   heat capacity  entropy
                                   cal/mol     cal/K/mol   cal/K/mol   J/K/mol
 298.15  VIB  0.189E+23            27592.353    172.478    173.798
         ROT  0.200E+09              888.752      2.981     40.966
         INT  0.378E+31            28481.105    175.458    214.764
         TR   0.210E+29             1481.254      4.968     45.816
         TOT                       29962.3593   180.4266   260.5805  1090.2688

       T/K    H(0)-H(T)+PV         H(T)/Eh          T*S/Eh         G(T)/Eh
   ------------------------------------------------------------------------
    298.15    0.477481E-01    0.738469E+00    0.123810E+00    0.614659E+00
   ------------------------------------------------------------------------

         :::::::::::::::::::::::::::::::::::::::::::::::::::::
         ::                  THERMODYNAMIC                  ::
         :::::::::::::::::::::::::::::::::::::::::::::::::::::
         :: total free energy        -146.365243586182 Eh   ::
         ::.................................................::
         :: total energy             -146.979902709327 Eh   ::
         :: zero point energy           0.690721264434 Eh   ::
         :: G(RRHO) w/o ZPVE           -0.076062141289 Eh   ::
         :: G(RRHO) contrib.            0.614659123145 Eh   ::
         :::::::::::::::::::::::::::::::::::::::::::::::::::::

           -------------------------------------------------
          | TOTAL ENERGY             -146.979902709327 Eh   |
          | TOTAL ENTHALPY           -146.241433386121 Eh   |
          | TOTAL FREE ENERGY        -146.365243586182 Eh   |
          | GRADIENT NORM               0.000063850534 Eh/α |
          | HOMO-LUMO GAP               1.022727676504 eV   |
           -------------------------------------------------

 * finished run on 2025/09/11 at 07:41:15.913
