   * xtb version 6.7.1 (edcfbbe) compiled by 'albert@albert-system' on 2024-07-22

   ID    Z sym.   atoms
    1    6 C      1-4, 6-23, 25-39, 41, 42, 44, 45, 47-52, 54-58
    2    7 N      5, 24, 40, 43
    3   16 S      46, 53
    4    1 H      59-92

          program call               : xtb data2507/toluene/pDTPA-DTPZ/pDTPA-DTPZ_toluene_T1_crest.xyz --gfn 2 --uhf 2 --gbsa toluene --ohess vtight --parallel 40 --molden --ceasefiles --namespace data2507/toluene/pDTPA-DTPZ/pDTPA-DTPZ_toluene_T1_finalOpt
      * Solvation model:               GBSA
        Solvent                        toluene
        Solvent mass                       9.2140E+01 g/mol
          :  Hamiltonian                  GFN2-xTB          :
 * total energy  :  -146.9350459 Eh     change       -0.2564335E-07 Eh
 * total energy  :  -146.9351914 Eh     change       -0.1454879E-03 Eh
 * total energy  :  -146.9352924 Eh     change       -0.1010501E-03 Eh
 * total energy  :  -146.9353105 Eh     change       -0.1803102E-04 Eh
 * total energy  :  -146.9353243 Eh     change       -0.1379306E-04 Eh
 * total energy  :  -146.9353360 Eh     change       -0.1172041E-04 Eh
 * total energy  :  -146.9353470 Eh     change       -0.1106893E-04 Eh
 * total energy  :  -146.9353542 Eh     change       -0.7174271E-05 Eh
 * total energy  :  -146.9353603 Eh     change       -0.6083864E-05 Eh
 * total energy  :  -146.9353688 Eh     change       -0.8486455E-05 Eh
 * total energy  :  -146.9354693 Eh     change       -0.8234701E-06 Eh
 * total energy  :  -146.9354701 Eh     change       -0.7996105E-06 Eh
 * total energy  :  -146.9354708 Eh     change       -0.7564664E-06 Eh
 * total energy  :  -146.9354716 Eh     change       -0.7899617E-06 Eh
 * total energy  :  -146.9354725 Eh     change       -0.9209508E-06 Eh
 * total energy  :  -146.9354736 Eh     change       -0.1008900E-05 Eh
 * total energy  :  -146.9354743 Eh     change       -0.7853176E-06 Eh
 * total energy  :  -146.9354748 Eh     change       -0.4937283E-06 Eh
 * total energy  :  -146.9354748 Eh     change       -0.7535874E-08 Eh
   *** GEOMETRY OPTIMIZATION CONVERGED AFTER 44 ITERATIONS ***

 final structure:
================
92
 xtb: 6.7.1 (edcfbbe)
C           -9.24520947201947        4.98278447380023        0.17288262818168
C           -9.67299665681678        3.87716451876641        0.89117505223567
C           -8.96148341636479        2.69391481407383        0.84401511695627
C           -7.80709418695466        2.59989895167950        0.06561492928351
N           -7.08439048757076        1.40135622281751        0.01162567376194
C           -7.76695808603806        0.17787844284275       -0.00423459907523
C           -7.25550040494949       -0.92713432576415        0.67807325780014
C           -7.93162034014307       -2.13148862821979        0.65471816523506
C           -9.12729996825959       -2.25257719746900       -0.03595611008236
C           -9.64200940067230       -1.15659913683720       -0.71043694265028
C           -8.96910250041439        0.05000907689432       -0.70118374939578
C           -5.69237982461517        1.42296436050301       -0.02438506306976
C           -4.97094757830028        2.40296836200220        0.66503456934200
C           -3.59514126082997        2.40398506700100        0.64548772782657
C           -2.87662886162173        1.41695306759658       -0.04101833808157
C           -1.41968961195523        1.39507022756290       -0.00185097081845
C           -0.68216120611229        2.58532811437570        0.01373734694620
C            0.69320452072920        2.58319578753677       -0.00311780213959
C            1.42661033538713        1.39038035716530        0.00468573188382
C            2.88348850590499        1.40673310766785        0.04898991674261
C            3.60814398559317        0.44111456356101        0.75546341056693
C            4.98320452458263        0.43844610137114        0.76018444675472
C            5.69930250941718        1.40463050929594        0.04711922197944
N            7.09139929399434        1.38142274610911        0.01957848685405
C            7.81476526525763        2.58026812560707       -0.02579189943643
C            8.97016350612535        2.67863836847737       -0.80200093542754
C            9.68207483325485        3.86197610996116       -0.84083244275295
C            9.25373102309974        4.96305038304175       -0.11592542313422
C            8.10594024997831        4.87060160806914        0.65544525172877
C            7.38991214696035        3.69005881657360        0.70571159266524
C            7.77442865714245        0.15841274922499        0.03701274295768
C            8.97448542796232        0.03137167742935        0.73782630155015
C            9.64868186987043       -1.17446599820970        0.74878119491962
C            9.13727419856519       -2.27078624280690        0.07235438221601
C            7.94374130706000       -2.15057397253375       -0.62217349371815
C            7.26651695942715       -0.94686810265316       -0.64753605045176
C            4.98416096284811        2.39043450751633       -0.64067984866276
C            3.60828928145423        2.39551970468700       -0.62817493837654
C            0.72208141387583        0.16821904142169       -0.00412631294363
N            1.37473857650208       -0.99741113862446       -0.03803890622496
C            0.71729750499283       -2.15175134127755       -0.02290911845545
C           -0.72132298566409       -2.14969892832454       -0.00899506089904
N           -1.37528535331507       -0.99353412858277        0.01837117818485
C           -0.71922917597282        0.17045712036648       -0.00450378031578
C           -1.38001800136128       -3.38785196468893       -0.02272954085879
S           -3.10897375976997       -3.59774143785640       -0.04050650374596
C           -2.91288573356575       -5.31878638699165       -0.05630983836148
C           -1.61916540337882       -5.71372581233696       -0.05086994834537
C           -0.71213872031429       -4.62075158317415       -0.03355009351504
C            0.70124996726663       -4.62284674829216       -0.02691430014125
C            1.60529741627453       -5.71843310321079       -0.02335399029981
C            2.90008352845382       -5.32708211097438       -0.01315759455325
S            3.10085314098772       -3.60651402689830       -0.00746632924020
C            1.37252436695451       -3.39180288409850       -0.02283950862157
C           -3.60774041638555        0.45805267740859       -0.75000661370776
C           -4.98279374389629        0.45921762931276       -0.74719285205560
C           -7.38292399252974        3.71434235422316       -0.65931737441753
C           -8.09840205470237        4.89480922989380       -0.60047405279575
H           -9.80273016470905        5.90629605576143        0.21419507226779
H          -10.56289487031167        3.93872403038746        1.50019615333424
H           -9.28907023766047        1.83677036589846        1.41377976410830
H           -6.32939878107315       -0.83434263315009        1.22598537964755
H           -7.52360306196368       -2.97833087547502        1.18653154277643
H           -9.65405583927953       -3.19481145548224       -0.04896964782744
H          -10.56999493407973       -1.24362080981375       -1.25622304226058
H           -9.36512432674863        0.89878501128447       -1.23915726439790
H           -5.50219493485267        3.14798939210431        1.23923372167059
H           -3.06306220148146        3.14818601228457        1.21882336700618
H           -1.20996276232619        3.52699166701666        0.00492870619627
H            1.22413505587651        3.52301381934321        0.01243949505929
H            3.07706131399258       -0.30906751343086        1.31943859649928
H            5.51774209005026       -0.31086081826916        1.32513984093661
H            9.29817210717095        1.82481926845967       -1.37650647022632
H           10.57275075173706        3.92715893146375       -1.44831840710171
H            9.81160219833026        5.88662306739053       -0.15062631105561
H            7.76944007845758        5.72152539790690        1.22939256051001
H            6.50244741481821        3.61459887688323        1.31683889634003
H            9.36791686483551        0.88024071000413        1.27753714428084
H           10.57505594639238       -1.26058779649135        1.29744220753736
H            9.66490224624300       -3.21250933555309        0.08685238050953
H            7.53829581525597       -2.99765696497980       -1.15556806952359
H            6.34243081209356       -0.85483052167354       -1.19893747899980
H            5.52048896384688        3.13729187032745       -1.20771110989885
H            3.08126041915038        3.14471806395806       -1.19968190880226
H           -3.79064812013635       -5.93463536348367       -0.06917334649337
H           -1.30928799496877       -6.74316942422114       -0.05952056412777
H            1.29268944884425       -6.74707861598468       -0.02739149212678
H            3.77616980815944       -5.94542629098153       -0.00804917027331
H           -3.08178398310221       -0.29013821183491       -1.32136778365351
H           -5.52261032535347       -0.28534495282890       -1.31340911928725
H           -6.49643612050800        3.64259652604121       -1.27229841252601
H           -7.76226531981850        5.74929546811927       -1.16933292730218

          :  Hamiltonian                  GFN2-xTB          :
         :: gradient norm              0.000047815699 Eh/a0 ::
         :: HOMO-LUMO gap              1.097825565476 eV    ::
         :: SCC energy              -149.579132594766 Eh    ::
         :: -> dispersion             -0.138873018289 Eh    ::
         :: -> Gsolv                  -0.066671185509 Eh    ::
         :: repulsion energy           2.643657754925 Eh    ::

    * Orbital Energies and Occupations

         #    Occupation            Energy/Eh            Energy/eV
      -------------------------------------------------------------
         1        2.0000           -0.7259894             -19.7552
       ...           ...                  ...                  ...
       126        2.0000           -0.4087600             -11.1229
       127        2.0000           -0.4086978             -11.1212
       128        2.0000           -0.4072507             -11.0819
       129        2.0000           -0.4068235             -11.0702
       130        2.0000           -0.4044221             -11.0049
       131        2.0000           -0.4002655             -10.8918
       132        2.0000           -0.3828829             -10.4188
       133        2.0000           -0.3793018             -10.3213
       134        2.0000           -0.3714506             -10.1077
       135        1.9998           -0.3565559              -9.7024
       136        1.8335           -0.3501695              -9.5286
       137        1.1667           -0.3471108              -9.4454
       138        1.0000           -0.3015876              -8.2066 (HOMO)
       139                         -0.2612435              -7.1088 (LUMO)
       140                         -0.2534368              -6.8964
       141                         -0.2351669              -6.3992
       142                         -0.2351047              -6.3975
       143                         -0.2338854              -6.3643
       144                         -0.2306603              -6.2766
       145                         -0.2306328              -6.2758
       146                         -0.2256942              -6.1415
       147                         -0.2255934              -6.1387
       148                         -0.2231246              -6.0715
       149                         -0.2230354              -6.0691
       ...                                ...                  ...
       276                          0.7443533              20.2549
      -------------------------------------------------------------
                  HL-Gap            0.0403441 Eh            1.0978 eV

     #   Z          covCN         q      C6AA      α(0)
     1   6 C        2.919    -0.035    28.867     8.811
     2   6 C        2.919    -0.028    28.700     8.785
     3   6 C        2.922    -0.044    29.100     8.846
     4   6 C        2.924     0.064    26.561     8.452
     5   7 N        2.752    -0.055    22.300     7.014
     6   6 C        2.925     0.064    26.560     8.452
     7   6 C        2.921    -0.043    29.075     8.842
     8   6 C        2.919    -0.027    28.684     8.783
     9   6 C        2.919    -0.035    28.861     8.810
    10   6 C        2.919    -0.028    28.708     8.786
    11   6 C        2.922    -0.045    29.113     8.848
    12   6 C        2.924     0.064    26.570     8.453
    13   6 C        2.919    -0.046    29.154     8.854
    14   6 C        2.924    -0.035    28.878     8.813
    15   6 C        2.974     0.014    27.697     8.633
    16   6 C        2.974    -0.020    28.511     8.759
    17   6 C        2.917    -0.048    29.188     8.859
    18   6 C        2.917    -0.048    29.188     8.859
    19   6 C        2.974    -0.020    28.511     8.759
    20   6 C        2.974     0.014    27.697     8.633
    21   6 C        2.923    -0.027    28.684     8.783
    22   6 C        2.919    -0.045    29.123     8.850
    23   6 C        2.924     0.064    26.570     8.453
    24   7 N        2.752    -0.055    22.300     7.014
    25   6 C        2.925     0.064    26.561     8.452
    26   6 C        2.922    -0.044    29.097     8.846
    27   6 C        2.919    -0.028    28.699     8.785
    28   6 C        2.919    -0.035    28.865     8.810
    29   6 C        2.919    -0.028    28.701     8.785
    30   6 C        2.922    -0.044    29.099     8.846
    31   6 C        2.925     0.064    26.560     8.452
    32   6 C        2.922    -0.045    29.114     8.848
    33   6 C        2.919    -0.028    28.709     8.786
    34   6 C        2.919    -0.035    28.862     8.810
    35   6 C        2.919    -0.027    28.685     8.783
    36   6 C        2.921    -0.043    29.077     8.843
    37   6 C        2.919    -0.046    29.155     8.854
    38   6 C        2.924    -0.035    28.878     8.813
    39   6 C        2.944     0.085    26.117     8.382
    40   7 N        1.848    -0.269    27.829     7.818
    41   6 C        2.963     0.080    26.224     8.400
    42   6 C        2.962     0.079    26.224     8.400
    43   7 N        1.848    -0.269    27.827     7.818
    44   6 C        2.944     0.085    26.117     8.382
    45   6 C        3.006    -0.003    28.079     8.692
    46  16 S        2.254    -0.059   143.521    20.163
    47   6 C        2.937    -0.016    28.417     8.743
    48   6 C        3.073    -0.049    29.132     8.850
    49   6 C        3.141    -0.017    28.184     8.688
    50   6 C        3.141    -0.017    28.184     8.688
    51   6 C        3.073    -0.049    29.132     8.850
    52   6 C        2.937    -0.016    28.417     8.743
    53  16 S        2.254    -0.059   143.519    20.163
    54   6 C        3.006    -0.003    28.078     8.692
    55   6 C        2.923    -0.027    28.686     8.783
    56   6 C        2.919    -0.045    29.122     8.849
    57   6 C        2.922    -0.044    29.102     8.847
    58   6 C        2.919    -0.028    28.701     8.785
    59   1 H        0.926     0.038     2.478     2.461
    60   1 H        0.926     0.039     2.458     2.452
    61   1 H        0.926     0.038     2.479     2.462
    62   1 H        0.926     0.037     2.491     2.468
    63   1 H        0.926     0.038     2.471     2.458
    64   1 H        0.926     0.038     2.481     2.463
    65   1 H        0.926     0.039     2.457     2.451
    66   1 H        0.926     0.038     2.475     2.460
    67   1 H        0.926     0.041     2.437     2.441
    68   1 H        0.926     0.041     2.439     2.442
    69   1 H        0.926     0.038     2.474     2.459
    70   1 H        0.926     0.038     2.474     2.460
    71   1 H        0.926     0.043     2.403     2.424
    72   1 H        0.926     0.039     2.469     2.457
    73   1 H        0.926     0.038     2.478     2.462
    74   1 H        0.926     0.039     2.457     2.451
    75   1 H        0.926     0.038     2.476     2.461
    76   1 H        0.926     0.039     2.462     2.454
    77   1 H        0.926     0.037     2.485     2.465
    78   1 H        0.926     0.038     2.476     2.461
    79   1 H        0.926     0.039     2.458     2.451
    80   1 H        0.926     0.038     2.482     2.464
    81   1 H        0.926     0.038     2.471     2.458
    82   1 H        0.926     0.037     2.490     2.468
    83   1 H        0.926     0.041     2.438     2.442
    84   1 H        0.926     0.041     2.440     2.443
    85   1 H        0.926     0.051     2.303     2.373
    86   1 H        0.926     0.043     2.405     2.425
    87   1 H        0.926     0.043     2.405     2.425
    88   1 H        0.926     0.051     2.303     2.373
    89   1 H        0.926     0.044     2.400     2.423
    90   1 H        0.926     0.038     2.469     2.457
    91   1 H        0.926     0.037     2.486     2.466
    92   1 H        0.926     0.039     2.463     2.454

molecular dipole:
                 x           y           z       tot (Debye)
 q only:        0.006       1.551       0.016
   full:        0.005       1.246       0.015       3.168

 projected vibrational frequencies (cm⁻¹)
eigval :       -0.00    -0.00    -0.00     0.00     0.00     0.00
eigval :       10.32    11.16    12.81    14.42    14.92    20.53
eigval :       40.01    43.51    47.08    48.13    49.33    56.61
eigval :       60.95    64.64    68.76    73.60    80.99    91.51
eigval :       94.49   104.16   107.40   116.14   125.55   134.00
eigval :      153.20   169.60   174.48   182.30   190.97   204.36
eigval :      225.53   232.73   233.82   236.57   252.01   279.23
eigval :      282.07   305.29   314.13   318.73   332.44   333.91
eigval :      343.38   346.95   355.74   360.61   377.63   377.85
eigval :      378.79   379.10   385.81   386.33   388.82   411.82
eigval :      416.20   419.95   423.04   427.98   430.80   458.75
eigval :      479.20   483.42   487.22   489.65   501.79   510.46
eigval :      512.57   536.40   548.59   567.91   574.46   576.54
eigval :      579.34   584.89   585.58   586.62   589.60   590.56
eigval :      593.52   598.31   610.59   618.24   624.76   640.50
eigval :      650.50   653.59   660.02   660.36   663.06   666.91
eigval :      669.13   681.87   687.96   690.75   707.24   728.07
eigval :      734.21   735.04   748.29   752.76   756.64   756.90
eigval :      760.29   760.78   800.65   806.26   809.79   823.36
eigval :      825.08   829.74   831.75   854.41   855.21   862.07
eigval :      872.05   872.38   873.16   873.91   890.07   894.14
eigval :      895.13   895.66   896.11   898.98   902.28   908.22
eigval :      908.38   909.94   910.11   919.02   919.21   926.29
eigval :      926.46   928.93   929.18   929.30   929.54   930.89
eigval :      931.17   939.84   943.49   948.48   984.45   984.80
eigval :     1003.05  1003.13  1013.59  1019.16  1033.30  1070.01
eigval :     1080.49  1080.68  1081.60  1081.71  1093.86  1119.89
eigval :     1120.55  1120.85  1122.60  1122.81  1138.89  1144.16
eigval :     1147.61  1154.14  1177.04  1177.17  1178.83  1178.92
eigval :     1180.82  1181.75  1191.93  1192.31  1192.62  1195.97
eigval :     1207.75  1210.96  1215.44  1227.89  1239.90  1264.21
eigval :     1268.31  1273.66  1274.26  1275.53  1276.94  1279.08
eigval :     1280.19  1284.33  1298.03  1298.09  1301.27  1305.03
eigval :     1314.25  1314.73  1317.72  1320.57  1323.84  1324.15
eigval :     1325.97  1329.77  1343.62  1360.33  1368.38  1387.06
eigval :     1413.31  1416.44  1426.10  1432.48  1432.66  1438.66
eigval :     1439.05  1462.37  1463.30  1464.19  1464.33  1466.86
eigval :     1469.23  1472.49  1483.94  1494.27  1496.49  1501.94
eigval :     1523.98  1533.24  1534.47  1537.03  1571.74  1571.77
eigval :     1574.96  1575.53  1578.72  1583.00  1585.29  1585.31
eigval :     1592.43  1593.38  3075.77  3075.77  3076.18  3076.24
eigval :     3077.22  3077.34  3077.78  3077.89  3077.96  3078.27
eigval :     3080.88  3083.81  3083.85  3085.76  3085.81  3086.63
eigval :     3086.69  3088.97  3089.04  3089.96  3090.02  3090.14
eigval :     3090.62  3093.53  3096.11  3096.74  3096.81  3097.23
eigval :     3103.08  3103.33  3127.51  3130.66  3156.19  3156.39

   temp. (K)  partition function   enthalpy   heat capacity  entropy
                                   cal/mol     cal/K/mol   cal/K/mol   J/K/mol
 298.15  VIB  0.305E+23            27794.947    173.652    175.118
         ROT  0.100E+09              888.752      2.981     39.595
         INT  0.306E+31            28683.699    176.633    214.712
         TR   0.210E+29             1481.254      4.968     45.816
         TOT                       30164.9532   181.6014   260.5287  1090.0522

       T/K    H(0)-H(T)+PV         H(T)/Eh          T*S/Eh         G(T)/Eh
   ------------------------------------------------------------------------
    298.15    0.480709E-01    0.736298E+00    0.123786E+00    0.612512E+00
   ------------------------------------------------------------------------

         :::::::::::::::::::::::::::::::::::::::::::::::::::::
         ::                  THERMODYNAMIC                  ::
         :::::::::::::::::::::::::::::::::::::::::::::::::::::
         :: total free energy        -146.322962512453 Eh   ::
         ::.................................................::
         :: total energy             -146.935474841383 Eh   ::
         :: zero point energy           0.688227019220 Eh   ::
         :: G(RRHO) w/o ZPVE           -0.075714690289 Eh   ::
         :: G(RRHO) contrib.            0.612512328930 Eh   ::
         :::::::::::::::::::::::::::::::::::::::::::::::::::::

           -------------------------------------------------
          | TOTAL ENERGY             -146.935474841383 Eh   |
          | TOTAL ENTHALPY           -146.199176909343 Eh   |
          | TOTAL FREE ENERGY        -146.322962512453 Eh   |
          | GRADIENT NORM               0.000052678705 Eh/α |
          | HOMO-LUMO GAP               1.097819252819 eV   |
           -------------------------------------------------

 * finished run on 2025/09/11 at 08:06:15.136
