   * xtb version 6.7.1 (edcfbbe) compiled by 'albert@albert-system' on 2024-07-22

   ID    Z sym.   atoms
    1    6 C      1-4, 6-20, 22-25, 27-40, 42-51, 53-61
    2    7 N      5, 21, 26, 41, 52
    3    1 H      62-94

          program call               : xtb data2507/gas/β-DI-DBP/β-DI-DBP_gas_S0_finalOpt.xtbopt.xyz --gfn 2 --spinpol --tblite --uhf 2 --ohess vtight --parallel 40 --molden --ceasefiles --namespace data2507/gas/β-DI-DBP/β-DI-DBP_gas_T1_preOpt
 * total energy  :  -151.4613865 Eh     change        0.1404277E-07 Eh
 * total energy  :  -151.4647203 Eh     change       -0.3333800E-02 Eh
 * total energy  :  -151.4658500 Eh     change       -0.1129730E-02 Eh
 * total energy  :  -151.4659992 Eh     change       -0.1491381E-03 Eh
 * total energy  :  -151.4660604 Eh     change       -0.6121529E-04 Eh
 * total energy  :  -151.4660671 Eh     change       -0.6715468E-05 Eh
 * total energy  :  -151.4660713 Eh     change       -0.4159019E-05 Eh
 * total energy  :  -151.4660757 Eh     change       -0.4436164E-05 Eh
 * total energy  :  -151.4660800 Eh     change       -0.4316366E-05 Eh
 * total energy  :  -151.4660840 Eh     change       -0.4016950E-05 Eh
 * total energy  :  -151.4661202 Eh     change       -0.8628287E-06 Eh
 * total energy  :  -151.4661211 Eh     change       -0.9193820E-06 Eh
 * total energy  :  -151.4661218 Eh     change       -0.6470765E-06 Eh
 * total energy  :  -151.4661225 Eh     change       -0.7097420E-06 Eh
 * total energy  :  -151.4661232 Eh     change       -0.7127118E-06 Eh
 * total energy  :  -151.4661242 Eh     change       -0.9765873E-06 Eh
 * total energy  :  -151.4661249 Eh     change       -0.6661145E-06 Eh
 * total energy  :  -151.4661251 Eh     change       -0.2628851E-06 Eh
 * total energy  :  -151.4661251 Eh     change       -0.8984102E-08 Eh
   *** GEOMETRY OPTIMIZATION CONVERGED AFTER 44 ITERATIONS ***

 final structure:
================
94
 xtb: 6.7.1 (edcfbbe)
C           -5.84067651714847       -5.37790333354784        0.86029044517141
C           -5.02582653810870       -4.58252237901512        1.64935153337313
C           -4.72942794121094       -3.28972229694323        1.26177772761082
C           -5.24085646055317       -2.78870669772371        0.06757549220724
N           -4.95748910902404       -1.46690559387770       -0.30856893944749
C           -5.93161909663906       -0.50280537576372       -0.48300835202214
C           -7.30408598278735       -0.65993570891226       -0.59785465394906
C           -8.06691177813960        0.46591862184734       -0.83993609346010
C           -7.47044088449867        1.71439968336601       -0.98884720818391
C           -6.10948989935232        1.88149526603477       -0.83166207148505
C           -5.32407354239031        0.77474837073754       -0.52027960911134
C           -3.92356082119148        0.56205366891537       -0.27603122758977
C           -3.73110360911843       -0.84099717632358       -0.23726801060248
C           -2.44132302544728       -1.39458901564208       -0.26154064367436
C           -1.89582321813780       -2.70736541252536       -0.48932707544095
C           -2.42674540366776       -3.95901623965885       -0.79058434797854
C           -1.57121977908664       -5.01965127707399       -1.01112829998594
C           -0.18974975975843       -4.85842534085646       -0.97037206231750
C            0.36832143238836       -3.62033852741982       -0.72301502466000
C           -0.48844927831675       -2.55763557287837       -0.48022081125397
N           -0.16941555182303       -1.23090012558953       -0.27265592431782
C            1.10538586006434       -0.70510835432780       -0.53762569997017
C            1.26449577379600        0.24480968850544       -1.54347963427217
C            2.51665566732798        0.75539987268781       -1.82492662554293
C            3.64379209811012        0.32680651535967       -1.12769073830308
N            4.86542487804551        0.79264539792102       -1.36796975722570
C            5.93397603948919        0.38025730481786       -0.69906880997623
C            7.23572780003310        0.89286327140263       -0.98746461173827
C            7.37870400065623        1.85367532995855       -2.00247854278967
C            8.60988679580258        2.37036867311458       -2.31037816741809
C            9.73467033802642        1.93732585278383       -1.60752477738529
C            9.61307098792143        0.99860326437763       -0.61148886293536
C            8.36930898377048        0.44732376290685       -0.26905020145225
C            8.20605974068306       -0.54142317989206        0.77113795988554
C            9.27703655014834       -1.03584187656291        1.53049774498880
C            9.08868797091403       -1.97772518941909        2.51308946089719
C            7.81160171672338       -2.47082591401958        2.78248819611476
C            6.74190721838037       -2.01022976401978        2.06066668169004
C            6.91583873706421       -1.04772946665763        1.05193319829851
C            5.77345260324563       -0.59604513646798        0.32286440315314
N            4.56223139810599       -1.07610618973648        0.57265813143448
C            3.48125526277457       -0.67375084583492       -0.09139816176908
C            2.20806673431866       -1.16116418265675        0.17847963272679
C           -1.33590218425887       -0.51586039691198       -0.14658428805286
C           -1.51402139661239        0.85543602865753        0.09706786615028
C           -0.65315208979682        1.94673739479011        0.46524820469094
C            0.67817572442597        2.06227857036698        0.85810778373803
C            1.17258926048693        3.30414082906295        1.20070674240940
C            0.36051698605953        4.43459288841453        1.19467934063281
C           -0.97809245962828        4.34155150455882        0.86970131978915
C           -1.47309530314988        3.09839213326942        0.50704572610112
N           -2.77650434522246        2.74520377767783        0.21389756194321
C           -3.86116906298357        3.58942255511598        0.50918608034110
C           -4.00003950074077        4.80277535863910       -0.15610610997482
C           -5.05038982750277        5.64473959600711        0.16264271283776
C           -5.96225368512718        5.28319781362470        1.14041158841838
C           -5.82076322788996        4.07671084715253        1.80598556726010
C           -4.77126729250509        3.23160654595372        1.49895849691526
C           -2.82077028102445        1.38794483597339       -0.00939602865235
C           -6.05540678790054       -3.58929601198277       -0.72747450551147
C           -6.35313168064491       -4.87917006682342       -0.32589861897774
H           -6.07290495338639       -6.38650657785813        1.16694440975915
H           -4.62305966593349       -4.96924113501123        2.57334473819133
H           -4.09595873214446       -2.66271893368850        1.87101117308857
H           -7.76599027794458       -1.63077430511633       -0.50434290427874
H           -9.13802503266252        0.37100375190836       -0.93825955826832
H           -8.08405365911245        2.56983306355781       -1.22920235800606
H           -5.67058071516688        2.85390110001989       -0.97697453533690
H           -3.48787514676597       -4.11186641622561       -0.87648566478040
H           -1.98463165095449       -5.99181624927735       -1.23550535048296
H            0.45311774074966       -5.70576526750814       -1.15619529258825
H            1.43813217915962       -3.48030936876154       -0.73748206912147
H            0.40259471289279        0.58209154998133       -2.09743483286720
H            2.64856324848483        1.49394428348484       -2.59933391276404
H            6.49025747311852        2.16931776718864       -2.52808683517707
H            8.71232243971519        3.10848602758191       -3.09189919603602
H           10.70660343769173        2.34259632334727       -1.84804188015103
H           10.50239878332614        0.68582265453220       -0.08788078177801
H           10.27696113231405       -0.67571098131546        1.34789189492695
H            9.93401775713852       -2.33878133052057        3.08035622967871
H            7.67037963286601       -3.21114358939807        3.55585682450418
H            5.74222314581555       -2.37261262581490        2.24626553804887
H            2.08604542581096       -1.87790677482092        0.97531650778712
H            1.31701808480249        1.19903620795962        0.92714229480581
H            2.20739874063170        3.39742505747068        1.49504063157004
H            0.77573021340308        5.39154034001315        1.47350750374197
H           -1.62292538957727        5.20595252320925        0.91713282991674
H           -3.29551034907941        5.06922197063463       -0.93016572261940
H           -5.15993711125252        6.58392120529253       -0.35926541335444
H           -6.78239946524609        5.94178556969896        1.38331342736155
H           -6.52842344609025        3.79400603239317        2.57069349755576
H           -4.65062757770640        2.29185958987346        2.01631132559967
H           -6.42667595272464       -3.20670819924177       -1.66636057943354
H           -6.98099820659699       -5.50014741321153       -0.94764924536823

 projected vibrational frequencies (cm⁻¹)
eigval :       -0.00    -0.00    -0.00     0.00     0.00     0.00
eigval :       11.98    12.45    13.30    24.56    27.59    44.85
eigval :       47.27    50.13    52.56    61.85    65.40    71.08
eigval :       79.29    82.03    83.80    94.22   109.28   113.06
eigval :      119.84   127.02   143.76   151.23   161.46   164.72
eigval :      187.39   198.35   203.16   217.87   223.62   225.96
eigval :      233.14   240.64   253.55   256.30   270.06   273.32
eigval :      287.63   302.87   338.43   344.86   352.11   361.40
eigval :      373.77   378.58   379.68   382.88   389.67   391.75
eigval :      399.97   402.77   403.71   408.38   412.64   419.38
eigval :      435.98   444.78   447.25   450.29   457.01   469.84
eigval :      481.15   519.14   524.53   527.63   533.35   540.10
eigval :      543.63   553.05   555.04   557.32   569.71   575.24
eigval :      581.36   585.30   588.61   590.90   592.96   596.15
eigval :      606.17   613.18   623.02   624.75   627.56   648.24
eigval :      651.20   660.79   670.03   671.51   672.42   674.51
eigval :      677.03   697.98   698.75   700.74   702.58   719.98
eigval :      722.72   730.43   750.11   760.28   764.62   764.67
eigval :      767.60   772.14   774.31   776.35   778.28   798.62
eigval :      815.87   831.82   838.65   844.33   850.76   863.80
eigval :      868.41   868.70   869.87   873.54   875.05   877.56
eigval :      879.76   880.00   899.54   901.01   902.25   905.19
eigval :      907.91   908.13   912.22   912.74   917.20   920.76
eigval :      920.89   922.11   922.24   922.42   923.80   928.59
eigval :      928.83   933.07   934.78   978.67   986.70   997.17
eigval :     1009.29  1015.63  1057.75  1077.77  1078.70  1079.15
eigval :     1079.73  1082.45  1084.48  1089.41  1091.53  1098.68
eigval :     1116.55  1117.39  1132.38  1140.23  1144.48  1145.48
eigval :     1149.13  1150.95  1175.27  1176.33  1179.82  1180.17
eigval :     1180.68  1180.77  1182.91  1184.74  1190.25  1195.33
eigval :     1211.94  1214.56  1220.66  1223.24  1237.38  1241.41
eigval :     1243.89  1244.82  1255.45  1257.19  1268.67  1272.30
eigval :     1273.83  1283.33  1287.02  1293.98  1299.96  1305.83
eigval :     1315.44  1315.92  1317.30  1330.32  1330.95  1336.12
eigval :     1345.01  1351.09  1351.96  1357.89  1360.98  1366.24
eigval :     1385.69  1386.34  1388.01  1394.17  1410.91  1419.10
eigval :     1425.54  1426.65  1429.16  1431.03  1436.29  1436.51
eigval :     1444.03  1465.43  1471.06  1472.24  1474.39  1480.28
eigval :     1480.79  1483.03  1490.26  1517.84  1535.36  1536.77
eigval :     1540.86  1541.21  1552.46  1580.25  1581.32  1583.09
eigval :     1584.20  1584.68  1584.95  1593.63  1593.91  1594.50
eigval :     1597.74  1599.71  1600.20  3075.69  3076.25  3078.10
eigval :     3078.19  3078.24  3079.25  3080.07  3083.32  3083.65
eigval :     3084.35  3085.27  3085.48  3086.56  3087.36  3090.28
eigval :     3091.96  3094.49  3094.91  3095.23  3095.64  3096.46
eigval :     3096.57  3097.08  3097.44  3098.19  3100.64  3100.84
eigval :     3101.11  3106.80  3108.44  3127.92  3136.58  3149.37

   temp. (K)  partition function   enthalpy   heat capacity  entropy
                                   cal/mol     cal/K/mol   cal/K/mol   J/K/mol
 298.15  VIB  0.400E+20            26641.466    174.363    163.662
         ROT  0.158E+09              888.752      2.981     40.494
         INT  0.631E+28            27530.218    177.344    204.156
         TR   0.209E+29             1481.254      4.968     45.804
         TOT                       29011.4720   182.3119   249.9608  1045.8360

       T/K    H(0)-H(T)+PV         H(T)/Eh          T*S/Eh         G(T)/Eh
   ------------------------------------------------------------------------
    298.15    0.462327E-01    0.754308E+00    0.118764E+00    0.635544E+00
   ------------------------------------------------------------------------

         :::::::::::::::::::::::::::::::::::::::::::::::::::::
         ::                  THERMODYNAMIC                  ::
         :::::::::::::::::::::::::::::::::::::::::::::::::::::
         :: total free energy        -150.830581401427 Eh   ::
         ::.................................................::
         :: total energy             -151.466125127646 Eh   ::
         :: zero point energy           0.708075447515 Eh   ::
         :: G(RRHO) w/o ZPVE           -0.072531721295 Eh   ::
         :: G(RRHO) contrib.            0.635543726219 Eh   ::
         :::::::::::::::::::::::::::::::::::::::::::::::::::::

           -------------------------------------------------
          | TOTAL ENERGY             -151.466125127646 Eh   |
          | TOTAL ENTHALPY           -150.711816956607 Eh   |
          | TOTAL FREE ENERGY        -150.830581401427 Eh   |
          | GRADIENT NORM               0.000036963418 Eh/α |
           -------------------------------------------------

 * finished run on 2025/08/24 at 08:16:04.326
