   * xtb version 6.7.1 (edcfbbe) compiled by 'albert@albert-system' on 2024-07-22

   ID    Z sym.   atoms
    1    6 C      1-4, 6-20, 22-25, 27-40, 42-51, 53-61
    2    7 N      5, 21, 26, 41, 52
    3    1 H      62-94

          program call               : xtb data2507/gas/β-DI-DBP/β-DI-DBP.xyz --gfn 2 --ohess vtight --parallel 40 --molden --ceasefiles --namespace data2507/gas/β-DI-DBP/β-DI-DBP_gas_S0_preOpt
          :  Hamiltonian                  GFN2-xTB          :
 * total energy  :  -151.4659343 Eh     change       -0.5703896E-08 Eh
 * total energy  :  -151.4960149 Eh     change       -0.3008067E-01 Eh
 * total energy  :  -151.5035719 Eh     change       -0.7556973E-02 Eh
 * total energy  :  -151.5056155 Eh     change       -0.2043574E-02 Eh
 * total energy  :  -151.5069891 Eh     change       -0.1373645E-02 Eh
 * total energy  :  -151.5075774 Eh     change       -0.5883085E-03 Eh
 * total energy  :  -151.5079293 Eh     change       -0.3518251E-03 Eh
 * total energy  :  -151.5081775 Eh     change       -0.2482300E-03 Eh
 * total energy  :  -151.5083530 Eh     change       -0.1755288E-03 Eh
 * total energy  :  -151.5085053 Eh     change       -0.1522589E-03 Eh
 * total energy  :  -151.5096105 Eh     change       -0.5504296E-06 Eh
 * total energy  :  -151.5096110 Eh     change       -0.4952853E-06 Eh
 * total energy  :  -151.5096115 Eh     change       -0.4639492E-06 Eh
 * total energy  :  -151.5096119 Eh     change       -0.4592974E-06 Eh
 * total energy  :  -151.5096124 Eh     change       -0.4795449E-06 Eh
 * total energy  :  -151.5096129 Eh     change       -0.5088484E-06 Eh
 * total energy  :  -151.5096134 Eh     change       -0.5405615E-06 Eh
 * total energy  :  -151.5096140 Eh     change       -0.5691737E-06 Eh
 * total energy  :  -151.5096140 Eh     change       -0.2760402E-08 Eh
   *** GEOMETRY OPTIMIZATION CONVERGED AFTER 68 ITERATIONS ***

 final structure:
================
94
 xtb: 6.7.1 (edcfbbe)
C           -5.75938085196306       -5.41819122703366        0.58278003447613
C           -4.98387559116992       -4.64187965377692        1.42845149615977
C           -4.66705879691257       -3.34164811623990        1.08428923518526
C           -5.11782632936214       -2.81355800970484       -0.12266109813706
N           -4.81710356147245       -1.48397995429566       -0.45482906293404
C           -5.78395550068116       -0.51592631176700       -0.64757677974092
C           -7.14925011440501       -0.67049754641312       -0.83249767114788
C           -7.90160061365806        0.46102790990153       -1.07919364917070
C           -7.30135470683301        1.71373177973975       -1.16396991702948
C           -5.94998617887848        1.87700739663163       -0.93712632878562
C           -5.17843940899479        0.76223667855856       -0.62045970578200
C           -3.78976704986774        0.54356804303918       -0.31890393108804
C           -3.59613904642773       -0.85853983715704       -0.30949647867940
C           -2.30389223644068       -1.40903134262406       -0.29211974025928
C           -1.74403689085343       -2.71643949984891       -0.52303906557547
C           -2.26218941885926       -3.96114681959318       -0.87029943699516
C           -1.39922754319256       -5.01826344678020       -1.07793779573364
C           -0.02122725965880       -4.85753491851616       -0.98109854962788
C            0.52583327578525       -3.62473200141613       -0.68534306401662
C           -0.33897894205541       -2.56715051283771       -0.45232269330650
N           -0.03114631332437       -1.24007563609552       -0.20933777221714
C            1.23727696554748       -0.69853636503078       -0.44535056881585
C            1.36768958023949        0.32514749280761       -1.41741362706818
C            2.58525837535029        0.85890048056200       -1.71046240168418
C            3.74176551475040        0.38809848071937       -1.04950371682800
N            4.93898150130049        0.90874601220026       -1.34208653636800
C            5.99447022881332        0.43767091058527       -0.70294588927324
C            7.29942229062724        0.98038646011874       -1.00835279611879
C            7.41205562266246        1.99013418357516       -1.96824648736583
C            8.63880892057784        2.52414384964965       -2.28564525857190
C            9.77622543408863        2.05039901360590       -1.64160187869173
C            9.67869484982920        1.05628243353399       -0.69262410037579
C            8.44441957487663        0.49330675883850       -0.34729636511778
C            8.31416515365611       -0.55762685703889        0.65286548105627
C            9.41343960079023       -1.07957491338889        1.34490384909102
C            9.26516970213576       -2.07384176676559        2.28713045307522
C            8.00664328207734       -2.58850817524676        2.57694622030724
C            6.90757112754026       -2.09591674696112        1.91337561305967
C            7.04419710856647       -1.08760987017469        0.95521867014908
C            5.86687119124267       -0.59505401790418        0.27444172240813
N            4.69138271651598       -1.11776207122282        0.56959964758627
C            3.61400648697126       -0.64857827059079       -0.07654485949658
C            2.34187460999364       -1.17874428349435        0.21345198046766
C           -1.21011587484901       -0.53126129587961       -0.11519185187479
C           -1.40028455612461        0.83143822674990        0.15977805268929
C           -0.55759733692662        1.91243558676168        0.59598660996301
C            0.75687577642852        2.01678053804709        1.04396368823190
C            1.23339683490102        3.24657017248858        1.44948450241921
C            0.41799672301919        4.37449585075713        1.45069636519287
C           -0.90595439417781        4.29041764438021        1.06878021752460
C           -1.38250201915209        3.05991995608767        0.64342441047778
N           -2.67179853015612        2.71423056373301        0.28576610640305
C           -3.77184709492564        3.54367818854589        0.56473129957665
C           -3.88709364707801        4.78095271315451       -0.05981585261271
C           -4.95542195346884        5.60627836487312        0.24209710324443
C           -5.90923803234987        5.20438008583729        1.16236333871911
C           -5.79156637578685        3.97403631584816        1.78760667213611
C           -4.72435183100264        3.14536144769127        1.49753104098230
C           -2.70257417306140        1.36401289084892        0.01823972884622
C           -5.89231224389687       -3.59528962934301       -0.97456985269074
C           -6.21115352086453       -4.89287697813950       -0.61651996735280
H           -6.00823688840869       -6.43252806427946        0.85576421175418
H           -4.62840029632682       -5.04935650117548        2.36292034198781
H           -4.06392182879632       -2.72933455369116        1.73770369706066
H           -7.61328191550903       -1.64389591214258       -0.78875263118947
H           -8.96661213849419        0.36825427310822       -1.23168955910781
H           -7.90458213333903        2.57520009551206       -1.40928585792199
H           -5.50622009730116        2.85342742083947       -1.03325067742947
H           -3.31906264785130       -4.11049664411727       -1.00140914264187
H           -1.80346387628132       -5.98565546263255       -1.33691022093091
H            0.62996290616643       -5.70006518568553       -1.15966181295143
H            1.59577857881556       -3.48847363338205       -0.65813303798375
H            0.47826768147735        0.66764315326259       -1.92423078421637
H            2.70045901399757        1.63709820470119       -2.44826477811537
H            6.50788224349765        2.33160113305568       -2.44714900782342
H            8.72095023640366        3.30377078858814       -3.02816017095087
H           10.74450649732490        2.46301466284934       -1.88514688491303
H           10.58316150760109        0.71514071027652       -0.21491646165067
H           10.40546311869051       -0.70581120207560        1.14795621377490
H           10.13470278842773       -2.45447150232095        2.80305135382751
H            7.89615543106163       -3.36753386917911        3.31639041032823
H            5.91556815900788       -2.47030648164042        2.11134414962373
H            2.26071465697684       -1.94004293505397        0.97349707091546
H            1.39559857402718        1.15232847572332        1.10825040151290
H            2.25538224021021        3.33158112341402        1.78803168126177
H            0.81838262137496        5.32172951658413        1.77992329189657
H           -1.55490264767344        5.15147343059227        1.12083292660427
H           -3.14972776000533        5.07931226245502       -0.79046949969578
H           -5.04628351682913        6.56413859326502       -0.24861902730079
H           -6.74357461320664        5.84993772810146        1.39165894900357
H           -6.53214732625203        3.65952123834356        2.50744513423540
H           -4.62257861721354        2.18705320494007        1.98393343764979
H           -6.21619373748364       -3.19137022983930       -1.92204376846658
H           -6.80799272352786       -5.49888819299551       -1.28212673703955

          :  Hamiltonian                  GFN2-xTB          :
         :: gradient norm              0.000043372171 Eh/a0 ::
         :: HOMO-LUMO gap              1.315497919811 eV    ::
         :: SCC energy              -154.338299767238 Eh    ::
         :: -> dispersion             -0.152804300009 Eh    ::
         :: repulsion energy           2.828685746255 Eh    ::

    * Orbital Energies and Occupations

         #    Occupation            Energy/Eh            Energy/eV
      -------------------------------------------------------------
         1        2.0000           -0.6744677             -18.3532
       ...           ...                  ...                  ...
       129        2.0000           -0.4072610             -11.0821
       130        2.0000           -0.4049566             -11.0194
       131        2.0000           -0.4025589             -10.9542
       132        2.0000           -0.3990967             -10.8600
       133        2.0000           -0.3915151             -10.6537
       134        2.0000           -0.3901217             -10.6158
       135        2.0000           -0.3877099             -10.5501
       136        2.0000           -0.3867310             -10.5235
       137        2.0000           -0.3857683             -10.4973
       138        2.0000           -0.3680724             -10.0158
       139        2.0000           -0.3491664              -9.5013
       140        2.0000           -0.3485610              -9.4848
       141        2.0000           -0.3467274              -9.4349 (HOMO)
       142                         -0.2983838              -8.1194 (LUMO)
       143                         -0.2637575              -7.1772
       144                         -0.2515711              -6.8456
       145                         -0.2434474              -6.6245
       146                         -0.2415220              -6.5721
       147                         -0.2320352              -6.3140
       148                         -0.2315630              -6.3012
       149                         -0.2304305              -6.2703
       150                         -0.2281633              -6.2086
       151                         -0.2226738              -6.0593
       152                         -0.2205304              -6.0009
       ...                                ...                  ...
       277                          0.7796335              21.2149
      -------------------------------------------------------------
                  HL-Gap            0.0483437 Eh            1.3155 eV

     #   Z          covCN         q      C6AA      α(0)
     1   6 C        2.919    -0.032    28.800     8.800
     2   6 C        2.920    -0.026    28.652     8.778
     3   6 C        2.922    -0.037    28.931     8.821
     4   6 C        2.916     0.070    26.444     8.433
     5   7 N        2.803    -0.043    22.077     6.978
     6   6 C        3.081     0.044    26.929     8.507
     7   6 C        2.911    -0.052    29.298     8.876
     8   6 C        2.924    -0.036    28.895     8.815
     9   6 C        2.920    -0.042    29.035     8.836
    10   6 C        2.914    -0.039    28.973     8.827
    11   6 C        3.062    -0.015    28.331     8.728
    12   6 C        3.056    -0.047    29.113     8.849
    13   6 C        3.064     0.041    27.010     8.522
    14   6 C        3.051    -0.047    29.106     8.848
    15   6 C        3.060    -0.014    28.298     8.723
    16   6 C        2.915    -0.041    29.021     8.834
    17   6 C        2.919    -0.041    29.012     8.833
    18   6 C        2.923    -0.035    28.874     8.812
    19   6 C        2.911    -0.052    29.282     8.873
    20   6 C        3.080     0.044    26.938     8.509
    21   7 N        2.802    -0.040    22.010     6.968
    22   6 C        2.913     0.072    26.398     8.425
    23   6 C        2.919    -0.035    28.863     8.810
    24   6 C        2.916    -0.038    28.935     8.821
    25   6 C        2.967     0.080    26.212     8.398
    26   7 N        1.848    -0.238    27.079     7.712
    27   6 C        2.962     0.082    26.172     8.391
    28   6 C        2.988    -0.001    28.045     8.687
    29   6 C        2.924    -0.027    28.679     8.782
    30   6 C        2.917    -0.029    28.713     8.787
    31   6 C        2.918    -0.027    28.687     8.783
    32   6 C        2.922    -0.034    28.842     8.807
    33   6 C        2.976     0.006    27.871     8.660
    34   6 C        2.976     0.007    27.861     8.658
    35   6 C        2.922    -0.034    28.842     8.807
    36   6 C        2.918    -0.027    28.680     8.782
    37   6 C        2.917    -0.029    28.716     8.787
    38   6 C        2.924    -0.027    28.672     8.781
    39   6 C        2.988    -0.001    28.050     8.688
    40   6 C        2.961     0.084    26.125     8.384
    41   7 N        1.849    -0.243    27.186     7.728
    42   6 C        2.966     0.082    26.174     8.392
    43   6 C        2.920    -0.058    29.436     8.897
    44   6 C        3.066     0.041    27.021     8.524
    45   6 C        3.057    -0.048    29.141     8.853
    46   6 C        3.060    -0.016    28.344     8.731
    47   6 C        2.914    -0.039    28.977     8.827
    48   6 C        2.919    -0.040    29.005     8.832
    49   6 C        2.924    -0.035    28.878     8.813
    50   6 C        2.911    -0.052    29.284     8.873
    51   6 C        3.086     0.044    26.922     8.506
    52   7 N        2.803    -0.045    22.100     6.982
    53   6 C        2.917     0.069    26.446     8.433
    54   6 C        2.922    -0.041    29.018     8.834
    55   6 C        2.920    -0.028    28.704     8.786
    56   6 C        2.920    -0.031    28.784     8.798
    57   6 C        2.920    -0.026    28.644     8.777
    58   6 C        2.922    -0.036    28.889     8.814
    59   6 C        3.065     0.042    26.998     8.520
    60   6 C        2.921    -0.042    29.038     8.837
    61   6 C        2.920    -0.028    28.704     8.786
    62   1 H        0.926     0.035     2.514     2.479
    63   1 H        0.926     0.037     2.491     2.468
    64   1 H        0.926     0.039     2.458     2.452
    65   1 H        0.926     0.027     2.629     2.535
    66   1 H        0.926     0.027     2.634     2.538
    67   1 H        0.926     0.024     2.671     2.556
    68   1 H        0.926     0.026     2.638     2.540
    69   1 H        0.926     0.029     2.604     2.523
    70   1 H        0.926     0.025     2.657     2.549
    71   1 H        0.926     0.028     2.611     2.527
    72   1 H        0.926     0.030     2.583     2.513
    73   1 H        0.926     0.048     2.347     2.396
    74   1 H        0.926     0.056     2.244     2.343
    75   1 H        0.926     0.059     2.210     2.325
    76   1 H        0.926     0.035     2.512     2.478
    77   1 H        0.926     0.034     2.535     2.490
    78   1 H        0.926     0.036     2.509     2.477
    79   1 H        0.926     0.036     2.507     2.476
    80   1 H        0.926     0.034     2.533     2.489
    81   1 H        0.926     0.036     2.509     2.477
    82   1 H        0.926     0.059     2.208     2.323
    83   1 H        0.926     0.059     2.212     2.326
    84   1 H        0.926     0.024     2.676     2.558
    85   1 H        0.926     0.025     2.662     2.551
    86   1 H        0.926     0.027     2.624     2.533
    87   1 H        0.926     0.026     2.639     2.541
    88   1 H        0.926     0.041     2.435     2.440
    89   1 H        0.926     0.036     2.502     2.474
    90   1 H        0.926     0.036     2.509     2.477
    91   1 H        0.926     0.037     2.493     2.469
    92   1 H        0.926     0.039     2.467     2.456
    93   1 H        0.926     0.042     2.426     2.436
    94   1 H        0.926     0.036     2.507     2.476

molecular dipole:
                 x           y           z       tot (Debye)
 q only:       -0.102       0.009       0.172
   full:       -0.102       0.014       0.191       0.552

 projected vibrational frequencies (cm⁻¹)
eigval :       -0.00     0.00     0.00     0.00     0.00     0.00
eigval :       11.27    12.44    13.45    24.51    27.17    44.87
eigval :       46.55    50.45    52.70    62.14    64.73    71.39
eigval :       78.40    79.80    83.33    94.52   102.56   114.56
eigval :      120.34   129.02   143.10   153.01   162.87   165.88
eigval :      195.74   201.68   206.53   220.30   224.79   226.74
eigval :      234.26   243.74   254.10   258.82   273.67   286.63
eigval :      293.50   306.75   340.88   347.77   351.88   362.68
eigval :      376.86   378.85   379.89   382.96   389.46   392.66
eigval :      399.48   400.14   403.29   407.68   412.67   428.62
eigval :      438.52   444.36   445.11   451.53   458.05   470.35
eigval :      481.63   519.79   529.52   534.34   537.59   543.48
eigval :      545.21   554.13   557.13   564.17   571.98   576.00
eigval :      581.72   586.89   590.25   593.14   593.84   600.33
eigval :      607.58   622.09   624.18   628.00   648.68   651.78
eigval :      666.12   669.88   670.81   674.98   681.70   683.59
eigval :      698.27   698.45   702.42   703.21   730.24   730.46
eigval :      734.63   750.95   762.57   764.75   767.44   768.32
eigval :      769.23   772.94   774.66   776.67   789.59   819.53
eigval :      835.71   844.46   845.05   852.96   864.91   868.87
eigval :      869.57   869.75   878.01   879.70   879.76   880.43
eigval :      885.83   899.45   900.97   903.21   904.99   908.06
eigval :      912.93   917.21   917.62   920.83   921.60   922.66
eigval :      922.98   924.12   928.59   928.91   928.99   929.52
eigval :      933.16   934.90   941.26   974.66   986.70   996.73
eigval :     1013.43  1023.70  1060.83  1074.93  1078.75  1079.15
eigval :     1079.96  1084.82  1084.90  1089.16  1092.56  1101.70
eigval :     1116.51  1117.18  1140.82  1143.35  1146.01  1148.35
eigval :     1149.32  1152.77  1177.45  1179.19  1180.92  1181.06
eigval :     1181.24  1181.54  1183.72  1184.62  1190.99  1193.82
eigval :     1212.10  1215.65  1216.03  1234.69  1244.14  1247.68
eigval :     1250.50  1252.92  1257.89  1273.76  1274.82  1286.23
eigval :     1289.06  1293.49  1295.44  1298.88  1306.96  1315.47
eigval :     1316.17  1318.31  1325.61  1331.85  1337.17  1339.90
eigval :     1347.89  1361.75  1366.32  1367.40  1369.74  1386.54
eigval :     1393.12  1396.67  1418.11  1426.70  1427.45  1429.66
eigval :     1432.40  1434.33  1436.37  1438.67  1440.31  1450.04
eigval :     1463.30  1474.82  1476.36  1479.65  1481.42  1481.53
eigval :     1484.86  1486.98  1504.14  1534.61  1556.52  1567.04
eigval :     1569.38  1569.71  1580.82  1582.10  1584.72  1587.56
eigval :     1589.96  1592.23  1594.52  1595.37  1597.51  1599.60
eigval :     1602.90  1605.00  1605.82  3076.05  3076.75  3077.28
eigval :     3077.58  3078.38  3078.78  3079.67  3083.04  3083.24
eigval :     3084.84  3085.71  3087.48  3087.74  3088.51  3090.04
eigval :     3091.77  3092.69  3094.54  3094.79  3095.14  3096.07
eigval :     3098.43  3099.33  3100.46  3100.61  3103.35  3106.03
eigval :     3109.32  3109.49  3110.23  3126.59  3128.99  3151.22

   temp. (K)  partition function   enthalpy   heat capacity  entropy
                                   cal/mol     cal/K/mol   cal/K/mol   J/K/mol
 298.15  VIB  0.364E+20            26468.594    173.107    162.780
         ROT  0.157E+09              888.752      2.981     40.488
         INT  0.573E+28            27357.346    176.087    203.267
         TR   0.209E+29             1481.254      4.968     45.804
         TOT                       28838.5999   181.0556   249.0715  1042.1154

       T/K    H(0)-H(T)+PV         H(T)/Eh          T*S/Eh         G(T)/Eh
   ------------------------------------------------------------------------
    298.15    0.459572E-01    0.756936E+00    0.118342E+00    0.638594E+00
   ------------------------------------------------------------------------

         :::::::::::::::::::::::::::::::::::::::::::::::::::::
         ::                  THERMODYNAMIC                  ::
         :::::::::::::::::::::::::::::::::::::::::::::::::::::
         :: total free energy        -150.871020409783 Eh   ::
         ::.................................................::
         :: total energy             -151.509614020982 Eh   ::
         :: zero point energy           0.710978307163 Eh   ::
         :: G(RRHO) w/o ZPVE           -0.072384695963 Eh   ::
         :: G(RRHO) contrib.            0.638593611200 Eh   ::
         :::::::::::::::::::::::::::::::::::::::::::::::::::::

           -------------------------------------------------
          | TOTAL ENERGY             -151.509614020982 Eh   |
          | TOTAL ENTHALPY           -150.752678479565 Eh   |
          | TOTAL FREE ENERGY        -150.871020409783 Eh   |
          | GRADIENT NORM               0.000043372250 Eh/α |
          | HOMO-LUMO GAP               1.315497909710 eV   |
           -------------------------------------------------

 * finished run on 2025/08/24 at 08:09:49.770
