   * xtb version 6.7.1 (edcfbbe) compiled by 'albert@albert-system' on 2024-07-22

   ID    Z sym.   atoms
    1    6 C      1-4, 6-20, 22-25, 27-40, 42-51, 53-61
    2    7 N      5, 21, 26, 41, 52
    3    1 H      62-94

          program call               : xtb data2507/gas/β-DI-DBP/β-DI-DBP_gas_T1_crest.xyz --gfn 2 --spinpol --tblite --uhf 2 --ohess vtight --parallel 40 --molden --ceasefiles --namespace data2507/gas/β-DI-DBP/β-DI-DBP_gas_T1_finalOpt
 * total energy  :  -151.4661113 Eh     change        0.3456506E-08 Eh
 * total energy  :  -151.4661335 Eh     change       -0.2218055E-04 Eh
 * total energy  :  -151.4661386 Eh     change       -0.5133865E-05 Eh
 * total energy  :  -151.4661401 Eh     change       -0.1495613E-05 Eh
 * total energy  :  -151.4661415 Eh     change       -0.1417492E-05 Eh
 * total energy  :  -151.4661429 Eh     change       -0.1372552E-05 Eh
 * total energy  :  -151.4661449 Eh     change       -0.1949278E-05 Eh
 * total energy  :  -151.4661476 Eh     change       -0.2739934E-05 Eh
 * total energy  :  -151.4661508 Eh     change       -0.3216151E-05 Eh
 * total energy  :  -151.4661543 Eh     change       -0.3531769E-05 Eh
 * total energy  :  -151.4661606 Eh     change       -0.2976954E-05 Eh
 * total energy  :  -151.4661630 Eh     change       -0.2444755E-05 Eh
 * total energy  :  -151.4661653 Eh     change       -0.2271726E-05 Eh
 * total energy  :  -151.4661669 Eh     change       -0.1605571E-05 Eh
 * total energy  :  -151.4661681 Eh     change       -0.1207106E-05 Eh
 * total energy  :  -151.4661687 Eh     change       -0.6279695E-06 Eh
 * total energy  :  -151.4661692 Eh     change       -0.4977080E-06 Eh
 * total energy  :  -151.4661702 Eh     change       -0.9653317E-06 Eh
 * total energy  :  -151.4661703 Eh     change       -0.8248216E-07 Eh
   *** GEOMETRY OPTIMIZATION CONVERGED AFTER 20 ITERATIONS ***

 final structure:
================
94
 xtb: 6.7.1 (edcfbbe)
C           -5.50280130314574       -5.54880822554561       -0.94247755969774
C           -6.24349225871747       -4.93919629343192        0.05647836094036
C           -6.05220265503290       -3.60030068751322        0.34742046695234
C           -5.11252462875468       -2.86575221332075       -0.36766291507227
N           -4.93676560528419       -1.49656657900357       -0.10030271726558
C           -5.92247932485024       -0.56541411309876       -0.36553825778256
C           -7.25777134611083       -0.78674273695258       -0.66418841961066
C           -8.04173414298942        0.30739559115051       -0.97242900228550
C           -7.49239931666778        1.58495603407698       -1.02270452862177
C           -6.15894162313933        1.80604371235509       -0.74343890951922
C           -5.35566738298496        0.73075821125363       -0.37160842739712
C           -3.96068524677219        0.55997851922907       -0.06619259890454
C           -3.74136460879945       -0.83362204311087        0.05696904509111
C           -2.45705511055961       -1.35277964321215        0.27609172907338
C           -1.91030206552551       -2.65925166638417        0.52384968837538
C           -2.44113262851020       -3.89391568691185        0.88704285215715
C           -1.59091327798296       -4.97147985992873        1.03300323103797
C           -0.22059871412472       -4.84498820718563        0.82445571478755
C            0.34129319701685       -3.61870119123289        0.52806992557618
C           -0.50510599188894       -2.52585658905486        0.42037579367201
N           -0.18735900110031       -1.20067468885912        0.19892984735273
C            1.07320907862496       -0.77073105347305       -0.24137727724535
C            1.18408645671949       -0.10450147573405       -1.45989447655433
C            2.42057321070478        0.30733192555639       -1.91740711747177
C            3.57987257925000        0.05760830135095       -1.18624394439736
N            4.78778837324292        0.43651360041718       -1.59149067185650
C            5.88604340411078        0.20263448194374       -0.88518010436004
C            7.17205283520781        0.61383151486536       -1.35155228865649
C            7.26772469253643        1.27672992403633       -2.58658417467430
C            8.48248445698103        1.68701764703094       -3.06990102089798
C            9.63800527496255        1.44340484608351       -2.32687286533409
C            9.56279900175260        0.79692076132625       -1.11671261192867
C            8.33702495161753        0.36285470338480       -0.59027168923976
C            8.22226542076393       -0.31861405395300        0.67809336025906
C            9.32612950808356       -0.60213253140875        1.49612972063029
C            9.18328454507614       -1.25200686210286        2.69837298498337
C            7.92109285773545       -1.65036599388696        3.13977822949780
C            6.82029158196855       -1.39002647142692        2.36656018956167
C            6.94760514960053       -0.72695563397523        1.13435853165202
C            5.77367474091195       -0.47521973756774        0.36026929916329
N            4.57710330086202       -0.86976166759769        0.77534046860978
C            3.46666473829088       -0.64457107163522        0.07692992543798
C            2.20894892786733       -1.03807497973351        0.51792360012199
C           -1.35401577146892       -0.47047764165694        0.16771689766318
C           -1.53991279316788        0.92199403516836        0.16953181818085
C           -0.68082192710020        2.06532787587865        0.33116766220263
C            0.67912284920497        2.25252644417877        0.56712048873917
C            1.16539339299557        3.53321632618732        0.73300767323964
C            0.32073916652429        4.63870546465486        0.70426475082647
C           -1.03892215599709        4.48279020749775        0.52368264243948
C           -1.52709995264807        3.19926866566503        0.33256958730632
N           -2.83996384871817        2.79264765354912        0.19405066544092
C           -3.92481272129162        3.63182746159627        0.49689625956218
C           -4.13511220443162        4.79595314402386       -0.23524295231135
C           -5.18711106059244        5.63263776225589        0.09187111213260
C           -6.03165752530858        5.31429642677501        1.14238816106076
C           -5.82147493236660        4.15529628284813        1.87147987213807
C           -4.76886444879785        3.31681875421354        1.55772889390677
C           -2.86418032093187        1.41955906165373        0.10565693070489
C           -4.37635438065425       -3.47594201853195       -1.37842921577126
C           -4.57006799283189       -4.81554906997829       -1.65726769408818
H           -5.65265754187440       -6.59481328965664       -1.16330016259363
H           -6.96952987060114       -5.50950549194075        0.61690094172808
H           -6.61223453457918       -3.12285171323838        1.13797785087852
H           -7.66780900467230       -1.78516957742828       -0.67668370266857
H           -9.08716773442125        0.16594146496823       -1.20252182027681
H           -8.11821453002109        2.41961299393579       -1.30184455586857
H           -5.75419132797051        2.79814938633441       -0.84331830491296
H           -3.49356718840845       -4.01407599891498        1.08066327086316
H           -1.99807620599877       -5.93174042246733        1.31280129187727
H            0.41547473740126       -5.71242062148399        0.91853015720943
H            1.40639401086230       -3.51583327830393        0.38976946859003
H            0.29603586399135        0.09403893809014       -2.03939205621353
H            2.51487518258068        0.82550853757957       -2.85824937909391
H            6.35639372590002        1.45114996191903       -3.13821187624495
H            8.54849112864600        2.19608085532201       -4.01995247833059
H           10.59713974079189        1.76513937297556       -2.70541187895941
H           10.47492435529537        0.62442574017417       -0.56791176433523
H           10.31569179863041       -0.30753310916160        1.18489902871745
H           10.05303251439332       -1.45571401717305        3.30563098688066
H            7.81566982664272       -2.16049940271584        4.08569135324140
H            5.83097701685255       -1.68532675937219        2.68151090752622
H            2.12516296971607       -1.52099304415237        1.47855962094531
H            1.35310079769926        1.41839047595555        0.64600414711169
H            2.22166308346117        3.67795436078445        0.90486096792083
H            0.72959196008803        5.62772777425439        0.84758819942167
H           -1.70271461092373        5.33336892894001        0.55135407276567
H           -3.48775448953579        5.02594882599124       -1.06851930902974
H           -5.35161587430370        6.53311518218665       -0.48131068753403
H           -6.85346902428426        5.96844685181899        1.39145900315710
H           -6.47734535461105        3.90575696817666        2.69190587090413
H           -4.59482355528601        2.41404218266312        2.12343723804601
H           -3.65510764390476       -2.89598010732638       -1.93402484341036
H           -3.99326596211964       -5.28762075604651       -2.43819875384381

 projected vibrational frequencies (cm⁻¹)
eigval :       -0.00    -0.00    -0.00    -0.00     0.00     0.00
eigval :       11.33    11.80    15.16    24.82    26.40    42.32
eigval :       46.00    52.45    55.13    63.56    64.25    72.12
eigval :       79.59    80.76    83.54    94.85   106.32   112.06
eigval :      121.14   124.43   145.04   150.69   158.89   171.57
eigval :      185.60   192.73   209.65   215.38   224.20   228.56
eigval :      231.35   239.14   252.96   255.78   268.70   271.99
eigval :      291.73   299.49   336.99   342.14   356.85   362.28
eigval :      373.34   378.63   379.38   385.23   389.86   391.78
eigval :      400.88   402.10   404.93   408.86   411.31   419.80
eigval :      430.70   443.22   448.48   451.02   459.30   471.54
eigval :      477.83   519.20   524.58   529.54   534.30   539.80
eigval :      542.67   552.16   555.46   557.89   569.49   575.12
eigval :      581.21   585.49   588.69   590.26   594.11   596.80
eigval :      606.62   612.44   621.38   623.76   629.60   648.13
eigval :      651.07   660.20   669.05   672.41   673.55   675.92
eigval :      676.03   697.69   698.57   700.49   702.56   720.20
eigval :      722.81   730.77   750.16   759.74   764.72   764.96
eigval :      767.97   772.11   773.87   775.27   778.38   798.03
eigval :      816.46   831.97   838.18   844.85   850.82   863.86
eigval :      865.83   868.19   872.36   873.61   875.84   877.45
eigval :      879.12   879.72   898.86   900.30   903.90   905.19
eigval :      907.54   907.99   911.88   912.80   917.38   920.82
eigval :      920.90   921.36   922.23   922.61   923.75   928.69
eigval :      928.94   933.10   933.70   978.44   986.91   997.05
eigval :     1009.12  1015.38  1058.55  1076.50  1078.88  1079.21
eigval :     1080.27  1082.11  1084.47  1088.98  1091.77  1098.60
eigval :     1116.41  1116.91  1132.29  1140.62  1143.36  1146.30
eigval :     1148.78  1150.77  1174.66  1176.83  1179.83  1180.26
eigval :     1180.74  1180.84  1183.11  1184.97  1190.41  1195.20
eigval :     1213.19  1213.40  1220.70  1223.04  1238.23  1240.68
eigval :     1243.87  1244.80  1255.14  1257.31  1268.07  1272.47
eigval :     1273.78  1282.44  1287.36  1293.90  1300.27  1306.48
eigval :     1315.78  1315.99  1317.44  1328.90  1330.63  1337.13
eigval :     1345.06  1350.38  1352.32  1357.95  1360.70  1365.79
eigval :     1385.42  1385.83  1388.35  1394.42  1410.88  1418.94
eigval :     1425.45  1427.52  1429.19  1431.48  1436.52  1436.58
eigval :     1443.07  1465.28  1471.41  1471.92  1474.37  1480.72
eigval :     1481.00  1483.02  1489.46  1516.75  1535.45  1536.60
eigval :     1539.56  1542.02  1552.60  1580.60  1581.40  1583.27
eigval :     1584.20  1584.64  1584.84  1593.86  1594.04  1594.37
eigval :     1597.18  1599.75  1600.38  3075.97  3076.53  3078.12
eigval :     3078.69  3078.72  3079.38  3079.59  3083.56  3083.87
eigval :     3084.64  3085.56  3085.77  3086.52  3087.85  3090.49
eigval :     3091.01  3094.94  3095.26  3095.43  3095.61  3095.95
eigval :     3096.09  3097.30  3097.89  3098.68  3100.82  3101.16
eigval :     3103.59  3106.28  3108.49  3126.69  3138.18  3151.10

   temp. (K)  partition function   enthalpy   heat capacity  entropy
                                   cal/mol     cal/K/mol   cal/K/mol   J/K/mol
 298.15  VIB  0.409E+20            26645.577    174.382    163.702
         ROT  0.158E+09              888.752      2.981     40.502
         INT  0.648E+28            27534.330    177.363    204.204
         TR   0.209E+29             1481.254      4.968     45.804
         TOT                       29015.5836   182.3314   250.0088  1046.0366

       T/K    H(0)-H(T)+PV         H(T)/Eh          T*S/Eh         G(T)/Eh
   ------------------------------------------------------------------------
    298.15    0.462393E-01    0.754310E+00    0.118787E+00    0.635523E+00
   ------------------------------------------------------------------------

         :::::::::::::::::::::::::::::::::::::::::::::::::::::
         ::                  THERMODYNAMIC                  ::
         :::::::::::::::::::::::::::::::::::::::::::::::::::::
         :: total free energy        -150.830647401760 Eh   ::
         ::.................................................::
         :: total energy             -151.466170243636 Eh   ::
         :: zero point energy           0.708070793347 Eh   ::
         :: G(RRHO) w/o ZPVE           -0.072547951471 Eh   ::
         :: G(RRHO) contrib.            0.635522841876 Eh   ::
         :::::::::::::::::::::::::::::::::::::::::::::::::::::

           -------------------------------------------------
          | TOTAL ENERGY             -151.466170243636 Eh   |
          | TOTAL ENTHALPY           -150.711860174505 Eh   |
          | TOTAL FREE ENERGY        -150.830647401760 Eh   |
          | GRADIENT NORM               0.000141661120 Eh/α |
           -------------------------------------------------

 * finished run on 2025/08/24 at 08:23:47.697
