   * xtb version 6.7.1 (edcfbbe) compiled by 'albert@albert-system' on 2024-07-22

   ID    Z sym.   atoms
    1    6 C      1-4, 6-20, 22-25, 27-40, 42-51, 53-61
    2    7 N      5, 21, 26, 41, 52
    3    1 H      62-94

          program call               : xtb data2507/gas/β-DI-DBP/β-DI-DBP_gas_S0_crest.xyz --gfn 2 --ohess vtight --parallel 40 --molden --ceasefiles --namespace data2507/gas/β-DI-DBP/β-DI-DBP_gas_S0_finalOpt
          :  Hamiltonian                  GFN2-xTB          :
 * total energy  :  -151.5096267 Eh     change       -0.4822709E-08 Eh
 * total energy  :  -151.5096274 Eh     change       -0.7678700E-06 Eh
 * total energy  :  -151.5096282 Eh     change       -0.7695527E-06 Eh
 * total energy  :  -151.5096291 Eh     change       -0.9101902E-06 Eh
 * total energy  :  -151.5096298 Eh     change       -0.6420868E-06 Eh
 * total energy  :  -151.5096305 Eh     change       -0.7203424E-06 Eh
 * total energy  :  -151.5096312 Eh     change       -0.7204561E-06 Eh
 * total energy  :  -151.5096317 Eh     change       -0.4967771E-06 Eh
 * total energy  :  -151.5096321 Eh     change       -0.4198277E-06 Eh
 * total energy  :  -151.5096325 Eh     change       -0.4139490E-06 Eh
 * total energy  :  -151.5096329 Eh     change       -0.3295120E-06 Eh
 * total energy  :  -151.5096331 Eh     change       -0.2663784E-06 Eh
 * total energy  :  -151.5096334 Eh     change       -0.3274052E-06 Eh
 * total energy  :  -151.5096338 Eh     change       -0.3536624E-06 Eh
 * total energy  :  -151.5096341 Eh     change       -0.2521290E-06 Eh
 * total energy  :  -151.5096342 Eh     change       -0.1146041E-06 Eh
 * total energy  :  -151.5096342 Eh     change       -0.1560858E-07 Eh
   *** GEOMETRY OPTIMIZATION CONVERGED AFTER 17 ITERATIONS ***

 final structure:
================
94
 xtb: 6.7.1 (edcfbbe)
C           -5.88092639800125       -5.36014712915902        0.86311012592067
C           -5.07779536100625       -4.56345635503607        1.66277199449740
C           -4.76377034324952       -3.27624939060147        1.27052128596827
C           -5.24534176798607       -2.78205447649342        0.06111269217589
N           -4.94538460896914       -1.46565152430128       -0.32036004191775
C           -5.90991007493305       -0.49683406103518       -0.52017980375663
C           -7.28080588218514       -0.64653330927692       -0.66281170898180
C           -8.03162281598448        0.48212960800360       -0.92663339766307
C           -7.42485883173495        1.72632189672770       -1.06986973176030
C           -6.06663365289295        1.88618518205412       -0.88530536023997
C           -5.29462063593823        0.77665130462245       -0.55177483571774
C           -3.90020767022862        0.55713307389543       -0.27786114275018
C           -3.71689885444879       -0.84541408077208       -0.22642856479521
C           -2.42904461167772       -1.40599451450706       -0.22017977803218
C           -1.88529227809211       -2.72474648379834       -0.42252072737114
C           -2.42029075663011       -3.97391516505860       -0.72553588986312
C           -1.57015081700487       -5.04429747435342       -0.91749979167940
C           -0.18925104938823       -4.89382584243732       -0.84795203529038
C            0.37368252940423       -3.65821850137593       -0.59723678349059
C           -0.47799088534503       -2.58648833763608       -0.38093720307236
N           -0.15453549847144       -1.25596095864944       -0.18406411073197
C            1.11744328696617       -0.73428818526479       -0.44418789464220
C            1.25227568183808        0.25580657676848       -1.44974524191642
C            2.47197273880694        0.77611959880071       -1.75802678177257
C            3.62538291955670        0.32662854991394       -1.07705967513752
N            4.82292535835004        0.84369529967404       -1.37474771239274
C            5.87475163189456        0.39692726588868       -0.71256232545151
C            7.17869828300693        0.94313333884032       -1.01601738931419
C            7.29383659036877        1.93234441191832       -1.99677539445148
C            8.51919185711516        2.47206520858552       -2.30984090542693
C            9.65259788302397        2.02513604988989       -1.64004918678123
C            9.55263063958831        1.05100769190590       -0.67082527643718
C            8.31976885528746        0.48230714956247       -0.32982780685807
C            8.18705853614366       -0.54811307016879        0.69114334867337
C            9.28308606901603       -1.04745907093052        1.40466927087846
C            9.13232733707986       -2.02181855301739        2.36708832057146
C            7.87446394947159       -2.53836281919197        2.65644284971230
C            6.77862081700641       -2.06810238277011        1.97166754677843
C            6.91785123134675       -1.08036136808772        0.99268488786592
C            5.74393542086395       -0.61098202711690        0.29001332106051
N            4.56825590825987       -1.13030695861993        0.59018633268616
C            3.49377188764597       -0.68126075332036       -0.07476051285675
C            2.22001559428554       -1.20022462663750        0.22798307486791
C           -1.32477744529209       -0.53297433882295       -0.09107170281709
C           -1.49856902889603        0.83975990815824        0.14231753915211
C           -0.63861559187760        1.92774037338773        0.52449271645124
C            0.68393614453411        2.03635478074348        0.94719622225613
C            1.17911977039946        3.27615346124108        1.29584438519831
C            0.37478165481330        4.41157027058392        1.26631036499984
C           -0.95669606926376        4.32551055371472        0.91211327278284
C           -1.45205264065780        3.08414613890514        0.54356442437026
N           -2.75102629151243        2.73775177384252        0.22369372647913
C           -3.83661558664099        3.58867264054524        0.49492537541288
C           -3.95429932003564        4.80179397336997       -0.17486786937774
C           -5.00607947955209        5.65050302286659        0.12025486862598
C           -5.94084894244361        5.29584698760328        1.07869058157884
C           -5.82081153740086        4.08947368299347        1.74861254372680
C           -4.76990999122075        3.23785414055225        1.46541282846323
C           -2.79902958628488        1.37899588354101        0.00671100877686
C           -6.04787992375576       -3.58428824350304       -0.74452761759240
C           -6.36356714531162       -4.86841785206272       -0.33839778245523
H           -6.12738642480142       -6.36423506460910        1.17359306034194
H           -4.69836761030418       -4.94469146580264        2.59890068927686
H           -4.13929461807933       -2.64827783839054        1.88802221887799
H           -7.75032385880657       -1.61418537947669       -0.57364404259525
H           -9.10111932194879        0.39298454328158       -1.04638837273286
H           -8.02832893282973        2.58402571677462       -1.32751152685816
H           -5.61887176615994        2.85521822665385       -1.02665880112391
H           -3.48054623239595       -4.11698535824857       -0.83503392818762
H           -1.98711553328494       -6.01477154430440       -1.14256416493264
H            0.45120190555702       -5.74727806983590       -1.01301185178641
H            1.44509270093362       -3.53061875835580       -0.59132235917639
H            0.36425827386813        0.58486321320543       -1.96783599996721
H            2.59076744315736        1.53011717758091       -2.51997698910475
H            6.39259415361595        2.25396440275325       -2.49457656549424
H            8.60327181167278        3.23605915440642       -3.06821808467061
H           10.61961997879615        2.44319573614633       -1.87926434310287
H           10.45392822108596        0.73069761139871       -0.17312635237555
H           10.27453206855573       -0.67167810688307        1.20865496808730
H            9.99938017363227       -2.38524316790804        2.89934304005975
H            7.76200543875162       -3.30162979586033        3.41185357182706
H            5.78727409013459       -2.44490606886673        2.16833451536265
H            2.13531267589089       -1.93814177061640        1.01040383575162
H            1.31516531591118        1.16879056795656        1.03677924035136
H            2.20751363616918        3.36367859729849        1.61373086675658
H            0.78992800523081        5.36696991561405        1.55054190314224
H           -1.59683699517973        5.19416697613600        0.94227336299977
H           -3.23188536864651        5.06302369549306       -0.93411907962161
H           -5.09887139144213        6.58955702423045       -0.40521240879783
H           -6.76215200567202        5.95962017654189        1.30299147709480
H           -6.54659865770504        3.81185670224038        2.49807540804188
H           -4.66623828206125        2.29802137341331        1.98626293438346
H           -6.39612698621959       -3.20727067028409       -1.69444542818360
H           -6.98229051248443       -5.49046560808167       -0.96827033108021

          :  Hamiltonian                  GFN2-xTB          :
         :: gradient norm              0.000075425042 Eh/a0 ::
         :: HOMO-LUMO gap              1.315017856262 eV    ::
         :: SCC energy              -154.338336367522 Eh    ::
         :: -> dispersion             -0.152881163197 Eh    ::
         :: repulsion energy           2.828702185469 Eh    ::

    * Orbital Energies and Occupations

         #    Occupation            Energy/Eh            Energy/eV
      -------------------------------------------------------------
         1        2.0000           -0.6744402             -18.3525
       ...           ...                  ...                  ...
       129        2.0000           -0.4073418             -11.0843
       130        2.0000           -0.4049176             -11.0184
       131        2.0000           -0.4024969             -10.9525
       132        2.0000           -0.3991799             -10.8622
       133        2.0000           -0.3915521             -10.6547
       134        2.0000           -0.3900483             -10.6138
       135        2.0000           -0.3877505             -10.5512
       136        2.0000           -0.3866621             -10.5216
       137        2.0000           -0.3857544             -10.4969
       138        2.0000           -0.3680066             -10.0140
       139        2.0000           -0.3490843              -9.4991
       140        2.0000           -0.3484758              -9.4825
       141        2.0000           -0.3468183              -9.4374 (HOMO)
       142                         -0.2984923              -8.1224 (LUMO)
       143                         -0.2638377              -7.1794
       144                         -0.2516358              -6.8474
       145                         -0.2433855              -6.6229
       146                         -0.2414057              -6.5690
       147                         -0.2320207              -6.3136
       148                         -0.2314641              -6.2985
       149                         -0.2303921              -6.2693
       150                         -0.2281267              -6.2076
       151                         -0.2227404              -6.0611
       152                         -0.2204964              -6.0000
       ...                                ...                  ...
       277                          0.7796883              21.2164
      -------------------------------------------------------------
                  HL-Gap            0.0483260 Eh            1.3150 eV

     #   Z          covCN         q      C6AA      α(0)
     1   6 C        2.919    -0.032    28.800     8.800
     2   6 C        2.920    -0.026    28.652     8.778
     3   6 C        2.922    -0.037    28.931     8.821
     4   6 C        2.916     0.070    26.445     8.433
     5   7 N        2.803    -0.043    22.074     6.978
     6   6 C        3.081     0.044    26.930     8.507
     7   6 C        2.911    -0.052    29.298     8.876
     8   6 C        2.924    -0.036    28.895     8.815
     9   6 C        2.920    -0.042    29.035     8.836
    10   6 C        2.914    -0.039    28.974     8.827
    11   6 C        3.063    -0.015    28.331     8.728
    12   6 C        3.055    -0.047    29.114     8.849
    13   6 C        3.065     0.041    27.009     8.522
    14   6 C        3.051    -0.047    29.107     8.848
    15   6 C        3.060    -0.014    28.300     8.724
    16   6 C        2.915    -0.041    29.019     8.834
    17   6 C        2.919    -0.041    29.013     8.833
    18   6 C        2.923    -0.035    28.874     8.812
    19   6 C        2.911    -0.052    29.282     8.873
    20   6 C        3.080     0.044    26.939     8.509
    21   7 N        2.802    -0.040    22.006     6.967
    22   6 C        2.913     0.072    26.399     8.425
    23   6 C        2.919    -0.035    28.860     8.809
    24   6 C        2.916    -0.038    28.933     8.820
    25   6 C        2.967     0.080    26.211     8.398
    26   7 N        1.848    -0.238    27.077     7.712
    27   6 C        2.962     0.082    26.171     8.391
    28   6 C        2.988    -0.001    28.045     8.687
    29   6 C        2.924    -0.027    28.679     8.782
    30   6 C        2.917    -0.029    28.713     8.787
    31   6 C        2.918    -0.027    28.686     8.783
    32   6 C        2.922    -0.034    28.842     8.807
    33   6 C        2.976     0.006    27.871     8.660
    34   6 C        2.976     0.007    27.861     8.658
    35   6 C        2.922    -0.034    28.841     8.807
    36   6 C        2.918    -0.027    28.679     8.782
    37   6 C        2.917    -0.029    28.715     8.787
    38   6 C        2.924    -0.027    28.672     8.781
    39   6 C        2.988    -0.001    28.050     8.688
    40   6 C        2.961     0.084    26.125     8.384
    41   7 N        1.849    -0.243    27.185     7.727
    42   6 C        2.967     0.082    26.173     8.392
    43   6 C        2.920    -0.058    29.432     8.897
    44   6 C        3.065     0.041    27.023     8.524
    45   6 C        3.057    -0.048    29.142     8.853
    46   6 C        3.060    -0.016    28.345     8.731
    47   6 C        2.914    -0.039    28.979     8.827
    48   6 C        2.919    -0.040    29.005     8.832
    49   6 C        2.924    -0.035    28.878     8.813
    50   6 C        2.911    -0.052    29.285     8.874
    51   6 C        3.086     0.044    26.922     8.505
    52   7 N        2.803    -0.045    22.102     6.982
    53   6 C        2.917     0.070    26.445     8.433
    54   6 C        2.922    -0.041    29.017     8.834
    55   6 C        2.920    -0.028    28.704     8.786
    56   6 C        2.920    -0.031    28.784     8.798
    57   6 C        2.920    -0.026    28.644     8.777
    58   6 C        2.922    -0.036    28.888     8.814
    59   6 C        3.064     0.042    26.998     8.520
    60   6 C        2.921    -0.042    29.038     8.837
    61   6 C        2.920    -0.028    28.704     8.786
    62   1 H        0.926     0.035     2.514     2.480
    63   1 H        0.926     0.037     2.492     2.468
    64   1 H        0.926     0.039     2.458     2.452
    65   1 H        0.926     0.027     2.629     2.535
    66   1 H        0.926     0.027     2.634     2.538
    67   1 H        0.926     0.024     2.672     2.556
    68   1 H        0.926     0.026     2.638     2.540
    69   1 H        0.926     0.029     2.605     2.524
    70   1 H        0.926     0.025     2.658     2.549
    71   1 H        0.926     0.028     2.612     2.527
    72   1 H        0.926     0.030     2.588     2.516
    73   1 H        0.926     0.048     2.347     2.396
    74   1 H        0.926     0.056     2.243     2.342
    75   1 H        0.926     0.059     2.210     2.325
    76   1 H        0.926     0.035     2.511     2.478
    77   1 H        0.926     0.034     2.534     2.490
    78   1 H        0.926     0.036     2.509     2.477
    79   1 H        0.926     0.036     2.507     2.476
    80   1 H        0.926     0.034     2.532     2.488
    81   1 H        0.926     0.036     2.509     2.477
    82   1 H        0.926     0.059     2.207     2.323
    83   1 H        0.926     0.059     2.213     2.326
    84   1 H        0.926     0.024     2.678     2.559
    85   1 H        0.926     0.025     2.663     2.552
    86   1 H        0.926     0.027     2.625     2.533
    87   1 H        0.926     0.026     2.640     2.541
    88   1 H        0.926     0.041     2.435     2.440
    89   1 H        0.926     0.036     2.502     2.473
    90   1 H        0.926     0.036     2.509     2.477
    91   1 H        0.926     0.037     2.493     2.469
    92   1 H        0.926     0.039     2.466     2.456
    93   1 H        0.926     0.042     2.427     2.436
    94   1 H        0.926     0.036     2.507     2.476

molecular dipole:
                 x           y           z       tot (Debye)
 q only:       -0.086       0.027       0.186
   full:       -0.084       0.034       0.208       0.577

 projected vibrational frequencies (cm⁻¹)
eigval :       -0.00    -0.00     0.00     0.00     0.00     0.00
eigval :       11.26    12.38    13.40    24.44    27.23    44.90
eigval :       46.70    50.42    52.72    61.91    64.64    71.21
eigval :       78.60    79.86    83.47    94.34   103.46   114.55
eigval :      120.48   128.89   143.36   152.59   163.05   165.99
eigval :      195.69   201.49   206.58   220.19   224.99   226.75
eigval :      234.25   243.70   254.24   258.80   273.75   286.72
eigval :      293.18   306.64   340.57   347.64   352.06   362.85
eigval :      376.79   378.81   379.91   382.93   389.53   392.68
eigval :      399.46   400.18   403.60   407.46   413.04   428.66
eigval :      438.46   444.55   444.90   451.45   457.85   470.29
eigval :      481.60   519.75   529.47   534.26   537.56   543.33
eigval :      545.28   554.15   557.13   564.05   571.97   575.98
eigval :      581.72   586.90   590.26   593.15   593.87   600.15
eigval :      607.58   622.20   624.05   628.00   648.60   651.64
eigval :      666.02   669.89   670.79   674.95   681.69   683.62
eigval :      698.21   698.45   702.35   703.22   730.22   730.44
eigval :      734.65   750.97   762.57   764.75   767.44   768.33
eigval :      769.25   773.07   774.80   776.74   789.61   819.41
eigval :      835.63   844.45   845.11   852.99   865.12   868.88
eigval :      869.67   869.77   878.00   879.71   879.77   880.47
eigval :      885.54   899.48   901.04   903.24   905.11   908.11
eigval :      912.93   917.19   917.51   920.84   921.63   922.71
eigval :      923.12   924.16   928.60   928.91   929.00   929.54
eigval :      933.15   934.90   941.27   974.76   986.68   996.72
eigval :     1013.48  1023.70  1060.84  1075.04  1078.76  1079.14
eigval :     1080.05  1084.83  1084.94  1088.90  1092.44  1101.70
eigval :     1116.46  1117.22  1140.80  1143.18  1145.97  1148.33
eigval :     1149.32  1152.66  1177.44  1179.14  1180.93  1181.06
eigval :     1181.24  1181.54  1183.74  1184.67  1190.99  1193.89
eigval :     1212.06  1215.69  1216.00  1234.68  1244.09  1247.67
eigval :     1250.55  1252.87  1257.91  1273.77  1274.83  1286.22
eigval :     1289.23  1293.48  1295.56  1298.83  1306.89  1315.55
eigval :     1316.12  1318.51  1325.61  1331.87  1337.15  1339.92
eigval :     1347.89  1361.80  1366.37  1367.40  1369.76  1386.51
eigval :     1393.33  1396.52  1418.05  1426.71  1427.43  1429.73
eigval :     1432.41  1434.34  1436.43  1438.66  1440.37  1450.35
eigval :     1463.33  1474.93  1476.32  1479.68  1481.42  1481.58
eigval :     1484.90  1486.96  1504.18  1534.56  1556.50  1567.09
eigval :     1569.24  1569.70  1580.82  1582.10  1584.68  1587.56
eigval :     1590.03  1592.09  1594.54  1595.35  1597.51  1599.61
eigval :     1602.88  1604.91  1605.75  3076.05  3076.75  3077.23
eigval :     3077.60  3078.28  3078.79  3079.58  3083.07  3083.21
eigval :     3084.83  3085.65  3087.42  3087.49  3088.51  3090.03
eigval :     3091.78  3092.58  3094.54  3094.81  3095.13  3096.04
eigval :     3097.89  3099.34  3100.45  3100.58  3103.20  3106.08
eigval :     3109.30  3109.51  3110.24  3127.04  3130.44  3150.22

   temp. (K)  partition function   enthalpy   heat capacity  entropy
                                   cal/mol     cal/K/mol   cal/K/mol   J/K/mol
 298.15  VIB  0.366E+20            26468.121    173.109    162.778
         ROT  0.157E+09              888.752      2.981     40.484
         INT  0.574E+28            27356.873    176.089    203.262
         TR   0.209E+29             1481.254      4.968     45.804
         TOT                       28838.1268   181.0576   249.0666  1042.0948

       T/K    H(0)-H(T)+PV         H(T)/Eh          T*S/Eh         G(T)/Eh
   ------------------------------------------------------------------------
    298.15    0.459565E-01    0.756936E+00    0.118340E+00    0.638596E+00
   ------------------------------------------------------------------------

         :::::::::::::::::::::::::::::::::::::::::::::::::::::
         ::                  THERMODYNAMIC                  ::
         :::::::::::::::::::::::::::::::::::::::::::::::::::::
         :: total free energy        -150.871038210791 Eh   ::
         ::.................................................::
         :: total energy             -151.509634182052 Eh   ::
         :: zero point energy           0.710979084335 Eh   ::
         :: G(RRHO) w/o ZPVE           -0.072383113074 Eh   ::
         :: G(RRHO) contrib.            0.638595971261 Eh   ::
         :::::::::::::::::::::::::::::::::::::::::::::::::::::

           -------------------------------------------------
          | TOTAL ENERGY             -151.509634182052 Eh   |
          | TOTAL ENTHALPY           -150.752698617344 Eh   |
          | TOTAL FREE ENERGY        -150.871038210791 Eh   |
          | GRADIENT NORM               0.000075424281 Eh/α |
          | HOMO-LUMO GAP               1.315018343684 eV   |
           -------------------------------------------------

 * finished run on 2025/08/24 at 08:15:48.686
