   * xtb version 6.7.1 (edcfbbe) compiled by 'albert@albert-system' on 2024-07-22

   ID    Z sym.   atoms
    1    6 C      1-26, 28-37
    2    7 N      27
    3    1 H      38-62

          program call               : xtb data2507/toluene/DMF-AnCN/DMF-AnCN_toluene_S0_finalOpt.xtbopt.xyz --gfn 2 --uhf 2 --gbsa toluene --ohess vtight --parallel 40 --molden --ceasefiles --namespace data2507/toluene/DMF-AnCN/DMF-AnCN_toluene_T1_preOpt
      * Solvation model:               GBSA
        Solvent                        toluene
        Solvent mass                       9.2140E+01 g/mol
          :  Hamiltonian                  GFN2-xTB          :
 * total energy  :   -92.7104844 Eh     change       -0.2284693E-08 Eh
 * total energy  :   -92.7161440 Eh     change       -0.5659594E-02 Eh
 * total energy  :   -92.7175793 Eh     change       -0.1435252E-02 Eh
 * total energy  :   -92.7177856 Eh     change       -0.2062813E-03 Eh
 * total energy  :   -92.7180629 Eh     change       -0.2773501E-03 Eh
 * total energy  :   -92.7182620 Eh     change       -0.1990660E-03 Eh
 * total energy  :   -92.7184598 Eh     change       -0.1978183E-03 Eh
 * total energy  :   -92.7186808 Eh     change       -0.2209687E-03 Eh
 * total energy  :   -92.7188746 Eh     change       -0.1938766E-03 Eh
 * total energy  :   -92.7190349 Eh     change       -0.1602439E-03 Eh
 * total energy  :   -92.7204153 Eh     change       -0.8222265E-06 Eh
 * total energy  :   -92.7204160 Eh     change       -0.7701145E-06 Eh
 * total energy  :   -92.7204168 Eh     change       -0.7579851E-06 Eh
 * total energy  :   -92.7204176 Eh     change       -0.7698274E-06 Eh
 * total energy  :   -92.7204184 Eh     change       -0.8068199E-06 Eh
 * total energy  :   -92.7204192 Eh     change       -0.8599190E-06 Eh
 * total energy  :   -92.7204201 Eh     change       -0.9103565E-06 Eh
 * total energy  :   -92.7204211 Eh     change       -0.9575646E-06 Eh
 * total energy  :   -92.7204211 Eh     change       -0.4914369E-08 Eh
   *** GEOMETRY OPTIMIZATION CONVERGED AFTER 94 ITERATIONS ***

 final structure:
================
62
 xtb: 6.7.1 (edcfbbe)
C           -4.53721006364373        0.58493359713837       -2.66647503762080
C           -4.64422468087787        0.97182552735946       -1.18697105768037
C           -4.55569592290502        2.49312818488457       -1.02519973130676
C           -5.91347815131250        0.42482831379272       -0.57138404389653
C           -7.22319331702264        0.70564730460651       -0.89507170489882
C           -8.23954724537462        0.07589372960881       -0.18711220985172
C           -7.94718589954775       -0.82191273301489        0.82952323529653
C           -6.63445275552872       -1.11155331595830        1.16219928507777
C           -5.61687249897033       -0.48405640675850        0.45820447616408
C           -4.17662890750347       -0.58283369851168        0.58328027178049
C           -3.38045375249979       -1.33814797322185        1.43459471519150
C           -2.00795222721277       -1.24393231531422        1.32582370552539
C           -1.40272905338762       -0.38668556098420        0.39403545091951
C            0.04641297793894       -0.28649094629728        0.30575223567554
C            0.83705369572381       -1.46274319887084        0.12615359936365
C            0.25365586645348       -2.72195867054715       -0.05531187340607
C            1.02421748465372       -3.87718716887550       -0.13045438825543
C            2.39803564846824       -3.79439730707550       -0.02366933959598
C            3.00773400064587       -2.54816843405584        0.08014927066008
C            2.26052560212909       -1.36556319534532        0.09169447268592
C            2.88733594729475       -0.07896351598028        0.10289312303161
C            4.33037366088811        0.02358418904663       -0.01864710050602
C            5.01028695407998       -0.60432727110967       -1.07649158542554
C            6.37410267958738       -0.50112088271357       -1.20818962385218
C            7.11850035981559        0.22156649573471       -0.26483967043075
C            8.51368770068642        0.32323263817307       -0.38963946040566
N            9.65731185813278        0.40684146339878       -0.49197342089929
C            6.45607855212782        0.84252387145816        0.80359497956698
C            5.08917195960886        0.75191252989599        0.91341416424303
C            2.09129369361859        1.10369973508998        0.22673665124932
C            2.65314754716882        2.38304957987210        0.15454247806519
C            1.89066662438091        3.52704386558928        0.36748780489839
C            0.54809596288110        3.40904359636075        0.66618180296613
C           -0.05006052579277        2.15364824432868        0.67643385704468
C            0.67824055958738        0.99238309122398        0.39394166460362
C           -2.21978645779004        0.38037819467465       -0.45420960061297
C           -3.58466236527283        0.27091261324120       -0.36501039217447
H           -4.59560453959364       -0.49599254065045       -2.77953769321077
H           -3.59053072918892        0.92708987732847       -3.07789261565940
H           -5.34760039579945        1.03716767208400       -3.23317671065498
H           -4.63885975452587        2.76680129546704        0.02500755311829
H           -3.60501536260994        2.85785871528719       -1.40719294015243
H           -5.35968650119736        2.97749090186784       -1.57411086962166
H           -7.46507677358509        1.40200826762585       -1.68494795398417
H           -9.27077420545700        0.28732019644470       -0.43138645651438
H           -8.75391136786199       -1.29975669061413        1.36695952094955
H           -6.40914031062662       -1.81042242776850        1.95440260950941
H           -3.82476800932899       -1.98608799114928        2.17579400785163
H           -1.37743504524868       -1.80536478977704        2.00041235474815
H           -0.81891493216831       -2.80101610822373       -0.14273375815426
H            0.54030673737103       -4.83438575278818       -0.25663252799311
H            3.00574483658871       -4.68691218947187       -0.03518748145950
H            4.08276830085939       -2.49944153554579        0.16054630695721
H            4.44015344052214       -1.14184580677950       -1.82008190712884
H            6.88297828333859       -0.96966002517492       -2.03844097197988
H            7.03161369279876        1.38651446124663        1.53898077342484
H            4.58896521544903        1.21116272392747        1.75349410228917
H            3.70133716419693        2.49186916472311       -0.07755575978922
H            2.35891053932189        4.49853039099357        0.31154903612664
H           -0.04646935781405        4.28559954815508        0.87718218855721
H           -1.09955269446838        2.07483081642092        0.91396995137599
H           -1.75832572764799        1.01685194948058       -1.19514284120564

          :  Hamiltonian                  GFN2-xTB          :
         :: gradient norm              0.000065148412 Eh/a0 ::
         :: HOMO-LUMO gap              0.818953895855 eV    ::
         :: SCC energy               -94.508107490462 Eh    ::
         :: -> dispersion             -0.085697883916 Eh    ::
         :: -> Gsolv                  -0.041519533448 Eh    ::
         :: repulsion energy           1.787686384895 Eh    ::

    * Orbital Energies and Occupations

         #    Occupation            Energy/Eh            Energy/eV
      -------------------------------------------------------------
         1        2.0000           -0.6622362             -18.0204
       ...           ...                  ...                  ...
        76        2.0000           -0.4201305             -11.4323
        77        2.0000           -0.4174035             -11.3581
        78        2.0000           -0.4155566             -11.3079
        79        2.0000           -0.4141902             -11.2707
        80        2.0000           -0.4123271             -11.2200
        81        2.0000           -0.4070465             -11.0763
        82        2.0000           -0.4056728             -11.0389
        83        2.0000           -0.4054919             -11.0340
        84        2.0000           -0.4014819             -10.9249
        85        2.0000           -0.3978218             -10.8253
        86        2.0000           -0.3805940             -10.3565
        87        1.0000           -0.3548228              -9.6552
        88        1.0000           -0.2962410              -8.0611 (HOMO)
        89        0.0000           -0.2661450              -7.2422 (LUMO)
        90                         -0.2528122              -6.8794
        91                         -0.2354426              -6.4067
        92                         -0.2325671              -6.3285
        93                         -0.2279960              -6.2041
        94                         -0.2242472              -6.1021
        95                         -0.2202974              -5.9946
        96                         -0.2058099              -5.6004
        97                         -0.2003991              -5.4531
        98                         -0.1890860              -5.1453
        99                         -0.1740231              -4.7354
       ...                                ...                  ...
       173                          1.1615866              31.6084
      -------------------------------------------------------------
                  HL-Gap            0.0300960 Eh            0.8190 eV

     #   Z          covCN         q      C6AA      α(0)
     1   6 C        3.758    -0.099    22.439     6.753
     2   6 C        3.934     0.019    20.186     6.385
     3   6 C        3.758    -0.099    22.438     6.753
     4   6 C        3.055    -0.000    27.980     8.675
     5   6 C        2.914    -0.034    28.849     8.808
     6   6 C        2.921    -0.033    28.819     8.803
     7   6 C        2.920    -0.034    28.842     8.807
     8   6 C        2.914    -0.035    28.872     8.811
     9   6 C        3.035    -0.001    28.011     8.681
    10   6 C        3.036    -0.000    28.001     8.679
    11   6 C        2.911    -0.035    28.875     8.811
    12   6 C        2.924    -0.035    28.879     8.813
    13   6 C        2.975     0.014    27.708     8.634
    14   6 C        2.973    -0.008    28.218     8.713
    15   6 C        2.977     0.010    27.784     8.646
    16   6 C        2.921    -0.036    28.901     8.816
    17   6 C        2.914    -0.029    28.714     8.787
    18   6 C        2.914    -0.031    28.782     8.797
    19   6 C        2.921    -0.035    28.874     8.812
    20   6 C        2.977     0.009    27.823     8.652
    21   6 C        2.972    -0.005    28.148     8.703
    22   6 C        2.972     0.020    27.566     8.612
    23   6 C        2.921    -0.030    28.757     8.794
    24   6 C        2.921    -0.023    28.577     8.766
    25   6 C        2.972     0.005    27.912     8.666
    26   6 C        1.911     0.113    28.317     8.594
    27   7 N        0.911    -0.299    27.699     7.612
    28   6 C        2.921    -0.023    28.576     8.766
    29   6 C        2.921    -0.030    28.761     8.795
    30   6 C        2.977     0.009    27.822     8.652
    31   6 C        2.921    -0.035    28.880     8.813
    32   6 C        2.914    -0.031    28.781     8.797
    33   6 C        2.914    -0.029    28.718     8.787
    34   6 C        2.921    -0.036    28.899     8.816
    35   6 C        2.977     0.010    27.783     8.646
    36   6 C        2.918    -0.036    28.906     8.817
    37   6 C        3.050    -0.000    27.981     8.676
    38   1 H        0.925     0.035     2.518     2.482
    39   1 H        0.925     0.044     2.390     2.417
    40   1 H        0.925     0.044     2.392     2.419
    41   1 H        0.925     0.035     2.519     2.482
    42   1 H        0.925     0.045     2.386     2.416
    43   1 H        0.925     0.044     2.394     2.420
    44   1 H        0.926     0.032     2.563     2.504
    45   1 H        0.926     0.031     2.579     2.511
    46   1 H        0.926     0.029     2.595     2.519
    47   1 H        0.926     0.031     2.578     2.511
    48   1 H        0.926     0.033     2.538     2.491
    49   1 H        0.926     0.035     2.521     2.483
    50   1 H        0.926     0.039     2.457     2.451
    51   1 H        0.926     0.034     2.527     2.486
    52   1 H        0.926     0.033     2.546     2.495
    53   1 H        0.926     0.035     2.510     2.478
    54   1 H        0.926     0.043     2.411     2.428
    55   1 H        0.926     0.035     2.511     2.478
    56   1 H        0.926     0.035     2.511     2.478
    57   1 H        0.926     0.043     2.409     2.427
    58   1 H        0.926     0.036     2.508     2.477
    59   1 H        0.926     0.033     2.547     2.496
    60   1 H        0.926     0.035     2.519     2.482
    61   1 H        0.926     0.040     2.445     2.445
    62   1 H        0.926     0.036     2.500     2.472

molecular dipole:
                 x           y           z       tot (Debye)
 q only:       -3.263       0.067      -0.064
   full:       -3.621       0.000       0.007       9.203

 projected vibrational frequencies (cm⁻¹)
eigval :       -0.00    -0.00    -0.00     0.00     0.00     0.00
eigval :       15.46    23.76    28.10    42.07    47.77    67.90
eigval :       78.92    81.05   108.51   116.18   128.32   130.19
eigval :      132.22   145.49   147.41   170.38   181.82   206.09
eigval :      220.58   224.07   232.84   250.26   262.67   264.89
eigval :      281.43   311.79   323.57   335.33   339.82   366.87
eigval :      372.26   387.83   396.46   399.55   420.68   429.49
eigval :      442.50   459.09   464.73   471.38   509.74   517.81
eigval :      532.03   536.62   540.39   551.22   556.88   570.80
eigval :      576.42   583.84   597.19   598.92   623.36   637.82
eigval :      642.09   674.67   685.56   689.82   696.26   717.04
eigval :      722.96   726.12   748.91   761.62   762.23   776.56
eigval :      780.56   812.78   819.22   831.57   846.65   853.03
eigval :      863.93   875.99   887.52   893.28   894.85   901.51
eigval :      908.03   909.93   910.77   920.78   922.82   927.23
eigval :      928.43   931.44   943.79   948.09   967.02   974.37
eigval :      990.18  1010.01  1013.96  1068.00  1075.31  1101.40
eigval :     1103.51  1109.46  1116.48  1125.72  1134.98  1149.68
eigval :     1156.84  1172.11  1177.61  1179.98  1181.49  1182.84
eigval :     1186.77  1197.60  1223.96  1227.30  1230.85  1243.33
eigval :     1249.68  1253.49  1263.34  1270.61  1282.92  1286.28
eigval :     1303.57  1303.88  1311.07  1322.89  1336.15  1351.15
eigval :     1356.68  1365.16  1378.76  1393.10  1406.73  1409.04
eigval :     1409.71  1416.71  1423.15  1430.24  1445.14  1459.05
eigval :     1466.92  1475.56  1483.79  1486.89  1493.13  1494.32
eigval :     1498.51  1499.57  1525.96  1526.68  1545.81  1548.94
eigval :     1562.46  1576.73  1587.33  1601.75  2321.93  3024.85
eigval :     3028.32  3030.40  3032.59  3036.79  3039.85  3066.80
eigval :     3070.87  3072.16  3073.85  3075.03  3075.26  3075.73
eigval :     3077.48  3078.09  3083.61  3083.69  3083.79  3085.67
eigval :     3086.65  3087.92  3095.02  3095.93  3098.64  3099.87

   temp. (K)  partition function   enthalpy   heat capacity  entropy
                                   cal/mol     cal/K/mol   cal/K/mol   J/K/mol
 298.15  VIB  0.970E+12            17199.824    112.279    104.355
         ROT  0.365E+08              888.752      2.981     37.582
         INT  0.354E+20            18088.577    115.259    141.937
         TR   0.991E+28             1481.254      4.968     44.321
         TOT                       19569.8305   120.2276   186.2583   779.3048

       T/K    H(0)-H(T)+PV         H(T)/Eh          T*S/Eh         G(T)/Eh
   ------------------------------------------------------------------------
    298.15    0.311865E-01    0.511295E+00    0.884973E-01    0.422797E+00
   ------------------------------------------------------------------------

         :::::::::::::::::::::::::::::::::::::::::::::::::::::
         ::                  THERMODYNAMIC                  ::
         :::::::::::::::::::::::::::::::::::::::::::::::::::::
         :: total free energy         -92.297623735894 Eh   ::
         ::.................................................::
         :: total energy              -92.720421110065 Eh   ::
         :: zero point energy           0.480108202551 Eh   ::
         :: G(RRHO) w/o ZPVE           -0.057310828380 Eh   ::
         :: G(RRHO) contrib.            0.422797374171 Eh   ::
         :::::::::::::::::::::::::::::::::::::::::::::::::::::

           -------------------------------------------------
          | TOTAL ENERGY              -92.720421110065 Eh   |
          | TOTAL ENTHALPY            -92.209126397427 Eh   |
          | TOTAL FREE ENERGY         -92.297623735894 Eh   |
          | GRADIENT NORM               0.000065166371 Eh/α |
          | HOMO-LUMO GAP               0.818954384405 eV   |
           -------------------------------------------------

 * finished run on 2025/09/12 at 05:29:38.098
