   * xtb version 6.7.1 (edcfbbe) compiled by 'albert@albert-system' on 2024-07-22

   ID    Z sym.   atoms
    1    6 C      1-26, 28-37
    2    7 N      27
    3    1 H      38-62

          program call               : xtb data2507/toluene/DMF-AnCN/DMF-AnCN_toluene_S0_crest.xyz --gfn 2 --gbsa toluene --ohess vtight --parallel 40 --molden --ceasefiles --namespace data2507/toluene/DMF-AnCN/DMF-AnCN_toluene_S0_finalOpt
      * Solvation model:               GBSA
        Solvent                        toluene
        Solvent mass                       9.2140E+01 g/mol
          :  Hamiltonian                  GFN2-xTB          :
 * total energy  :   -92.7868496 Eh     change       -0.1066851E-08 Eh
 * total energy  :   -92.7868687 Eh     change       -0.1908559E-04 Eh
 * total energy  :   -92.7868749 Eh     change       -0.6186737E-05 Eh
 * total energy  :   -92.7868772 Eh     change       -0.2390118E-05 Eh
 * total energy  :   -92.7868786 Eh     change       -0.1358266E-05 Eh
 * total energy  :   -92.7868800 Eh     change       -0.1411561E-05 Eh
 * total energy  :   -92.7868812 Eh     change       -0.1210274E-05 Eh
 * total energy  :   -92.7868821 Eh     change       -0.8669237E-06 Eh
 * total energy  :   -92.7868829 Eh     change       -0.7947650E-06 Eh
 * total energy  :   -92.7868837 Eh     change       -0.7688833E-06 Eh
 * total energy  :   -92.7868868 Eh     change       -0.7876039E-06 Eh
 * total energy  :   -92.7868875 Eh     change       -0.7528979E-06 Eh
 * total energy  :   -92.7868883 Eh     change       -0.7322021E-06 Eh
 * total energy  :   -92.7868890 Eh     change       -0.7256641E-06 Eh
 * total energy  :   -92.7868897 Eh     change       -0.6706370E-06 Eh
 * total energy  :   -92.7868902 Eh     change       -0.5653662E-06 Eh
 * total energy  :   -92.7868907 Eh     change       -0.4590729E-06 Eh
 * total energy  :   -92.7868911 Eh     change       -0.3689784E-06 Eh
 * total energy  :   -92.7868911 Eh     change       -0.2551005E-08 Eh
   *** GEOMETRY OPTIMIZATION CONVERGED AFTER 22 ITERATIONS ***

 final structure:
================
62
 xtb: 6.7.1 (edcfbbe)
C           -4.57606212985530        0.07285754110034       -2.71276178329037
C           -4.65771817577733        0.73772561493202       -1.33426695119163
C           -4.55911564751453        2.26136757049154       -1.46914287059062
C           -5.91993641877966        0.33296335168739       -0.60464312453607
C           -7.23346486505447        0.55028620090890       -0.96214869917184
C           -8.24167704514623        0.08387303601348       -0.12827903377627
C           -7.93772484131039       -0.58953946802281        1.04505193064429
C           -6.62022891296489       -0.81204451515767        1.41271795050786
C           -5.61243592340471       -0.34706104712720        0.58349114510780
C           -4.16561523012734       -0.42605754031942        0.70716947254905
C           -3.36426156625574       -0.98365296744219        1.69039049419831
C           -1.98878480738969       -0.90881943453293        1.55160626018161
C           -1.40882382365648       -0.28361034271783        0.44967348355775
C            0.06252494497957       -0.20505048866093        0.32701886565446
C            0.80949666807991       -1.36802733954165        0.08755098533915
C            0.18699162883994       -2.63400999928017       -0.07608442374030
C            0.92067577043765       -3.76110242271831       -0.28518342292557
C            2.32739752963466       -3.69259349972504       -0.33979575771580
C            2.96221482860454       -2.49565104629370       -0.20994966750790
C            2.23397118245235       -1.29197829888854       -0.01400841452733
C            2.87382151668028       -0.04890550708714        0.09781247119216
C            4.34558490473164        0.03228097046072       -0.01417509861299
C            4.97469232461227       -0.18996897167478       -1.23845799170828
C            6.34787698809040       -0.11245555644069       -1.34943036272508
C            7.11781614354512        0.18632229945826       -0.22279061349818
C            8.52265043346186        0.26739802444593       -0.32940146383245
N            9.66581892196174        0.33381839257549       -0.41642647218586
C            6.49659038932357        0.40765069133549        1.00867828447079
C            5.12225203355308        0.33142431439273        1.10470687577603
C            2.12712228432062        1.11788420575389        0.31717237061598
C            2.74041277189468        2.39675965997955        0.39386316544736
C            2.00715263643614        3.51948142509041        0.62685206332947
C            0.61162605450482        3.43276680070112        0.80420771320848
C           -0.01749290020166        2.22902643865665        0.71620335104152
C            0.70533671154406        1.03629358693249        0.44752696057230
C           -2.22103367588094        0.27735322222118       -0.53755850371435
C           -3.58926611480195        0.20345359363162       -0.40638223550985
H           -4.64798429814980       -1.00875325945496       -2.61481505768739
H           -3.63137277528870        0.31635285933369       -3.19338191306773
H           -5.38923898677648        0.41869303465724       -3.34658242829362
H           -4.62841081678859        2.73210238097769       -0.49012794357246
H           -3.61063027275333        2.53942005011063       -1.92296561354550
H           -5.36688830496884        2.63752743120628       -2.09236557766098
H           -7.48351428301863        1.07350879656425       -1.87387984745712
H           -9.27549692825701        0.24767552864724       -0.39695050898852
H           -8.73795893776410       -0.94427738374215        1.67908520958276
H           -6.38644072748414       -1.33683333724709        2.32758896935917
H           -3.79985730942728       -1.46738700766385        2.55238705855073
H           -1.34688842497344       -1.33277461654697        2.31111557750211
H           -0.89066911477488       -2.68628771216578       -0.03276888780670
H            0.43171756687324       -4.71666416254499       -0.40783115458225
H            2.89658929193660       -4.59869140151219       -0.48930432982638
H            4.04031584614816       -2.44753080397225       -0.25350376655297
H            4.37602343756695       -0.41898163631459       -2.10780920788958
H            6.83430231538167       -0.28039931155651       -2.29934349703311
H            7.09774501611818        0.63671471563742        1.87660296357169
H            4.63809899763216        0.49963007465733        2.05549467958351
H            3.80976739599262        2.46689021403032        0.25953328873749
H            2.48961932649607        4.48470854754542        0.68140739512670
H            0.04682881335609        4.33088975025232        1.00799173432448
H           -1.08670009996501        2.16328737329352        0.85144996218013
H           -1.76442980957869        0.75681833137121       -1.39166852978767

          :  Hamiltonian                  GFN2-xTB          :
         :: gradient norm              0.000061251520 Eh/a0 ::
         :: HOMO-LUMO gap              2.057802367924 eV    ::
         :: SCC energy               -94.594192970836 Eh    ::
         :: -> dispersion             -0.085481201521 Eh    ::
         :: -> Gsolv                  -0.040805960113 Eh    ::
         :: repulsion energy           1.807301905811 Eh    ::

    * Orbital Energies and Occupations

         #    Occupation            Energy/Eh            Energy/eV
      -------------------------------------------------------------
         1        2.0000           -0.6693202             -18.2131
       ...           ...                  ...                  ...
        75        2.0000           -0.4255314             -11.5793
        76        2.0000           -0.4221507             -11.4873
        77        2.0000           -0.4175484             -11.3621
        78        2.0000           -0.4138683             -11.2619
        79        2.0000           -0.4124966             -11.2246
        80        2.0000           -0.4092620             -11.1366
        81        2.0000           -0.4091472             -11.1335
        82        2.0000           -0.4058409             -11.0435
        83        2.0000           -0.4022297             -10.9452
        84        2.0000           -0.4013160             -10.9204
        85        2.0000           -0.3961526             -10.7799
        86        2.0000           -0.3773377             -10.2679
        87        2.0000           -0.3611650              -9.8278 (HOMO)
        88                         -0.2855422              -7.7700 (LUMO)
        89                         -0.2722049              -7.4071
        90                         -0.2496105              -6.7922
        91                         -0.2425170              -6.5992
        92                         -0.2339794              -6.3669
        93                         -0.2239354              -6.0936
        94                         -0.2221256              -6.0443
        95                         -0.2183946              -5.9428
        96                         -0.2133091              -5.8044
        97                         -0.1925787              -5.2403
        98                         -0.1840329              -5.0078
       ...                                ...                  ...
       173                          1.1584076              31.5219
      -------------------------------------------------------------
                  HL-Gap            0.0756228 Eh            2.0578 eV

     #   Z          covCN         q      C6AA      α(0)
     1   6 C        3.758    -0.098    22.425     6.751
     2   6 C        3.935     0.019    20.193     6.386
     3   6 C        3.758    -0.098    22.419     6.751
     4   6 C        3.054    -0.002    28.021     8.681
     5   6 C        2.915    -0.035    28.867     8.810
     6   6 C        2.921    -0.035    28.860     8.810
     7   6 C        2.921    -0.035    28.867     8.811
     8   6 C        2.914    -0.036    28.897     8.815
     9   6 C        3.036    -0.002    28.045     8.686
    10   6 C        3.036    -0.004    28.081     8.692
    11   6 C        2.913    -0.036    28.903     8.816
    12   6 C        2.925    -0.037    28.920     8.819
    13   6 C        2.978     0.011    27.773     8.645
    14   6 C        2.977    -0.002    28.080     8.692
    15   6 C        2.983     0.006    27.873     8.660
    16   6 C        2.917    -0.034    28.838     8.806
    17   6 C        2.914    -0.031    28.763     8.794
    18   6 C        2.914    -0.030    28.741     8.791
    19   6 C        2.917    -0.036    28.900     8.816
    20   6 C        2.983     0.007    27.857     8.658
    21   6 C        2.977    -0.009    28.242     8.717
    22   6 C        2.976     0.029    27.344     8.577
    23   6 C        2.922    -0.027    28.676     8.782
    24   6 C        2.924    -0.019    28.482     8.752
    25   6 C        2.973     0.013    27.712     8.635
    26   6 C        1.912     0.118    28.192     8.575
    27   7 N        0.911    -0.277    27.145     7.535
    28   6 C        2.924    -0.019    28.481     8.752
    29   6 C        2.923    -0.027    28.675     8.781
    30   6 C        2.983     0.007    27.858     8.658
    31   6 C        2.917    -0.036    28.898     8.815
    32   6 C        2.914    -0.030    28.742     8.791
    33   6 C        2.914    -0.031    28.764     8.795
    34   6 C        2.917    -0.034    28.841     8.807
    35   6 C        2.983     0.006    27.873     8.660
    36   6 C        2.919    -0.037    28.924     8.819
    37   6 C        3.053    -0.002    28.015     8.680
    38   1 H        0.925     0.034     2.528     2.486
    39   1 H        0.925     0.044     2.402     2.423
    40   1 H        0.925     0.043     2.405     2.425
    41   1 H        0.925     0.034     2.532     2.488
    42   1 H        0.925     0.044     2.400     2.423
    43   1 H        0.925     0.043     2.406     2.426
    44   1 H        0.926     0.030     2.589     2.516
    45   1 H        0.926     0.029     2.606     2.524
    46   1 H        0.926     0.028     2.621     2.531
    47   1 H        0.926     0.028     2.609     2.526
    48   1 H        0.926     0.030     2.586     2.515
    49   1 H        0.926     0.029     2.605     2.524
    50   1 H        0.926     0.035     2.523     2.484
    51   1 H        0.926     0.031     2.569     2.506
    52   1 H        0.926     0.031     2.571     2.507
    53   1 H        0.926     0.030     2.587     2.515
    54   1 H        0.926     0.047     2.359     2.402
    55   1 H        0.926     0.043     2.411     2.428
    56   1 H        0.926     0.043     2.412     2.429
    57   1 H        0.926     0.047     2.364     2.404
    58   1 H        0.926     0.030     2.591     2.517
    59   1 H        0.926     0.031     2.572     2.508
    60   1 H        0.926     0.032     2.564     2.504
    61   1 H        0.926     0.035     2.510     2.478
    62   1 H        0.926     0.031     2.575     2.509

molecular dipole:
                 x           y           z       tot (Debye)
 q only:       -1.923       0.100      -0.213
   full:       -2.299       0.052      -0.138       5.856

 projected vibrational frequencies (cm⁻¹)
eigval :       -0.00    -0.00    -0.00    -0.00     0.00     0.00
eigval :       13.66    23.33    24.83    34.61    41.64    54.63
eigval :       71.51    81.70   104.57   108.97   120.76   122.36
eigval :      133.03   135.83   145.52   164.91   183.84   199.15
eigval :      211.86   215.74   229.25   246.17   258.41   264.23
eigval :      271.30   311.90   321.25   336.38   341.63   365.19
eigval :      384.95   395.18   397.36   425.44   432.46   446.97
eigval :      453.16   459.20   461.20   466.56   511.27   517.33
eigval :      534.76   537.48   545.49   554.03   563.29   572.15
eigval :      583.08   586.99   600.69   610.91   637.33   642.78
eigval :      648.52   686.70   694.69   695.60   699.76   722.04
eigval :      727.72   744.00   765.22   773.90   775.54   777.73
eigval :      785.72   815.20   823.23   830.31   869.26   874.61
eigval :      876.57   878.31   890.16   898.23   909.10   915.41
eigval :      916.99   920.01   920.97   924.07   926.16   927.74
eigval :      928.66   930.43   931.87   947.45   966.46   973.14
eigval :      995.06  1013.35  1019.03  1070.06  1078.78  1080.06
eigval :     1080.94  1110.87  1130.28  1134.06  1138.28  1153.23
eigval :     1160.51  1172.48  1179.57  1182.25  1182.92  1184.33
eigval :     1197.97  1206.11  1224.46  1227.40  1231.98  1241.88
eigval :     1255.12  1258.87  1261.22  1264.81  1271.51  1287.71
eigval :     1306.76  1319.16  1327.99  1348.57  1358.66  1373.49
eigval :     1383.23  1391.76  1393.51  1409.53  1415.50  1423.68
eigval :     1427.27  1434.32  1445.32  1454.35  1468.38  1480.17
eigval :     1483.72  1486.70  1490.32  1494.97  1499.72  1524.94
eigval :     1526.68  1539.87  1544.55  1575.08  1584.87  1592.59
eigval :     1600.00  1606.69  1607.45  1620.89  2360.32  3024.42
eigval :     3027.90  3029.34  3031.34  3036.23  3039.00  3065.07
eigval :     3069.21  3069.76  3069.92  3069.98  3073.45  3076.36
eigval :     3076.51  3076.99  3079.97  3081.32  3081.83  3085.65
eigval :     3086.69  3087.95  3090.97  3092.47  3092.68  3094.22

   temp. (K)  partition function   enthalpy   heat capacity  entropy
                                   cal/mol     cal/K/mol   cal/K/mol   J/K/mol
 298.15  VIB  0.277E+13            17215.656    110.898    105.179
         ROT  0.362E+08              888.752      2.981     37.570
         INT  0.100E+21            18104.408    113.878    142.749
         TR   0.991E+28             1481.254      4.968     44.321
         TOT                       19585.6622   118.8466   187.0696   782.6994

       T/K    H(0)-H(T)+PV         H(T)/Eh          T*S/Eh         G(T)/Eh
   ------------------------------------------------------------------------
    298.15    0.312117E-01    0.513625E+00    0.888828E-01    0.424742E+00
   ------------------------------------------------------------------------

         :::::::::::::::::::::::::::::::::::::::::::::::::::::
         ::                  THERMODYNAMIC                  ::
         :::::::::::::::::::::::::::::::::::::::::::::::::::::
         :: total free energy         -92.362148669941 Eh   ::
         ::.................................................::
         :: total energy              -92.786891069287 Eh   ::
         :: zero point energy           0.482413482741 Eh   ::
         :: G(RRHO) w/o ZPVE           -0.057671083395 Eh   ::
         :: G(RRHO) contrib.            0.424742399346 Eh   ::
         :::::::::::::::::::::::::::::::::::::::::::::::::::::

           -------------------------------------------------
          | TOTAL ENERGY              -92.786891069287 Eh   |
          | TOTAL ENTHALPY            -92.273265847173 Eh   |
          | TOTAL FREE ENERGY         -92.362148669941 Eh   |
          | GRADIENT NORM               0.000061243995 Eh/α |
          | HOMO-LUMO GAP               2.057802288226 eV   |
           -------------------------------------------------

 * finished run on 2025/09/12 at 05:29:31.926
