   * xtb version 6.7.1 (edcfbbe) compiled by 'albert@albert-system' on 2024-07-22

   ID    Z sym.   atoms
    1    6 C      1-26, 28-37
    2    7 N      27
    3    1 H      38-62

          program call               : xtb data2507/toluene/DMF-AnCN/DMF-AnCN.xyz --gfn 2 --gbsa toluene --ohess vtight --parallel 40 --molden --ceasefiles --namespace data2507/toluene/DMF-AnCN/DMF-AnCN_toluene_S0_preOpt
      * Solvation model:               GBSA
        Solvent                        toluene
        Solvent mass                       9.2140E+01 g/mol
          :  Hamiltonian                  GFN2-xTB          :
 * total energy  :   -92.7724340 Eh     change       -0.1234355E-08 Eh
 * total energy  :   -92.7838215 Eh     change       -0.1138745E-01 Eh
 * total energy  :   -92.7862644 Eh     change       -0.2442894E-02 Eh
 * total energy  :   -92.7864835 Eh     change       -0.2191095E-03 Eh
 * total energy  :   -92.7865550 Eh     change       -0.7153434E-04 Eh
 * total energy  :   -92.7864920 Eh     change        0.6305702E-04 Eh
 * total energy  :   -92.7865706 Eh     change       -0.7867301E-04 Eh
 * total energy  :   -92.7865738 Eh     change       -0.3141567E-05 Eh
 * total energy  :   -92.7865757 Eh     change       -0.1906477E-05 Eh
 * total energy  :   -92.7865763 Eh     change       -0.6210870E-06 Eh
 * total energy  :   -92.7865768 Eh     change       -0.4941450E-06 Eh
 * total energy  :   -92.7865771 Eh     change       -0.3195402E-06 Eh
 * total energy  :   -92.7865771 Eh     change       -0.3397616E-08 Eh
 * total energy  :   -92.7865772 Eh     change       -0.1288786E-06 Eh
 * total energy  :   -92.7865773 Eh     change       -0.5149128E-07 Eh
   *** GEOMETRY OPTIMIZATION CONVERGED AFTER 15 ITERATIONS ***

 final structure:
================
62
 xtb: 6.7.1 (edcfbbe)
C           -4.15234735668992       -1.26016127037307       -2.15485886815179
C           -4.21353978435888       -0.00093015838328       -1.28319569810040
C           -4.15226734942413        1.25718811044427       -2.15646389765885
C           -5.44749258481310       -0.00029811468601       -0.40746311218616
C           -6.77431422603731       -0.00047659968384       -0.78175996062211
C           -7.75022987504214        0.00030794194269        0.20664334526597
C           -7.40128018266116        0.00122439486681        1.54855060977845
C           -6.07013688380799        0.00140544416193        1.93401811498759
C           -5.09457634246297        0.00064273917144        0.95035656758029
C           -3.64336532505475        0.00066770624962        1.04877351715784
C           -2.80626287987024        0.00145956657650        2.15270330498237
C           -1.43648291317085        0.00132363510790        1.94983182334369
C           -0.90114676053598        0.00041397170645        0.66463209607655
C            0.56883501697554        0.00028672602195        0.47593044688958
C            1.25940724848859       -1.21537525004114        0.38994526862978
C            0.58499560378757       -2.46266843205997        0.46740499286733
C            1.26622016102308       -3.63798502542196        0.38517240079677
C            2.66685063880794       -3.63898237212931        0.22005627959750
C            3.35098471335381       -2.46514001448859        0.13989828909449
C            2.67903240519089       -1.21641290086269        0.21939967097123
C            3.36826727333811        0.00003385583914        0.13709878991147
C            4.83910514057811       -0.00007860003300       -0.04053576551475
C            5.39190541671126       -0.00090595454550       -1.31946243231624
C            6.76109148936168       -0.00097262049213       -1.49342784507998
C            7.59976327480798       -0.00019425693214       -0.37651557372286
C            9.00111887027959       -0.00021085094018       -0.54577720620625
N           10.14131602800969       -0.00024329378295       -0.68178714146012
C            7.05308643489738        0.00062483628239        0.90883839993715
C            5.68219876864951        0.00067827548025        1.06859020886318
C            2.67915008051601        1.21660424822166        0.21855340585049
C            3.35121494446300        2.46521127379979        0.13810699325228
C            2.66719090477391        3.63917523632266        0.21741745915843
C            1.26656066314686        3.63842903274258        0.38253554553457
C            0.58522769446384        2.46323456742982        0.46562473018249
C            1.25952624077843        1.21582304023497        0.38910883872224
C           -1.74682280279865       -0.00038448441397       -0.44432828398288
C           -3.10993393670878       -0.00024998488337       -0.24875372200973
H           -4.19950662755832       -2.15227784326686       -1.53306141907047
H           -3.22516523092456       -1.28086867021852       -2.72285968784088
H           -4.98801132126578       -1.27780308067191       -2.85047000458778
H           -4.19930342085793        2.15008737265128       -1.53578441392105
H           -3.22510922190500        1.27708401347490       -2.72453187246843
H           -4.98796352972847        1.27403508447273       -2.85205536639332
H           -7.05883803842470       -0.00118988699261       -1.82418103339916
H           -8.79410628420768        0.00019176249961       -0.07318163762164
H           -8.17677324680445        0.00181467543724        2.30143227858297
H           -5.80136195071816        0.00212415426384        2.98038734118176
H           -3.20957986042295        0.00217489607869        3.15470347965710
H           -0.76426372852224        0.00194095013906        2.79646332586632
H           -0.48784535691620       -2.45774548895768        0.59383773603323
H            0.74064284564689       -4.57996595666298        0.44514958412540
H            3.19120397753105       -4.58162936111640        0.15830511631981
H            4.42406961519838       -2.46671882022379        0.01355600917677
H            4.73776242408376       -0.00149229046445       -2.17892852182830
H            7.19086830957029       -0.00160462036135       -2.48456534646513
H            7.70824751447069        0.00122087967010        1.76781079729591
H            5.25364509612712        0.00131265595254        2.06002695885068
H            4.42429227581720        2.46660320228097        0.01169872715827
H            3.19163001617246        4.58172796895680        0.15495932040181
H            0.74107573069159        4.58050138215433        0.44187264472240
H           -0.48761266425536        2.45850127351717        0.59206581343322
H           -1.32084513176379       -0.00108967106249       -1.43751242162942

          :  Hamiltonian                  GFN2-xTB          :
         :: gradient norm              0.000025994306 Eh/a0 ::
         :: HOMO-LUMO gap              2.191567779966 eV    ::
         :: SCC energy               -94.595218669425 Eh    ::
         :: -> dispersion             -0.085180995488 Eh    ::
         :: -> Gsolv                  -0.041116639378 Eh    ::
         :: repulsion energy           1.808641376666 Eh    ::

    * Orbital Energies and Occupations

         #    Occupation            Energy/Eh            Energy/eV
      -------------------------------------------------------------
         1        2.0000           -0.6698344             -18.2271
       ...           ...                  ...                  ...
        75        2.0000           -0.4264082             -11.6032
        76        2.0000           -0.4220072             -11.4834
        77        2.0000           -0.4180700             -11.3763
        78        2.0000           -0.4136885             -11.2570
        79        2.0000           -0.4122380             -11.2176
        80        2.0000           -0.4092350             -11.1359
        81        2.0000           -0.4089692             -11.1286
        82        2.0000           -0.4059043             -11.0452
        83        2.0000           -0.4027465             -10.9593
        84        2.0000           -0.4018150             -10.9339
        85        2.0000           -0.3962643             -10.7829
        86        2.0000           -0.3759389             -10.2298
        87        2.0000           -0.3627199              -9.8701 (HOMO)
        88                         -0.2821812              -7.6785 (LUMO)
        89                         -0.2751416              -7.4870
        90                         -0.2497739              -6.7967
        91                         -0.2431325              -6.6160
        92                         -0.2340748              -6.3695
        93                         -0.2237607              -6.0888
        94                         -0.2224531              -6.0533
        95                         -0.2183527              -5.9417
        96                         -0.2136606              -5.8140
        97                         -0.1884972              -5.1293
        98                         -0.1806886              -4.9168
       ...                                ...                  ...
       173                          1.1581648              31.5153
      -------------------------------------------------------------
                  HL-Gap            0.0805386 Eh            2.1916 eV

     #   Z          covCN         q      C6AA      α(0)
     1   6 C        3.758    -0.098    22.422     6.751
     2   6 C        3.935     0.019    20.193     6.386
     3   6 C        3.758    -0.098    22.422     6.751
     4   6 C        3.054    -0.002    28.024     8.682
     5   6 C        2.915    -0.035    28.868     8.810
     6   6 C        2.921    -0.035    28.863     8.810
     7   6 C        2.921    -0.035    28.869     8.811
     8   6 C        2.914    -0.036    28.899     8.815
     9   6 C        3.036    -0.002    28.046     8.686
    10   6 C        3.036    -0.004    28.093     8.694
    11   6 C        2.913    -0.036    28.896     8.815
    12   6 C        2.925    -0.037    28.928     8.820
    13   6 C        2.979     0.011    27.761     8.643
    14   6 C        2.978    -0.003    28.083     8.693
    15   6 C        2.984     0.006    27.873     8.660
    16   6 C        2.917    -0.033    28.818     8.803
    17   6 C        2.914    -0.030    28.754     8.793
    18   6 C        2.914    -0.029    28.736     8.790
    19   6 C        2.917    -0.035    28.878     8.812
    20   6 C        2.984     0.007    27.862     8.659
    21   6 C        2.978    -0.009    28.235     8.716
    22   6 C        2.977     0.030    27.324     8.574
    23   6 C        2.922    -0.027    28.671     8.781
    24   6 C        2.924    -0.018    28.470     8.750
    25   6 C        2.974     0.014    27.704     8.634
    26   6 C        1.912     0.118    28.188     8.574
    27   7 N        0.911    -0.276    27.119     7.532
    28   6 C        2.925    -0.018    28.470     8.750
    29   6 C        2.922    -0.027    28.671     8.781
    30   6 C        2.984     0.007    27.862     8.659
    31   6 C        2.917    -0.035    28.878     8.812
    32   6 C        2.914    -0.029    28.736     8.790
    33   6 C        2.914    -0.030    28.754     8.793
    34   6 C        2.917    -0.033    28.818     8.803
    35   6 C        2.984     0.006    27.873     8.660
    36   6 C        2.919    -0.037    28.930     8.820
    37   6 C        3.053    -0.001    28.009     8.680
    38   1 H        0.925     0.034     2.530     2.487
    39   1 H        0.925     0.044     2.402     2.423
    40   1 H        0.925     0.043     2.406     2.426
    41   1 H        0.925     0.034     2.530     2.487
    42   1 H        0.925     0.044     2.402     2.423
    43   1 H        0.925     0.043     2.406     2.426
    44   1 H        0.926     0.030     2.591     2.517
    45   1 H        0.926     0.029     2.607     2.525
    46   1 H        0.926     0.028     2.622     2.532
    47   1 H        0.926     0.028     2.611     2.527
    48   1 H        0.926     0.030     2.586     2.515
    49   1 H        0.926     0.027     2.627     2.534
    50   1 H        0.926     0.033     2.540     2.492
    51   1 H        0.926     0.032     2.562     2.503
    52   1 H        0.926     0.031     2.566     2.505
    53   1 H        0.926     0.029     2.607     2.525
    54   1 H        0.926     0.046     2.367     2.406
    55   1 H        0.926     0.044     2.401     2.423
    56   1 H        0.926     0.043     2.404     2.425
    57   1 H        0.926     0.046     2.370     2.407
    58   1 H        0.926     0.029     2.607     2.525
    59   1 H        0.926     0.031     2.566     2.505
    60   1 H        0.926     0.032     2.562     2.503
    61   1 H        0.926     0.033     2.540     2.492
    62   1 H        0.926     0.029     2.594     2.519

molecular dipole:
                 x           y           z       tot (Debye)
 q only:       -1.848      -0.000      -0.193
   full:       -2.223      -0.000      -0.093       5.656

 projected vibrational frequencies (cm⁻¹)
eigval :       -0.00    -0.00    -0.00    -0.00     0.00     0.00
eigval :      -22.95     2.84    15.10    16.98    34.54    54.77
eigval :       73.05    73.77   100.70   101.91   111.94   112.56
eigval :      130.97   134.74   145.69   161.95   181.48   200.73
eigval :      208.90   214.24   220.07   244.36   252.60   262.58
eigval :      263.22   312.08   316.82   335.99   337.33   355.70
eigval :      388.52   394.24   394.94   426.14   435.89   446.43
eigval :      447.52   457.01   460.51   464.38   510.74   517.90
eigval :      532.58   534.57   543.61   553.74   561.87   572.02
eigval :      583.91   585.95   600.75   612.95   639.67   639.95
eigval :      649.09   687.10   691.55   693.40   698.01   721.52
eigval :      726.01   742.14   765.19   773.77   775.20   780.97
eigval :      785.76   811.58   823.23   827.23   867.54   873.36
eigval :      875.09   881.68   885.74   898.25   911.36   913.48
eigval :      914.77   918.06   918.44   924.35   925.56   926.97
eigval :      927.23   929.42   931.99   946.85   965.82   973.17
eigval :      995.37  1012.42  1018.94  1069.94  1076.87  1077.53
eigval :     1077.91  1110.69  1130.14  1133.98  1138.29  1151.59
eigval :     1157.47  1172.21  1178.08  1181.04  1181.60  1183.89
eigval :     1197.12  1205.04  1224.99  1225.33  1230.90  1240.98
eigval :     1254.59  1258.68  1261.16  1263.45  1270.76  1286.66
eigval :     1304.05  1318.87  1329.37  1348.36  1358.03  1373.76
eigval :     1383.42  1390.10  1392.33  1408.51  1416.95  1423.42
eigval :     1428.14  1434.86  1447.04  1454.90  1468.37  1482.61
eigval :     1483.56  1486.38  1493.00  1493.96  1499.31  1525.00
eigval :     1532.35  1542.35  1545.05  1575.74  1586.33  1592.57
eigval :     1601.02  1607.20  1607.64  1622.02  2361.73  3023.43
eigval :     3026.57  3029.55  3031.17  3035.78  3038.48  3064.37
eigval :     3068.50  3069.09  3069.64  3069.66  3073.59  3074.39
eigval :     3074.52  3075.77  3080.61  3081.35  3081.79  3082.64
eigval :     3082.98  3085.12  3089.30  3090.82  3091.36  3093.26

   temp. (K)  partition function   enthalpy   heat capacity  entropy
                                   cal/mol     cal/K/mol   cal/K/mol   J/K/mol
 298.15  VIB  0.763E+13            16821.714    109.639    104.244
         ROT  0.362E+08              888.752      2.981     37.569
         INT  0.276E+21            17710.466    112.619    141.813
         TR   0.991E+28             1481.254      4.968     44.321
         TOT                       19191.7204   117.5876   186.1341   778.7851

       T/K    H(0)-H(T)+PV         H(T)/Eh          T*S/Eh         G(T)/Eh
   ------------------------------------------------------------------------
    298.15    0.305840E-01    0.512448E+00    0.884383E-01    0.424010E+00
   ------------------------------------------------------------------------

         :::::::::::::::::::::::::::::::::::::::::::::::::::::
         ::                  THERMODYNAMIC                  ::
         :::::::::::::::::::::::::::::::::::::::::::::::::::::
         :: total free energy         -92.362567373902 Eh   ::
         ::.................................................::
         :: total energy              -92.786577292245 Eh   ::
         :: zero point energy           0.481864280525 Eh   ::
         :: G(RRHO) w/o ZPVE           -0.057854362183 Eh   ::
         :: G(RRHO) contrib.            0.424009918343 Eh   ::
         :::::::::::::::::::::::::::::::::::::::::::::::::::::

           -------------------------------------------------
          | TOTAL ENERGY              -92.786577292245 Eh   |
          | TOTAL ENTHALPY            -92.274129058588 Eh   |
          | TOTAL FREE ENERGY         -92.362567373902 Eh   |
          | GRADIENT NORM               0.000025999947 Eh/α |
          | HOMO-LUMO GAP               2.191567744139 eV   |
           -------------------------------------------------

 * finished run on 2025/09/12 at 05:26:48.464
