   * xtb version 6.7.1 (edcfbbe) compiled by 'albert@albert-system' on 2024-07-22

   ID    Z sym.   atoms
    1    6 C      1-26, 28-37
    2    7 N      27
    3    1 H      38-62

          program call               : xtb data2507/toluene/DMF-AnCN/DMF-AnCN_toluene_T1_crest.xyz --gfn 2 --uhf 2 --gbsa toluene --ohess vtight --parallel 40 --molden --ceasefiles --namespace data2507/toluene/DMF-AnCN/DMF-AnCN_toluene_T1_finalOpt
      * Solvation model:               GBSA
        Solvent                        toluene
        Solvent mass                       9.2140E+01 g/mol
          :  Hamiltonian                  GFN2-xTB          :
 * total energy  :   -92.7203595 Eh     change       -0.1990230E-08 Eh
 * total energy  :   -92.7203892 Eh     change       -0.2969067E-04 Eh
 * total energy  :   -92.7203910 Eh     change       -0.1755641E-05 Eh
 * total energy  :   -92.7203756 Eh     change        0.1532431E-04 Eh
 * total energy  :   -92.7203991 Eh     change       -0.2347056E-04 Eh
 * total energy  :   -92.7204033 Eh     change       -0.4221260E-05 Eh
 * total energy  :   -92.7204055 Eh     change       -0.2154159E-05 Eh
 * total energy  :   -92.7204120 Eh     change       -0.6554712E-05 Eh
 * total energy  :   -92.7204192 Eh     change       -0.7119265E-05 Eh
 * total energy  :   -92.7204255 Eh     change       -0.6356169E-05 Eh
 * total energy  :   -92.7204441 Eh     change       -0.3240205E-06 Eh
 * total energy  :   -92.7204442 Eh     change       -0.8919345E-07 Eh
 * total energy  :   -92.7204444 Eh     change       -0.1875452E-06 Eh
 * total energy  :   -92.7204438 Eh     change        0.6220994E-06 Eh
 * total energy  :   -92.7204447 Eh     change       -0.9772488E-06 Eh
 * total energy  :   -92.7204449 Eh     change       -0.1416308E-06 Eh
 * total energy  :   -92.7204451 Eh     change       -0.1959951E-06 Eh
 * total energy  :   -92.7204452 Eh     change       -0.1051733E-06 Eh
 * total energy  :   -92.7204453 Eh     change       -0.9915847E-07 Eh
   *** GEOMETRY OPTIMIZATION CONVERGED AFTER 30 ITERATIONS ***

 final structure:
================
62
 xtb: 6.7.1 (edcfbbe)
C           -4.56092071973168        0.80227200591153       -2.57864390689872
C           -4.65777995402795        1.07294870646318       -1.07294427234159
C           -4.57186422118113        2.57753953940752       -0.79437745947442
C           -5.92064936656467        0.47603221347520       -0.49139794287599
C           -7.23373641527064        0.77357666723528       -0.78520622387914
C           -8.24253201933166        0.08710251238138       -0.12045574462654
C           -7.93943879355499       -0.88254782291380        0.82452062276690
C           -6.62327493410964       -1.18893308737005        1.12723514836183
C           -5.61323015102333       -0.50543133197717        0.46586561360190
C           -4.17177475585723       -0.60728571790974        0.57330416104036
C           -3.36699712776258       -1.42010154274998        1.36123953675697
C           -1.99570081973904       -1.31478971937474        1.24793622961700
C           -1.40027417549100       -0.39130239276039        0.37492773119135
C            0.04805441834075       -0.28336236220417        0.28313215152422
C            0.83711497421751       -1.44339959136245        0.01384768759396
C            0.25117454233718       -2.68385049048099       -0.26319256307577
C            1.01943693919599       -3.83176657425039       -0.42449720747972
C            2.39316762078976       -3.76039179898060       -0.30826655701946
C            3.00533277913038       -2.52714787990537       -0.10864446709418
C            2.26081677706373       -1.34665041726835       -0.01185907116645
C            2.88918363465914       -0.06509304180245        0.09384289374641
C            4.33265216309910        0.04554741509958       -0.01164681880010
C            5.02195844381188       -0.50975175234782       -1.10349327954976
C            6.38681647615795       -0.39772525562523       -1.21638970967333
C            7.12266542802733        0.26120474679347       -0.22111631222500
C            8.51868196348072        0.37100436816151       -0.32758262964469
N            9.66305985584020        0.46102428106206       -0.41531519431434
C            6.45079744136308        0.81012564830916        0.88040488272691
C            5.08334900560584        0.71097478881677        0.97289363588941
C            2.09365995233533        1.10699539519606        0.29805092264854
C            2.65609163610153        2.38796713584664        0.30987215927961
C            1.89454824211908        3.51588961370807        0.59839160455532
C            0.55279967903471        3.37883780825031        0.89264690716972
C           -0.04591189560771        2.12569026895523        0.82200718573462
C            0.68075458990980        0.98573107428228        0.45944886714275
C           -2.22584571451431        0.43369154053415       -0.40813871931647
C           -3.58974502915114        0.31498187310462       -0.31501779914979
H           -3.61449213936748        1.17053176939361       -2.96744968461729
H           -5.37158806128628        1.30156230578073       -3.10390897861928
H           -4.62585990620021       -0.26621654564233       -2.77540027287512
H           -3.62731593034300        2.97459861487111       -1.15886461939263
H           -5.38446363044879        3.10003175330623       -1.29338796626158
H           -4.64218538356138        2.76858464294657        0.27487588491675
H           -7.48414855930301        1.52597491935856       -1.51905959902174
H           -9.27628899255767        0.31070492868437       -0.34215949376147
H           -8.74052707748969       -1.40347824102691        1.32935153068732
H           -6.38953225317522       -1.94373254969267        1.86371006405244
H           -3.80375525197512       -2.12149705436226        2.05687906748531
H           -1.35776475763466       -1.92197989891018        1.87422093308615
H           -0.82146232511295       -2.75311404705245       -0.35792074187633
H            0.53394866292209       -4.77560665491435       -0.62404071118206
H            2.99899602329039       -4.65098243622234       -0.38484954295952
H            4.08022291736646       -2.48730646147568       -0.02148080337373
H            4.45881176693482       -0.99507064223510       -1.88713139830169
H            6.90315193250735       -0.80907703876556       -2.07198516213645
H            7.01951091222074        1.30472968152850        1.65495386192225
H            4.57599230331132        1.11293344313300        1.83764545989368
H            3.70412834255007        2.51152947072648        0.08444067981059
H            2.36310204369716        4.48880017426916        0.60451349217016
H           -0.04078872064705        4.23983187355368        1.16232992776525
H           -1.09452111052401        2.03155920619477        1.05772770134908
H           -1.77202037837364        1.12297724094313       -1.10527159949835

          :  Hamiltonian                  GFN2-xTB          :
         :: gradient norm              0.000053295286 Eh/a0 ::
         :: HOMO-LUMO gap              0.822255716633 eV    ::
         :: SCC energy               -94.508119435166 Eh    ::
         :: -> dispersion             -0.085707114207 Eh    ::
         :: -> Gsolv                  -0.041536363448 Eh    ::
         :: repulsion energy           1.787674159030 Eh    ::

    * Orbital Energies and Occupations

         #    Occupation            Energy/Eh            Energy/eV
      -------------------------------------------------------------
         1        2.0000           -0.6621955             -18.0193
       ...           ...                  ...                  ...
        76        2.0000           -0.4201066             -11.4317
        77        2.0000           -0.4173970             -11.3580
        78        2.0000           -0.4155566             -11.3079
        79        2.0000           -0.4142003             -11.2710
        80        2.0000           -0.4123528             -11.2207
        81        2.0000           -0.4070418             -11.0762
        82        2.0000           -0.4056792             -11.0391
        83        2.0000           -0.4054630             -11.0332
        84        2.0000           -0.4014746             -10.9247
        85        2.0000           -0.3978179             -10.8252
        86        2.0000           -0.3805823             -10.3562
        87        1.0000           -0.3548290              -9.6554
        88        1.0000           -0.2962967              -8.0626 (HOMO)
        89        0.0000           -0.2660795              -7.2404 (LUMO)
        90                         -0.2528121              -6.8794
        91                         -0.2354101              -6.4058
        92                         -0.2326092              -6.3296
        93                         -0.2280146              -6.2046
        94                         -0.2242477              -6.1021
        95                         -0.2202996              -5.9947
        96                         -0.2057649              -5.5991
        97                         -0.2004070              -5.4534
        98                         -0.1891603              -5.1473
        99                         -0.1740149              -4.7352
       ...                                ...                  ...
       173                          1.1615956              31.6086
      -------------------------------------------------------------
                  HL-Gap            0.0302172 Eh            0.8223 eV

     #   Z          covCN         q      C6AA      α(0)
     1   6 C        3.758    -0.099    22.439     6.754
     2   6 C        3.934     0.019    20.186     6.385
     3   6 C        3.758    -0.099    22.437     6.753
     4   6 C        3.055    -0.000    27.981     8.675
     5   6 C        2.914    -0.034    28.849     8.808
     6   6 C        2.921    -0.033    28.819     8.803
     7   6 C        2.920    -0.034    28.842     8.807
     8   6 C        2.914    -0.035    28.872     8.811
     9   6 C        3.035    -0.001    28.011     8.681
    10   6 C        3.036    -0.000    28.001     8.679
    11   6 C        2.911    -0.035    28.874     8.811
    12   6 C        2.924    -0.035    28.877     8.813
    13   6 C        2.975     0.013    27.708     8.634
    14   6 C        2.973    -0.008    28.218     8.713
    15   6 C        2.977     0.010    27.784     8.646
    16   6 C        2.921    -0.036    28.898     8.815
    17   6 C        2.914    -0.029    28.714     8.787
    18   6 C        2.914    -0.031    28.781     8.797
    19   6 C        2.921    -0.035    28.874     8.812
    20   6 C        2.977     0.009    27.822     8.652
    21   6 C        2.972    -0.005    28.147     8.702
    22   6 C        2.972     0.020    27.567     8.612
    23   6 C        2.921    -0.030    28.759     8.794
    24   6 C        2.921    -0.023    28.577     8.766
    25   6 C        2.972     0.005    27.913     8.666
    26   6 C        1.911     0.113    28.318     8.594
    27   7 N        0.911    -0.299    27.702     7.612
    28   6 C        2.921    -0.023    28.577     8.766
    29   6 C        2.921    -0.030    28.760     8.794
    30   6 C        2.977     0.009    27.823     8.652
    31   6 C        2.921    -0.035    28.878     8.812
    32   6 C        2.914    -0.031    28.782     8.797
    33   6 C        2.914    -0.029    28.717     8.787
    34   6 C        2.921    -0.036    28.901     8.816
    35   6 C        2.977     0.010    27.783     8.646
    36   6 C        2.918    -0.036    28.908     8.817
    37   6 C        3.050    -0.000    27.981     8.675
    38   1 H        0.925     0.044     2.390     2.418
    39   1 H        0.925     0.044     2.392     2.418
    40   1 H        0.925     0.035     2.518     2.482
    41   1 H        0.925     0.045     2.385     2.415
    42   1 H        0.925     0.044     2.395     2.420
    43   1 H        0.925     0.035     2.520     2.482
    44   1 H        0.926     0.032     2.563     2.504
    45   1 H        0.926     0.031     2.579     2.511
    46   1 H        0.926     0.029     2.595     2.519
    47   1 H        0.926     0.031     2.578     2.511
    48   1 H        0.926     0.033     2.538     2.491
    49   1 H        0.926     0.034     2.523     2.484
    50   1 H        0.926     0.039     2.459     2.452
    51   1 H        0.926     0.034     2.526     2.485
    52   1 H        0.926     0.033     2.546     2.495
    53   1 H        0.926     0.036     2.508     2.476
    54   1 H        0.926     0.043     2.410     2.428
    55   1 H        0.926     0.035     2.511     2.478
    56   1 H        0.926     0.035     2.512     2.478
    57   1 H        0.926     0.043     2.410     2.428
    58   1 H        0.926     0.036     2.509     2.477
    59   1 H        0.926     0.033     2.547     2.496
    60   1 H        0.926     0.035     2.519     2.482
    61   1 H        0.926     0.040     2.443     2.444
    62   1 H        0.926     0.036     2.499     2.472

molecular dipole:
                 x           y           z       tot (Debye)
 q only:       -3.272       0.073      -0.073
   full:       -3.629       0.001      -0.008       9.225

 projected vibrational frequencies (cm⁻¹)
eigval :       -0.00    -0.00    -0.00     0.00     0.00     0.00
eigval :       13.65    23.91    29.74    39.85    45.66    67.45
eigval :       77.63    82.14   108.79   115.80   126.44   130.02
eigval :      132.16   144.35   146.60   170.20   181.19   204.99
eigval :      219.36   223.60   231.58   249.73   262.85   264.19
eigval :      281.85   312.47   323.05   334.91   339.65   366.25
eigval :      371.10   387.46   396.30   398.79   420.58   429.18
eigval :      441.74   458.31   465.54   468.67   509.85   517.40
eigval :      531.99   535.72   541.23   551.07   556.60   571.03
eigval :      574.85   583.61   597.11   599.00   622.67   637.63
eigval :      641.88   673.72   684.50   689.57   696.55   716.59
eigval :      723.17   726.18   748.58   761.61   761.81   777.25
eigval :      780.41   813.16   819.22   830.92   846.47   850.93
eigval :      864.64   877.76   888.90   891.95   893.78   903.41
eigval :      905.61   910.20   910.92   920.69   924.38   925.67
eigval :      928.06   933.50   943.99   948.16   966.24   974.01
eigval :      990.29  1009.54  1013.29  1067.98  1076.35  1101.14
eigval :     1103.22  1110.12  1115.82  1125.49  1133.01  1150.58
eigval :     1157.04  1171.98  1176.74  1178.74  1180.33  1183.27
eigval :     1186.26  1197.39  1224.30  1228.11  1230.93  1242.64
eigval :     1249.69  1253.44  1262.04  1270.56  1282.97  1286.15
eigval :     1303.22  1304.09  1311.00  1322.85  1336.01  1351.02
eigval :     1356.34  1364.99  1378.44  1393.12  1406.80  1408.68
eigval :     1409.61  1416.53  1423.10  1430.47  1445.24  1458.34
eigval :     1467.08  1475.49  1483.68  1486.26  1492.88  1494.74
eigval :     1498.12  1498.98  1525.65  1526.51  1545.38  1548.79
eigval :     1562.22  1576.74  1587.36  1601.77  2321.57  3024.65
eigval :     3027.99  3030.74  3032.68  3036.83  3039.69  3066.81
eigval :     3070.75  3071.75  3074.28  3075.04  3075.07  3075.84
eigval :     3078.03  3078.52  3083.18  3083.45  3083.70  3086.69
eigval :     3086.82  3088.81  3094.54  3095.89  3098.19  3099.84

   temp. (K)  partition function   enthalpy   heat capacity  entropy
                                   cal/mol     cal/K/mol   cal/K/mol   J/K/mol
 298.15  VIB  0.119E+13            17223.000    112.246    104.600
         ROT  0.364E+08              888.752      2.981     37.581
         INT  0.433E+20            18111.752    115.227    142.181
         TR   0.991E+28             1481.254      4.968     44.321
         TOT                       19593.0063   120.1950   186.5019   780.3241

       T/K    H(0)-H(T)+PV         H(T)/Eh          T*S/Eh         G(T)/Eh
   ------------------------------------------------------------------------
    298.15    0.312234E-01    0.511243E+00    0.886131E-01    0.422630E+00
   ------------------------------------------------------------------------

         :::::::::::::::::::::::::::::::::::::::::::::::::::::
         ::                  THERMODYNAMIC                  ::
         :::::::::::::::::::::::::::::::::::::::::::::::::::::
         :: total free energy         -92.297815667273 Eh   ::
         ::.................................................::
         :: total energy              -92.720445277796 Eh   ::
         :: zero point energy           0.480019253361 Eh   ::
         :: G(RRHO) w/o ZPVE           -0.057389642838 Eh   ::
         :: G(RRHO) contrib.            0.422629610523 Eh   ::
         :::::::::::::::::::::::::::::::::::::::::::::::::::::

           -------------------------------------------------
          | TOTAL ENERGY              -92.720445277796 Eh   |
          | TOTAL ENTHALPY            -92.209202581409 Eh   |
          | TOTAL FREE ENERGY         -92.297815667273 Eh   |
          | GRADIENT NORM               0.000053364677 Eh/α |
          | HOMO-LUMO GAP               0.822252525659 eV   |
           -------------------------------------------------

 * finished run on 2025/09/12 at 05:32:11.077
