   * xtb version 6.7.1 (edcfbbe) compiled by 'albert@albert-system' on 2024-07-22

   ID    Z sym.   atoms
    1    6 C      1-6, 8-12, 16, 17, 19-50
    2    5 B      7
    3    9 F      13-15
    4    7 N      18
    5    1 H      51-99

          program call               : xtb data2507/toluene/BuCzCF3oB/BuCzCF3oB_toluene_S0_finalOpt.xtbopt.xyz --gfn 2 --uhf 2 --gbsa toluene --ohess vtight --parallel 40 --molden --ceasefiles --namespace data2507/toluene/BuCzCF3oB/BuCzCF3oB_toluene_T1_preOpt
      * Solvation model:               GBSA
        Solvent                        toluene
        Solvent mass                       9.2140E+01 g/mol
          :  Hamiltonian                  GFN2-xTB          :
 * total energy  :  -139.7697870 Eh     change       -0.7077546E-08 Eh
 * total energy  :  -139.7739196 Eh     change       -0.4132614E-02 Eh
 * total energy  :  -139.7755115 Eh     change       -0.1591955E-02 Eh
 * total energy  :  -139.7757293 Eh     change       -0.2177914E-03 Eh
 * total energy  :  -139.7759917 Eh     change       -0.2623376E-03 Eh
 * total energy  :  -139.7761107 Eh     change       -0.1190475E-03 Eh
 * total energy  :  -139.7762835 Eh     change       -0.1728000E-03 Eh
 * total energy  :  -139.7764211 Eh     change       -0.1375716E-03 Eh
 * total energy  :  -139.7765016 Eh     change       -0.8053554E-04 Eh
 * total energy  :  -139.7765475 Eh     change       -0.4590973E-04 Eh
 * total energy  :  -139.7770696 Eh     change        0.4076900E-06 Eh
 * total energy  :  -139.7770713 Eh     change       -0.1736568E-05 Eh
 * total energy  :  -139.7770723 Eh     change       -0.9654204E-06 Eh
 * total energy  :  -139.7770733 Eh     change       -0.1001697E-05 Eh
 * total energy  :  -139.7770739 Eh     change       -0.5728468E-06 Eh
 * total energy  :  -139.7770742 Eh     change       -0.3557328E-06 Eh
 * total energy  :  -139.7770745 Eh     change       -0.3223194E-06 Eh
 * total energy  :  -139.7770747 Eh     change       -0.1674081E-06 Eh
 * total energy  :  -139.7770747 Eh     change       -0.3086956E-07 Eh
   *** GEOMETRY OPTIMIZATION CONVERGED AFTER 66 ITERATIONS ***

 final structure:
================
99
 xtb: 6.7.1 (edcfbbe)
C           -2.89965098852766       -2.86647978066021        2.39537947815051
C           -1.57976954155353       -2.23519359816997        2.09307486858398
C           -0.58712974148669       -2.94991362178626        1.42130683744840
C            0.62305822222768       -2.37636965850141        1.09472925599054
C            1.66223647447288       -3.19984599130272        0.40158179282912
C            0.86843012342670       -1.01121140549727        1.38415339785657
B            2.08852192129144       -0.25294657246574        0.75803065961707
C            1.90109083113047        1.01360213476652       -0.05587620972695
C            2.98642132145142        1.91717155392756       -0.27030863375865
C            2.85015854629255        3.15167359178935       -0.82606846879369
C            1.57370880692696        3.59243345708963       -1.25089729634313
C            1.39109430383906        4.90152370979782       -1.90040006535637
F            2.36032181292104        5.79655134289980       -1.62486370739646
F            0.22374222217894        5.51260321554501       -1.57550806314932
F            1.35660016477754        4.84670056545771       -3.27357244689265
C            0.48586485245881        2.72324922867710       -1.13110573425497
C            0.62694482097758        1.46958235287506       -0.57755330928633
N           -0.52272659425982        0.67190490004137       -0.51820554040352
C           -1.73077265312707        1.06631593093184        0.01219117508779
C           -2.07942683698526        2.23847312408467        0.67227419555435
C           -3.37840971445875        2.36942917804729        1.12055257009295
C           -4.35010570393871        1.37517225289966        0.93990287848799
C           -5.75831029845221        1.61834428158221        1.45951233683726
C           -6.70284264601149        0.44518496885709        1.17998227928358
C           -5.70771832780823        1.83885754871539        2.97927488260657
C           -6.33374769015571        2.86739593536054        0.77351648550021
C           -3.98839187206435        0.20553861724758        0.27765104073572
C           -2.69336326598517        0.04930404626656       -0.18362154434535
C           -2.02877047521726       -0.99561877867310       -0.92240258790902
C           -2.46144992124649       -2.19610596693154       -1.45929716814092
C           -1.58746173634199       -2.96689499009376       -2.21826825391796
C           -1.99441960863526       -4.29637829763260       -2.83473080989114
C           -3.43438786932194       -4.69144921681792       -2.49268572067556
C           -1.06058792561617       -5.39835444223766       -2.31226833846302
C           -1.87676122818192       -4.19784224552035       -4.36360505415465
C           -0.29242921914855       -2.48310653361924       -2.44283892522145
C            0.16324950950309       -1.29101456798309       -1.91691538954832
C           -0.70348863634121       -0.55462183268068       -1.12490798150302
C            3.56355370395514       -0.80405537066063        1.00051532614194
C            4.44587589876407       -1.07055104383239       -0.05472368328952
C            4.07050069868939       -0.92145485020448       -1.50210825761066
C            5.72792394711236       -1.54440745262748        0.20629945936163
C            6.17629048678824       -1.76827031642668        1.49507864792324
C            7.56430086656317       -2.26616077699561        1.77018861889635
C            5.30039300474367       -1.50194838902777        2.53906369636568
C            4.01710977548955       -1.03141779651368        2.31156462305629
C            3.14809056704248       -0.72856731891211        3.49519974452978
C           -0.08775122863492       -0.33049140031160        2.17577848753463
C            0.17980548411623        1.03004563567854        2.74439259688304
C           -1.29441305562141       -0.93530774584437        2.48598887212750
H           -3.53088949727131       -2.82378828141561        1.50734384489112
H           -2.77826736288928       -3.91305233593363        2.66889041304243
H           -3.40955678869217       -2.34315656422869        3.20065933151588
H           -0.77679474972605       -3.97897678361104        1.14967718162339
H            2.52552894420720       -3.34235952686133        1.05061734156148
H            2.00778343515921       -2.69400070560266       -0.49529435531893
H            1.26419384922332       -4.17447312856305        0.13040176102463
H            3.96312736364140        1.60140011351091        0.06481332851739
H            3.69822559622903        3.81028620366295       -0.94100435543537
H           -0.47493928830093        3.02647962523359       -1.52481682163911
H           -1.36184874993189        3.03068837630057        0.82298105619869
H           -3.64459506708636        3.28405463540395        1.62749535772501
H           -6.80286597106637        0.26894859573356        0.11144187722188
H           -6.35388781136585       -0.46391701966983        1.66380219467431
H           -7.69038415993883        0.67600006206615        1.57437100998035
H           -5.08988700106688        2.69413807831156        3.23831924526293
H           -6.71031618203557        2.01605110435096        3.36266587573289
H           -5.30103927162024        0.95983545478814        3.47490423549019
H           -5.74577492112951        3.75314297639867        0.99746981882782
H           -6.34690164700175        2.73201761139863       -0.30632719429299
H           -7.35300062100667        3.04193376663407        1.11161473733185
H           -4.70027682032315       -0.58441243901874        0.10996440263565
H           -3.47901693113240       -2.50533384851071       -1.29095150443488
H           -3.66284423739503       -5.65322538846114       -2.94777838236957
H           -4.14364894444310       -3.96318120331478       -2.87932735784160
H           -3.56920584032948       -4.78956799008720       -1.41811624973756
H           -1.34172540758797       -6.35904284568243       -2.73870739156340
H           -0.02530859557572       -5.20016473511156       -2.57413394543936
H           -1.13289040288179       -5.46806743366120       -1.22913285545921
H           -0.85460224095593       -3.99845321204173       -4.67269058235543
H           -2.50902422906696       -3.39572665980653       -4.73957762679728
H           -2.19457022235509       -5.13152540778781       -4.82294063955952
H            0.38551059069608       -3.05288013309805       -3.05873750189840
H            1.15771093151633       -0.93468972117496       -2.12852281807451
H            3.94451321106865       -1.90479309811206       -1.95801153947459
H            3.15097706225185       -0.35779103285985       -1.61429879068545
H            4.86002121163629       -0.40491454118533       -2.04647928513860
H            6.38314653284709       -1.75148929600298       -0.62980530435715
H            7.54281151347285       -3.08766044917301        2.48501476515342
H            8.17189409124176       -1.46781007835387        2.19845571821242
H            8.04365263333437       -2.60819617830674        0.85582407616653
H            5.63373288076085       -1.65520467162858        3.55710798847277
H            2.93161393514014        0.33771385015031        3.53416047235085
H            2.20185839154107       -1.26075020076947        3.42076118581437
H            3.64066031266202       -1.01689591725815        4.42140495077477
H           -0.73388442441464        1.62002166173833        2.77237175108915
H            0.93863573743124        1.56091949004775        2.17718442747949
H            0.53408881373086        0.92677818878481        3.77123646836311
H           -2.02660415326840       -0.38037390441690        3.05612873593976

          :  Hamiltonian                  GFN2-xTB          :
         :: gradient norm              0.000058997516 Eh/a0 ::
         :: HOMO-LUMO gap              0.642537474765 eV    ::
         :: SCC energy              -141.982435955763 Eh    ::
         :: -> dispersion             -0.142158544114 Eh    ::
         :: -> Gsolv                  -0.048386295209 Eh    ::
         :: repulsion energy           2.205361170432 Eh    ::

    * Orbital Energies and Occupations

         #    Occupation            Energy/Eh            Energy/eV
      -------------------------------------------------------------
         1        2.0000           -0.8706356             -23.6912
       ...           ...                  ...                  ...
       118        2.0000           -0.4103106             -11.1651
       119        2.0000           -0.4066519             -11.0656
       120        2.0000           -0.4045657             -11.0088
       121        2.0000           -0.3995491             -10.8723
       122        2.0000           -0.3958856             -10.7726
       123        2.0000           -0.3906046             -10.6289
       124        2.0000           -0.3875547             -10.5459
       125        2.0000           -0.3781013             -10.2887
       126        2.0000           -0.3762724             -10.2389
       127        1.9997           -0.3711976             -10.1008
       128        1.9972           -0.3690432             -10.0422
       129        1.0031           -0.3579991              -9.7417
       130        1.0000           -0.2726451              -7.4191 (HOMO)
       131        0.0000           -0.2490323              -6.7765 (LUMO)
       132                         -0.2294816              -6.2445
       133                         -0.2238196              -6.0904
       134                         -0.2224025              -6.0519
       135                         -0.2098022              -5.7090
       136                         -0.2089484              -5.6858
       137                         -0.2036293              -5.5410
       138                         -0.1972984              -5.3688
       139                         -0.1919696              -5.2238
       140                         -0.1649279              -4.4879
       141                         -0.1054653              -2.8699
       ...                                ...                  ...
       249                          0.7342305              19.9794
      -------------------------------------------------------------
                  HL-Gap            0.0236129 Eh            0.6425 eV

     #   Z          covCN         q      C6AA      α(0)
     1   6 C        3.758    -0.108    22.620     6.781
     2   6 C        2.963     0.021    27.539     8.608
     3   6 C        2.926    -0.053    29.312     8.879
     4   6 C        2.963     0.015    27.668     8.628
     5   6 C        3.759    -0.115    22.751     6.800
     6   6 C        2.888    -0.060    29.492     8.903
     7   5 B        2.709     0.187    18.606     7.234
     8   6 C        2.878    -0.084    30.090     8.993
     9   6 C        2.917    -0.041    29.030     8.835
    10   6 C        2.908    -0.040    28.985     8.828
    11   6 C        2.971    -0.081    30.015     8.987
    12   6 C        3.336     0.481    17.343     6.594
    13   9 F        0.790    -0.230    11.545     4.014
    14   9 F        0.790    -0.237    11.622     4.027
    15   9 F        0.789    -0.253    11.793     4.057
    16   6 C        2.920    -0.040    28.998     8.831
    17   6 C        2.907     0.042    27.065     8.530
    18   7 N        2.803     0.000    21.256     6.847
    19   6 C        3.084     0.046    26.876     8.498
    20   6 C        2.908    -0.041    29.022     8.834
    21   6 C        2.928    -0.038    28.946     8.823
    22   6 C        2.972     0.012    27.753     8.641
    23   6 C        3.902     0.027    20.060     6.366
    24   6 C        3.761    -0.110    22.651     6.785
    25   6 C        3.761    -0.106    22.568     6.772
    26   6 C        3.761    -0.106    22.578     6.774
    27   6 C        2.916    -0.038    28.957     8.824
    28   6 C        3.064    -0.010    28.211     8.710
    29   6 C        3.065    -0.013    28.274     8.719
    30   6 C        2.917    -0.039    28.964     8.825
    31   6 C        2.973     0.011    27.774     8.645
    32   6 C        3.903     0.027    20.061     6.367
    33   6 C        3.761    -0.109    22.634     6.782
    34   6 C        3.761    -0.106    22.562     6.771
    35   6 C        3.761    -0.107    22.591     6.776
    36   6 C        2.930    -0.036    28.885     8.814
    37   6 C        2.909    -0.043    29.065     8.840
    38   6 C        3.084     0.045    26.895     8.502
    39   6 C        2.886    -0.065    29.622     8.923
    40   6 C        2.965     0.008    27.829     8.653
    41   6 C        3.760    -0.110    22.649     6.785
    42   6 C        2.932    -0.058    29.437     8.898
    43   6 C        2.962     0.005    27.914     8.666
    44   6 C        3.757    -0.105    22.561     6.772
    45   6 C        2.931    -0.058    29.432     8.897
    46   6 C        2.966     0.008    27.838     8.654
    47   6 C        3.759    -0.112    22.701     6.793
    48   6 C        2.964     0.015    27.675     8.629
    49   6 C        3.759    -0.114    22.734     6.797
    50   6 C        2.927    -0.055    29.367     8.887
    51   1 H        0.924     0.058     2.217     2.329
    52   1 H        0.925     0.048     2.344     2.394
    53   1 H        0.925     0.044     2.396     2.421
    54   1 H        0.926     0.029     2.602     2.523
    55   1 H        0.925     0.052     2.291     2.367
    56   1 H        0.925     0.059     2.215     2.327
    57   1 H        0.925     0.042     2.424     2.434
    58   1 H        0.926     0.040     2.442     2.444
    59   1 H        0.926     0.023     2.682     2.561
    60   1 H        0.925     0.028     2.609     2.526
    61   1 H        0.926     0.038     2.480     2.463
    62   1 H        0.926     0.040     2.454     2.450
    63   1 H        0.925     0.038     2.470     2.458
    64   1 H        0.925     0.041     2.436     2.441
    65   1 H        0.925     0.040     2.452     2.449
    66   1 H        0.925     0.037     2.484     2.465
    67   1 H        0.925     0.041     2.433     2.439
    68   1 H        0.925     0.036     2.501     2.473
    69   1 H        0.925     0.037     2.489     2.467
    70   1 H        0.925     0.034     2.533     2.489
    71   1 H        0.925     0.042     2.427     2.436
    72   1 H        0.926     0.053     2.279     2.361
    73   1 H        0.926     0.051     2.310     2.377
    74   1 H        0.925     0.039     2.462     2.454
    75   1 H        0.925     0.037     2.486     2.465
    76   1 H        0.925     0.040     2.455     2.450
    77   1 H        0.925     0.040     2.448     2.447
    78   1 H        0.925     0.039     2.458     2.452
    79   1 H        0.925     0.035     2.512     2.479
    80   1 H        0.925     0.038     2.472     2.459
    81   1 H        0.925     0.033     2.537     2.491
    82   1 H        0.925     0.041     2.435     2.440
    83   1 H        0.926     0.044     2.397     2.421
    84   1 H        0.926     0.041     2.436     2.441
    85   1 H        0.924     0.042     2.427     2.436
    86   1 H        0.925     0.045     2.381     2.413
    87   1 H        0.925     0.037     2.491     2.468
    88   1 H        0.925     0.021     2.719     2.578
    89   1 H        0.925     0.041     2.438     2.442
    90   1 H        0.924     0.041     2.430     2.438
    91   1 H        0.925     0.037     2.486     2.466
    92   1 H        0.925     0.021     2.722     2.580
    93   1 H        0.925     0.046     2.370     2.407
    94   1 H        0.925     0.052     2.295     2.369
    95   1 H        0.925     0.036     2.501     2.473
    96   1 H        0.925     0.043     2.404     2.424
    97   1 H        0.925     0.047     2.353     2.399
    98   1 H        0.924     0.053     2.279     2.361
    99   1 H        0.925     0.027     2.634     2.538

molecular dipole:
                 x           y           z       tot (Debye)
 q only:       -2.348      -4.213       1.533
   full:       -2.174      -3.830       1.445      11.781

 projected vibrational frequencies (cm⁻¹)
eigval :       -0.00    -0.00    -0.00    -0.00    -0.00    -0.00
eigval :       12.18    16.31    18.80    25.04    25.96    33.52
eigval :       36.24    36.85    39.45    45.22    54.59    58.93
eigval :       62.21    66.72    75.69    83.37    85.33    87.67
eigval :       99.67   102.23   110.46   121.89   125.99   140.28
eigval :      147.90   150.05   157.94   164.47   166.30   171.20
eigval :      175.48   184.79   186.77   189.16   190.91   204.26
eigval :      207.31   210.95   219.34   224.19   228.53   232.32
eigval :      247.27   262.62   274.03   275.84   278.32   290.07
eigval :      299.88   303.10   314.33   318.73   320.89   322.33
eigval :      327.24   335.88   338.69   345.47   358.00   365.04
eigval :      375.30   389.31   395.77   404.31   406.42   417.43
eigval :      439.22   447.12   450.13   456.57   461.16   466.10
eigval :      474.95   480.99   482.07   493.66   495.54   498.78
eigval :      511.14   512.34   518.57   522.55   531.16   544.77
eigval :      558.19   564.89   577.78   582.29   594.90   597.84
eigval :      599.14   605.22   622.04   637.63   643.20   650.20
eigval :      663.73   669.62   692.49   703.82   707.92   715.87
eigval :      766.00   798.63   818.82   829.65   831.62   834.46
eigval :      836.38   850.35   860.54   865.35   866.56   870.47
eigval :      872.84   873.30   876.17   878.95   902.84   911.10
eigval :      919.34   924.61   927.84   942.13   958.10   959.14
eigval :      960.77   962.00   962.08   963.05   963.34   964.52
eigval :      970.84   971.83   989.99  1010.75  1018.45  1023.07
eigval :     1023.31  1027.06  1027.17  1028.64  1031.22  1033.67
eigval :     1033.96  1034.33  1034.87  1036.03  1037.20  1038.83
eigval :     1041.01  1042.11  1058.14  1066.36  1089.43  1118.93
eigval :     1122.24  1124.03  1143.89  1154.99  1188.77  1192.83
eigval :     1196.94  1208.24  1214.92  1221.37  1221.60  1223.23
eigval :     1225.12  1227.26  1229.49  1230.32  1234.66  1246.85
eigval :     1259.36  1271.34  1283.81  1291.58  1296.22  1298.80
eigval :     1305.65  1319.49  1328.61  1331.96  1344.18  1355.50
eigval :     1387.35  1392.00  1392.21  1395.72  1398.88  1400.38
eigval :     1401.85  1402.10  1402.97  1403.37  1403.66  1404.15
eigval :     1408.04  1414.53  1419.11  1426.30  1426.58  1427.59
eigval :     1433.03  1437.08  1448.03  1455.15  1460.94  1463.88
eigval :     1469.17  1473.67  1473.76  1475.92  1476.54  1479.45
eigval :     1480.76  1481.62  1484.35  1488.12  1488.22  1488.56
eigval :     1490.83  1491.05  1491.71  1497.15  1497.56  1500.35
eigval :     1501.56  1501.95  1511.85  1512.03  1515.71  1516.97
eigval :     1544.61  1552.79  1557.52  1570.93  1574.12  1576.92
eigval :     1582.02  1596.98  2981.02  2984.89  2988.32  2993.91
eigval :     3009.48  3012.23  3013.33  3014.73  3021.82  3022.12
eigval :     3022.24  3022.39  3022.82  3023.13  3026.20  3026.41
eigval :     3027.56  3028.17  3028.71  3030.08  3030.44  3030.78
eigval :     3033.60  3034.54  3036.33  3038.27  3038.50  3038.73
eigval :     3039.46  3045.72  3048.20  3048.85  3049.54  3050.30
eigval :     3051.16  3051.68  3053.49  3063.71  3064.04  3066.30
eigval :     3068.24  3075.95  3084.30  3089.01  3095.38  3096.56
eigval :     3115.02  3120.79  3124.78

   temp. (K)  partition function   enthalpy   heat capacity  entropy
                                   cal/mol     cal/K/mol   cal/K/mol   J/K/mol
 298.15  VIB  0.504E+24            30785.319    182.900    193.194
         ROT  0.735E+08              888.752      2.981     38.975
         INT  0.370E+32            31674.071    185.881    232.169
         TR   0.168E+29             1481.254      4.968     45.375
         TOT                       33155.3253   190.8494   277.5434  1161.2416

       T/K    H(0)-H(T)+PV         H(T)/Eh          T*S/Eh         G(T)/Eh
   ------------------------------------------------------------------------
    298.15    0.528364E-01    0.857897E+00    0.131870E+00    0.726027E+00
   ------------------------------------------------------------------------

         :::::::::::::::::::::::::::::::::::::::::::::::::::::
         ::                  THERMODYNAMIC                  ::
         :::::::::::::::::::::::::::::::::::::::::::::::::::::
         :: total free energy        -139.051047867224 Eh   ::
         ::.................................................::
         :: total energy             -139.777074785021 Eh   ::
         :: zero point energy           0.805060366930 Eh   ::
         :: G(RRHO) w/o ZPVE           -0.079033449132 Eh   ::
         :: G(RRHO) contrib.            0.726026917798 Eh   ::
         :::::::::::::::::::::::::::::::::::::::::::::::::::::

           -------------------------------------------------
          | TOTAL ENERGY             -139.777074785021 Eh   |
          | TOTAL ENTHALPY           -138.919178044065 Eh   |
          | TOTAL FREE ENERGY        -139.051047867224 Eh   |
          | GRADIENT NORM               0.000059055261 Eh/α |
          | HOMO-LUMO GAP               0.642538777822 eV   |
           -------------------------------------------------

 * finished run on 2025/09/02 at 18:12:06.189
