   * xtb version 6.7.1 (edcfbbe) compiled by 'albert@albert-system' on 2024-07-22

   ID    Z sym.   atoms
    1    6 C      1-6, 8-12, 16, 17, 19-50
    2    5 B      7
    3    9 F      13-15
    4    7 N      18
    5    1 H      51-99

          program call               : xtb data2507/toluene/BuCzCF3oB/BuCzCF3oB.xyz --gfn 2 --gbsa toluene --ohess vtight --parallel 40 --molden --ceasefiles --namespace data2507/toluene/BuCzCF3oB/BuCzCF3oB_toluene_S0_preOpt
      * Solvation model:               GBSA
        Solvent                        toluene
        Solvent mass                       9.2140E+01 g/mol
          :  Hamiltonian                  GFN2-xTB          :
 * total energy  :  -139.7735908 Eh     change       -0.1822968E-08 Eh
 * total energy  :  -139.8259313 Eh     change       -0.5234047E-01 Eh
 * total energy  :  -139.8416486 Eh     change       -0.1571733E-01 Eh
 * total energy  :  -139.8454860 Eh     change       -0.3837384E-02 Eh
 * total energy  :  -139.8474541 Eh     change       -0.1968075E-02 Eh
 * total energy  :  -139.8487218 Eh     change       -0.1267750E-02 Eh
 * total energy  :  -139.8497943 Eh     change       -0.1072522E-02 Eh
 * total energy  :  -139.8507174 Eh     change       -0.9231012E-03 Eh
 * total energy  :  -139.8513725 Eh     change       -0.6550565E-03 Eh
 * total energy  :  -139.8517499 Eh     change       -0.3774172E-03 Eh
 * total energy  :  -139.8571360 Eh     change       -0.7619448E-06 Eh
 * total energy  :  -139.8571368 Eh     change       -0.8184462E-06 Eh
 * total energy  :  -139.8571375 Eh     change       -0.6707110E-06 Eh
 * total energy  :  -139.8571380 Eh     change       -0.5396746E-06 Eh
 * total energy  :  -139.8571385 Eh     change       -0.4567273E-06 Eh
 * total energy  :  -139.8571388 Eh     change       -0.3849162E-06 Eh
 * total energy  :  -139.8571392 Eh     change       -0.3555196E-06 Eh
 * total energy  :  -139.8571395 Eh     change       -0.2601488E-06 Eh
 * total energy  :  -139.8571395 Eh     change       -0.6910483E-08 Eh
   *** GEOMETRY OPTIMIZATION CONVERGED AFTER 208 ITERATIONS ***

 final structure:
================
99
 xtb: 6.7.1 (edcfbbe)
C           -8.01890014170235        0.11051803728261        1.59222864215446
C           -6.58100782843517        0.24805823684112        1.19409786106182
C           -5.72744996484372        1.08439683436080        1.90275846642532
C           -4.39138803017646        1.21679799140109        1.56718413704386
C           -3.54654893552155        2.16344117162585        2.36951124338882
C           -3.85077900660061        0.51160849221791        0.47089145205193
B           -2.34362715434644        0.72702727392984        0.08156701826071
C           -2.02108305045065        1.20093327299727       -1.39522003116794
C           -3.01959270160494        1.91057525239037       -2.07491825052583
C           -2.83381984984687        2.46362709933128       -3.32716303854257
C           -1.60748727625451        2.29620654810687       -3.95569717728801
C           -1.33854465974968        2.86721389642917       -5.31312661424836
F           -0.34106256512727        3.78089966265129       -5.30082182283664
F           -2.39517563175967        3.48637606003322       -5.86296855796592
F           -0.95131545748723        1.93092797108999       -6.20674043380678
C           -0.59184877632312        1.59165118001807       -3.32828960263019
C           -0.78334148701486        1.05543058269291       -2.05678187399995
N            0.31881292784024        0.41606999781894       -1.47451570334639
C            0.40964264124495       -0.88563953890976       -1.02112356397265
C           -0.50497235359658       -1.92145461520212       -1.09443034122534
C           -0.13021880219492       -3.15686233773486       -0.60687562936154
C            1.13173269797844       -3.40500304088959       -0.05197198109634
C            1.44426690242949       -4.80132165994587        0.46946292559065
C            1.31545937049282       -5.81274680005957       -0.67954260992589
C            2.86061189378587       -4.91341621277265        1.04218898458156
C            0.45056171329098       -5.15501496460861        1.58562449919725
C            2.05247782099430       -2.37073220857804       -0.02111097524623
C            1.70333421507932       -1.12028744871011       -0.51336043080206
C            2.43875043534263        0.10107033023585       -0.68992021920659
C            3.74603804862333        0.47017250755193       -0.40016710101923
C            4.19152692859006        1.74251888703847       -0.71997972871594
C            5.61483944696336        2.21105185777487       -0.44694263230600
C            6.26986513675406        2.63264628886455       -1.77109060150122
C            6.48593076610164        1.11857925098887        0.18124703985534
C            5.57780900751496        3.40620823224127        0.51725288113172
C            3.29135420292996        2.63100304977927       -1.32368832012732
C            1.98685828809297        2.29106460489298       -1.62150613857070
C            1.55753674301532        1.01081527661193       -1.30802557793124
C           -1.18343176915765        0.57395916615814        1.12197022939529
C           -1.04997092972343       -0.62051273709400        1.85538833438997
C           -2.10761611800296       -1.68452024014831        1.80950622981504
C            0.05984972032557       -0.82916887230889        2.65729172389430
C            1.05366284725783        0.12818013807905        2.79282180437832
C            2.25523566632953       -0.10643937470016        3.65650602636502
C            0.88319273400417        1.33603242602112        2.13526476159366
C           -0.21207079474022        1.57015208567425        1.31861757805908
C           -0.36597374899089        2.95269734618277        0.75150568655037
C           -4.72107945385771       -0.32460622244752       -0.24830138585408
C           -4.25555665288323       -1.16810765268880       -1.40072892419923
C           -6.05460416322305       -0.44952705133471        0.12192756741224
H           -8.48616811866762        1.09028097060362        1.68326417013459
H           -8.57186868212751       -0.47539911171740        0.86187880667239
H           -8.09475140481356       -0.38414812333460        2.56095610672556
H           -6.12074275794459        1.64551583610544        2.73985999293519
H           -4.13318217143863        2.62058430643715        3.16346706874750
H           -3.15009149288986        2.95301230386133        1.73475146147297
H           -2.70377767781813        1.64120677558119        2.81624066455520
H           -3.97480456106576        2.03911491989868       -1.58901762965056
H           -3.62548347299162        3.01208177347672       -3.81306707614483
H            0.35663464453993        1.45463455777408       -3.82710730280651
H           -1.47883299971955       -1.77445136416747       -1.53228692712541
H           -0.84802236051769       -3.96081318300452       -0.66740583471050
H            0.30568103878832       -5.83351092671712       -1.08002222663646
H            1.99665238270099       -5.55264727806223       -1.48763044770915
H            1.56241698573705       -6.81277597551069       -0.32826681888181
H            3.00332200884901       -4.22381451407030        1.87092568204851
H            3.02314624750380       -5.92374423018908        1.41326174434922
H            3.60867623470269       -4.71281756121413        0.27842274820557
H            0.53285213324553       -4.43761309232930        2.39945739149289
H           -0.57345181118304       -5.14453264175246        1.22285871175142
H            0.66312395121848       -6.14761942158901        1.97813007054124
H            3.04739962454778       -2.51224930515846        0.36659294025563
H            4.39269837931139       -0.25182961088673        0.06986577630284
H            7.29707275185084        2.94757102403446       -1.59777170399646
H            5.73626591343999        3.45735265740749       -2.23550948463612
H            6.27803693249295        1.79720579196310       -2.46876423592944
H            7.49091066273800        1.50457355540726        0.34150677383297
H            6.09055063891032        0.80521058764807        1.14461160529812
H            6.55894106620444        0.25300898796999       -0.47349849072168
H            5.11412253831272        3.11635460837735        1.45824962430589
H            5.01213737325008        4.23478056383390        0.09967640255825
H            6.58830030519910        3.75358123807215        0.72353295356752
H            3.61910233917018        3.62847643303595       -1.57553101359723
H            1.32956999355380        3.00963700496869       -2.08952514472885
H           -2.98340633721276       -1.35842127147390        2.37062367176280
H           -2.42012984270994       -1.88935348442741        0.79186231235429
H           -1.73863119182877       -2.60572206013928        2.25392090902881
H            0.15263377677347       -1.76489933243629        3.19145739841047
H            2.32936771871633       -1.15163394901407        3.94683434005646
H            2.19311021307296        0.49840208250991        4.56206480617239
H            3.16282329653016        0.17920385241933        3.12802106672710
H            1.62041349513664        2.11747825049625        2.25974101897115
H           -1.12069986143681        2.99253513571179       -0.02782581656842
H           -0.66406261997786        3.63514965514197        1.54908130223358
H            0.58195257881248        3.30872657299413        0.35278366007317
H           -4.02310850981049       -2.17580892501380       -1.05197021471901
H           -3.37105321785674       -0.75143137240263       -1.87116431685601
H           -5.04128371430604       -1.25379103150066       -2.14945239209817
H           -6.69524827031094       -1.10919971016164       -0.44788892911189

          :  Hamiltonian                  GFN2-xTB          :
         :: gradient norm              0.000112436059 Eh/a0 ::
         :: HOMO-LUMO gap              1.863967831721 eV    ::
         :: SCC energy              -142.072342855640 Eh    ::
         :: -> dispersion             -0.140370681285 Eh    ::
         :: -> Gsolv                  -0.043874728554 Eh    ::
         :: repulsion energy           2.215203386438 Eh    ::

    * Orbital Energies and Occupations

         #    Occupation            Energy/Eh            Energy/eV
      -------------------------------------------------------------
         1        2.0000           -0.8862496             -24.1161
       ...           ...                  ...                  ...
       117        2.0000           -0.4124994             -11.2247
       118        2.0000           -0.4113766             -11.1941
       119        2.0000           -0.4064759             -11.0608
       120        2.0000           -0.4046216             -11.0103
       121        2.0000           -0.4037043             -10.9854
       122        2.0000           -0.3965501             -10.7907
       123        2.0000           -0.3929108             -10.6916
       124        2.0000           -0.3817221             -10.3872
       125        2.0000           -0.3786944             -10.3048
       126        2.0000           -0.3758649             -10.2278
       127        2.0000           -0.3715769             -10.1111
       128        2.0000           -0.3678010             -10.0084
       129        2.0000           -0.3555801              -9.6758 (HOMO)
       130                         -0.2870804              -7.8119 (LUMO)
       131                         -0.2495119              -6.7896
       132                         -0.2384682              -6.4891
       133                         -0.2346446              -6.3850
       134                         -0.2156893              -5.8692
       135                         -0.2110214              -5.7422
       136                         -0.2081763              -5.6648
       137                         -0.2043344              -5.5602
       138                         -0.1883172              -5.1244
       139                         -0.1808489              -4.9211
       140                         -0.1781330              -4.8472
       ...                                ...                  ...
       249                          0.7468245              20.3221
      -------------------------------------------------------------
                  HL-Gap            0.0684997 Eh            1.8640 eV

     #   Z          covCN         q      C6AA      α(0)
     1   6 C        3.757    -0.108    22.618     6.781
     2   6 C        2.962     0.014    27.705     8.634
     3   6 C        2.930    -0.057    29.419     8.895
     4   6 C        2.967     0.014    27.699     8.633
     5   6 C        3.759    -0.116    22.775     6.804
     6   6 C        2.887    -0.083    30.064     8.989
     7   5 B        2.708     0.256    17.638     7.044
     8   6 C        2.880    -0.062    29.549     8.911
     9   6 C        2.928    -0.025    28.619     8.773
    10   6 C        2.913    -0.031    28.774     8.796
    11   6 C        2.976    -0.029    28.715     8.790
    12   6 C        3.337     0.486    17.274     6.580
    13   9 F        0.791    -0.225    11.492     4.004
    14   9 F        0.791    -0.216    11.399     3.988
    15   9 F        0.791    -0.223    11.480     4.002
    16   6 C        2.926    -0.038    28.942     8.823
    17   6 C        2.913     0.074    26.343     8.416
    18   7 N        2.803    -0.046    22.129     6.987
    19   6 C        3.080     0.046    26.887     8.501
    20   6 C        2.910    -0.055    29.373     8.887
    21   6 C        2.932    -0.039    28.960     8.826
    22   6 C        2.972    -0.002    28.064     8.690
    23   6 C        3.902     0.025    20.095     6.372
    24   6 C        3.761    -0.105    22.552     6.770
    25   6 C        3.761    -0.106    22.571     6.773
    26   6 C        3.761    -0.102    22.503     6.762
    27   6 C        2.918    -0.044    29.087     8.844
    28   6 C        3.069    -0.019    28.403     8.739
    29   6 C        3.067    -0.018    28.387     8.736
    30   6 C        2.918    -0.045    29.105     8.847
    31   6 C        2.972    -0.003    28.091     8.694
    32   6 C        3.902     0.025    20.099     6.373
    33   6 C        3.761    -0.104    22.543     6.768
    34   6 C        3.761    -0.106    22.572     6.773
    35   6 C        3.761    -0.104    22.524     6.766
    36   6 C        2.931    -0.041    29.029     8.836
    37   6 C        2.909    -0.054    29.350     8.883
    38   6 C        3.084     0.045    26.903     8.503
    39   6 C        2.889    -0.082    30.038     8.986
    40   6 C        2.967     0.014    27.705     8.634
    41   6 C        3.759    -0.113    22.715     6.795
    42   6 C        2.930    -0.055    29.355     8.885
    43   6 C        2.963     0.014    27.705     8.634
    44   6 C        3.758    -0.105    22.553     6.771
    45   6 C        2.931    -0.056    29.389     8.891
    46   6 C        2.966     0.012    27.738     8.639
    47   6 C        3.759    -0.111    22.664     6.787
    48   6 C        2.966     0.012    27.737     8.639
    49   6 C        3.760    -0.110    22.652     6.785
    50   6 C        2.931    -0.057    29.423     8.896
    51   1 H        0.925     0.044     2.393     2.419
    52   1 H        0.925     0.040     2.452     2.449
    53   1 H        0.924     0.046     2.369     2.407
    54   1 H        0.925     0.025     2.653     2.547
    55   1 H        0.925     0.039     2.458     2.452
    56   1 H        0.925     0.045     2.380     2.412
    57   1 H        0.925     0.052     2.295     2.369
    58   1 H        0.926     0.065     2.144     2.290
    59   1 H        0.926     0.057     2.229     2.335
    60   1 H        0.926     0.052     2.301     2.372
    61   1 H        0.926     0.026     2.640     2.541
    62   1 H        0.926     0.032     2.565     2.504
    63   1 H        0.925     0.036     2.507     2.476
    64   1 H        0.925     0.031     2.569     2.507
    65   1 H        0.925     0.037     2.489     2.467
    66   1 H        0.925     0.036     2.504     2.475
    67   1 H        0.925     0.036     2.509     2.477
    68   1 H        0.925     0.035     2.523     2.484
    69   1 H        0.925     0.031     2.567     2.505
    70   1 H        0.925     0.036     2.501     2.473
    71   1 H        0.925     0.036     2.503     2.474
    72   1 H        0.926     0.039     2.468     2.457
    73   1 H        0.926     0.038     2.471     2.458
    74   1 H        0.925     0.037     2.488     2.467
    75   1 H        0.925     0.035     2.522     2.483
    76   1 H        0.925     0.031     2.567     2.506
    77   1 H        0.925     0.036     2.501     2.473
    78   1 H        0.925     0.036     2.509     2.477
    79   1 H        0.925     0.035     2.512     2.479
    80   1 H        0.925     0.032     2.551     2.498
    81   1 H        0.925     0.035     2.521     2.483
    82   1 H        0.925     0.037     2.490     2.468
    83   1 H        0.926     0.028     2.617     2.530
    84   1 H        0.926     0.022     2.708     2.573
    85   1 H        0.925     0.048     2.340     2.392
    86   1 H        0.925     0.048     2.350     2.397
    87   1 H        0.925     0.040     2.453     2.449
    88   1 H        0.925     0.022     2.708     2.573
    89   1 H        0.925     0.039     2.466     2.456
    90   1 H        0.924     0.045     2.389     2.417
    91   1 H        0.925     0.043     2.409     2.427
    92   1 H        0.925     0.022     2.697     2.568
    93   1 H        0.925     0.036     2.507     2.476
    94   1 H        0.924     0.047     2.364     2.404
    95   1 H        0.925     0.042     2.423     2.434
    96   1 H        0.924     0.044     2.394     2.420
    97   1 H        0.925     0.039     2.460     2.453
    98   1 H        0.925     0.041     2.431     2.438
    99   1 H        0.925     0.025     2.664     2.552

molecular dipole:
                 x           y           z       tot (Debye)
 q only:       -0.508      -0.961       2.318
   full:       -0.548      -0.776       2.033       5.703

 projected vibrational frequencies (cm⁻¹)
eigval :       -0.00    -0.00     0.00     0.00     0.00     0.00
eigval :      -15.78    15.69    16.59    25.24    25.87    29.25
eigval :       31.00    31.40    37.36    40.19    43.52    53.22
eigval :       59.43    67.01    79.42    80.16    92.42    98.00
eigval :      101.62   107.75   117.85   120.96   131.14   136.25
eigval :      143.68   150.68   151.94   160.50   166.57   172.33
eigval :      178.18   184.55   188.63   191.00   198.35   203.26
eigval :      205.20   209.11   215.94   224.95   229.22   234.53
eigval :      248.22   263.26   274.13   276.41   278.60   289.29
eigval :      307.71   310.00   315.45   320.57   323.68   326.03
eigval :      331.44   337.90   344.45   349.14   360.69   370.73
eigval :      375.81   397.16   400.81   412.21   421.62   428.88
eigval :      442.24   446.80   460.06   462.55   465.62   466.37
eigval :      477.37   487.08   490.88   492.81   498.13   507.17
eigval :      513.37   515.56   524.36   535.22   540.35   558.03
eigval :      569.99   578.53   587.61   592.33   599.51   601.56
eigval :      615.99   620.31   640.42   641.51   647.56   675.59
eigval :      680.83   686.93   699.28   705.73   713.48   724.09
eigval :      779.36   818.71   826.07   831.32   833.38   836.05
eigval :      837.23   870.48   872.61   873.91   876.11   882.68
eigval :      885.87   886.61   890.13   910.93   921.43   923.04
eigval :      926.16   929.83   952.35   957.80   958.75   961.79
eigval :      962.00   962.54   963.16   963.40   964.23   974.17
eigval :      975.81   988.54  1018.81  1022.73  1028.00  1028.54
eigval :     1029.07  1029.77  1030.34  1032.42  1033.27  1033.95
eigval :     1034.24  1035.11  1036.79  1040.17  1040.52  1041.20
eigval :     1042.59  1043.51  1073.60  1089.95  1112.08  1126.94
eigval :     1129.97  1156.17  1162.96  1175.63  1181.89  1197.82
eigval :     1205.45  1219.84  1225.17  1225.78  1227.93  1230.17
eigval :     1231.29  1234.24  1235.44  1236.46  1243.44  1254.25
eigval :     1268.21  1282.96  1296.31  1298.00  1303.91  1307.47
eigval :     1308.23  1330.62  1335.26  1346.70  1349.88  1358.98
eigval :     1397.10  1398.63  1399.14  1399.54  1401.48  1401.87
eigval :     1401.98  1402.73  1404.06  1405.06  1407.12  1413.00
eigval :     1423.88  1426.31  1428.07  1428.48  1440.77  1446.59
eigval :     1451.97  1458.97  1473.22  1475.09  1477.45  1479.87
eigval :     1481.65  1482.76  1482.98  1483.65  1484.50  1485.21
eigval :     1485.88  1488.67  1489.91  1490.32  1490.45  1493.96
eigval :     1494.04  1495.78  1500.19  1500.73  1503.08  1503.89
eigval :     1511.65  1512.33  1518.79  1520.64  1546.64  1555.97
eigval :     1557.78  1568.82  1572.00  1585.27  1599.25  1601.56
eigval :     1604.97  1618.31  2980.98  2985.29  2991.55  2997.12
eigval :     3001.10  3015.19  3017.83  3018.37  3018.48  3019.30
eigval :     3021.15  3023.11  3023.55  3023.64  3023.76  3024.05
eigval :     3024.41  3026.84  3027.16  3027.90  3029.66  3030.92
eigval :     3031.09  3035.72  3036.15  3036.16  3036.93  3038.65
eigval :     3039.06  3043.27  3044.24  3046.86  3047.39  3056.79
eigval :     3057.77  3058.96  3059.99  3064.50  3064.82  3069.43
eigval :     3075.77  3084.19  3085.80  3089.04  3093.46  3105.18
eigval :     3110.08  3114.86  3117.77

   temp. (K)  partition function   enthalpy   heat capacity  entropy
                                   cal/mol     cal/K/mol   cal/K/mol   J/K/mol
 298.15  VIB  0.703E+24            30561.891    180.517    191.558
         ROT  0.739E+08              888.752      2.981     38.986
         INT  0.519E+32            31450.644    183.498    230.545
         TR   0.168E+29             1481.254      4.968     45.375
         TOT                       32931.8975   188.4665   275.9194  1154.4468

       T/K    H(0)-H(T)+PV         H(T)/Eh          T*S/Eh         G(T)/Eh
   ------------------------------------------------------------------------
    298.15    0.524803E-01    0.861469E+00    0.131098E+00    0.730371E+00
   ------------------------------------------------------------------------

         :::::::::::::::::::::::::::::::::::::::::::::::::::::
         ::                  THERMODYNAMIC                  ::
         :::::::::::::::::::::::::::::::::::::::::::::::::::::
         :: total free energy        -139.126768747235 Eh   ::
         ::.................................................::
         :: total energy             -139.857139470205 Eh   ::
         :: zero point energy           0.808988621172 Eh   ::
         :: G(RRHO) w/o ZPVE           -0.078617898202 Eh   ::
         :: G(RRHO) contrib.            0.730370722970 Eh   ::
         :::::::::::::::::::::::::::::::::::::::::::::::::::::

           -------------------------------------------------
          | TOTAL ENERGY             -139.857139470205 Eh   |
          | TOTAL ENTHALPY           -138.995670529864 Eh   |
          | TOTAL FREE ENERGY        -139.126768747235 Eh   |
          | GRADIENT NORM               0.000112444167 Eh/α |
          | HOMO-LUMO GAP               1.863972934734 eV   |
           -------------------------------------------------

 * finished run on 2025/09/02 at 18:01:17.571
