   * xtb version 6.7.1 (edcfbbe) compiled by 'albert@albert-system' on 2024-07-22

   ID    Z sym.   atoms
    1    6 C      1-6, 8-12, 16, 17, 19-50
    2    5 B      7
    3    9 F      13-15
    4    7 N      18
    5    1 H      51-99

          program call               : xtb data2507/toluene/BuCzCF3oB/BuCzCF3oB_toluene_S0_crest.xyz --gfn 2 --gbsa toluene --ohess vtight --parallel 40 --molden --ceasefiles --namespace data2507/toluene/BuCzCF3oB/BuCzCF3oB_toluene_S0_finalOpt
      * Solvation model:               GBSA
        Solvent                        toluene
        Solvent mass                       9.2140E+01 g/mol
          :  Hamiltonian                  GFN2-xTB          :
 * total energy  :  -139.8561323 Eh     change       -0.2282150E-08 Eh
 * total energy  :  -139.8562894 Eh     change       -0.1571430E-03 Eh
 * total energy  :  -139.8563841 Eh     change       -0.9473259E-04 Eh
 * total energy  :  -139.8564297 Eh     change       -0.4559961E-04 Eh
 * total energy  :  -139.8564835 Eh     change       -0.5376924E-04 Eh
 * total energy  :  -139.8566206 Eh     change       -0.1370639E-03 Eh
 * total energy  :  -139.8566895 Eh     change       -0.6895187E-04 Eh
 * total energy  :  -139.8567906 Eh     change       -0.1011311E-03 Eh
 * total energy  :  -139.8568754 Eh     change       -0.8476146E-04 Eh
 * total energy  :  -139.8568976 Eh     change       -0.2221064E-04 Eh
 * total energy  :  -139.8572378 Eh     change        0.1379703E-05 Eh
 * total energy  :  -139.8572396 Eh     change       -0.1764683E-05 Eh
 * total energy  :  -139.8572386 Eh     change        0.9436515E-06 Eh
 * total energy  :  -139.8572398 Eh     change       -0.1146428E-05 Eh
 * total energy  :  -139.8572388 Eh     change        0.1019215E-05 Eh
 * total energy  :  -139.8572399 Eh     change       -0.1169580E-05 Eh
 * total energy  :  -139.8572392 Eh     change        0.7792155E-06 Eh
 * total energy  :  -139.8572401 Eh     change       -0.8859314E-06 Eh
 * total energy  :  -139.8572401 Eh     change       -0.2662148E-08 Eh
   *** GEOMETRY OPTIMIZATION CONVERGED AFTER 122 ITERATIONS ***

 final structure:
================
99
 xtb: 6.7.1 (edcfbbe)
C           -2.74405796433624       -3.02302763674125        2.86449037886061
C           -1.50875973804127       -2.32946367301548        2.37613636361511
C           -0.56743770447069       -3.00997993429462        1.61486550267164
C            0.58420716722171       -2.39446124355626        1.15806241891080
C            1.57962653770377       -3.21572601055857        0.39153128987431
C            0.81956675642553       -1.03186888844958        1.42990377910863
B            2.04570397629154       -0.30546387971785        0.77990924842320
C            1.83753559196375        1.06482745163258        0.01350566054452
C            2.90482540755933        1.97217265128611        0.01725924239333
C            2.81930780570797        3.24014080193808       -0.52448787489269
C            1.62832069005461        3.63314895222595       -1.11960766903509
C            1.46910786031758        4.98909724680425       -1.73347818536932
F            2.56945877582083        5.75436390162768       -1.65791308136942
F            0.47996387205118        5.70639940926641       -1.15404442473018
F            1.14655100542533        4.93317577174205       -3.04458712700505
C            0.54759695342321        2.76579024138686       -1.15893239863886
C            0.63833107224513        1.49701919877082       -0.59105631319373
N           -0.52126306979755        0.71131211251131       -0.62060549710118
C           -1.74198544594411        1.11315479902799       -0.10688897938617
C           -2.10105120296641        2.28720847267679        0.53668250136242
C           -3.40439542037769        2.41716993011440        0.97315124114899
C           -4.36997547413341        1.41660235501923        0.79803058379828
C           -5.78351738908383        1.66115285356752        1.30974833769920
C           -6.72004937604171        0.47938630029135        1.03930106213596
C           -5.74150334283908        1.89727807316927        2.82698125464677
C           -6.36523559540147        2.89818907377996        0.60868682051324
C           -3.99667772692939        0.24591462787171        0.15798175675182
C           -2.69282862695667        0.08994025511083       -0.29449592214774
C           -2.01993310416163       -0.96503408297143       -1.00035618589151
C           -2.44853805281328       -2.18118760353264       -1.51535340569438
C           -1.57154918739596       -2.97012522250000       -2.24139341561633
C           -1.97179302694624       -4.31370567441926       -2.83631436589013
C           -3.42183128435613       -4.69131099613781       -2.51771782351774
C           -1.05873775013576       -5.40848469222149       -2.26509763746237
C           -1.82108258791412       -4.25695292479726       -4.36402481986129
C           -0.27043514834903       -2.49706108626984       -2.45409986615445
C            0.18244785832761       -1.29567454524122       -1.94788128522621
C           -0.69086467711708       -0.53572812928187       -1.18976221571408
C            3.51365259757823       -0.84329271319702        0.94296624094997
C            4.38550480943257       -1.04534155847303       -0.14014286487703
C            3.95574262527987       -0.84399049823582       -1.56513851729062
C            5.68150959822734       -1.50243249097919        0.06565136036575
C            6.16990724044053       -1.75983854351088        1.33409678837850
C            7.57447556886037       -2.23248134830795        1.55480533185359
C            5.31737038620779       -1.54671017685795        2.40985732137687
C            4.01670080084815       -1.10771162137483        2.23447252307881
C            3.17300234575564       -0.87954768203738        3.45498581779063
C           -0.10248080926617       -0.36452612030983        2.25138723690530
C            0.14647265332780        1.02537099809036        2.76423196354448
C           -1.24330697351257       -1.01199082302638        2.70507029314417
H           -3.19232778737343       -3.61521172415004        2.06906543833690
H           -2.49577136057644       -3.69970266650566        3.68345679408585
H           -3.47596246466330       -2.30446938900433        3.22553183071049
H           -0.73924063349813       -4.05069592897143        1.37595018407658
H            2.45386255564344       -3.41177277191302        1.01211900994757
H            1.91240496152800       -2.69928750484148       -0.50181565715715
H            1.14321548773652       -4.16855871343374        0.10182611953746
H            3.83244535755733        1.66698045832839        0.47702100039302
H            3.66097801519995        3.91403857156500       -0.49165787382840
H           -0.37326511080100        3.07324876311626       -1.63300201442616
H           -1.39079293083522        3.08630853138584        0.69323292372806
H           -3.67783826417943        3.33686200529396        1.46842613663572
H           -6.81253015931086        0.29044497204257       -0.02786314923134
H           -6.36514450080819       -0.42266686502949        1.53249155491509
H           -7.71129058722205        0.70656463646499        1.42726739042835
H           -5.13223076307908        2.76119246608132        3.07845279571007
H           -6.74661606377540        2.06791475598213        3.20769864091708
H           -5.32538841408986        1.02766826631063        3.33173970098219
H           -5.78195559822065        3.78922664926127        0.82472705934343
H           -6.37314155411530        2.75023204417925       -0.46966001670764
H           -7.38692704916278        3.07195342779790        0.94078684309154
H           -4.69618096843634       -0.55761249996925       -0.00066898970112
H           -3.47014911622914       -2.47944640567104       -1.34908620133827
H           -3.64834882963630       -5.66232297831495       -2.95441651444756
H           -4.11614658910905       -3.96586722718465       -2.93578666429583
H           -3.58155757246217       -4.76063024943268       -1.44414458152027
H           -1.33798967695346       -6.37967828882067       -2.66915094589200
H           -0.01674481479670       -5.22430603077655       -2.51124720486128
H           -1.15304140552154       -5.44564918652388       -1.18180851971853
H           -0.79184312543156       -4.06697938790916       -4.65563416844525
H           -2.44291995189498       -3.46331029726219       -4.77410031539578
H           -2.13091291112750       -5.20170866634108       -4.80655905380267
H            0.41541804340625       -3.08518262208098       -3.04481825600935
H            1.18398323811876       -0.95393860501541       -2.15274029040840
H            3.63193839814305       -1.79448013114406       -1.99243559168449
H            3.13882093489454       -0.13383880617951       -1.64042523284644
H            4.78924415176246       -0.48202580268975       -2.16471201340931
H            6.32267028975554       -1.65907536193250       -0.79143081670216
H            7.59452098308516       -3.05552422353359        2.26743471959518
H            8.18139046568504       -1.42381267430298        1.96397707218380
H            8.02705658214293       -2.56190342275467        0.62246609676193
H            5.68240572263571       -1.73181852446730        3.41123892917053
H            2.83935682986182        0.15462670752453        3.50102950166920
H            2.28958811766424       -1.51368650970925        3.43460937485997
H            3.73885759547796       -1.10089402996690        4.35735664129544
H           -0.76276328667440        1.62047682188668        2.70517012949730
H            0.93902541151009        1.52680851433038        2.21752157882763
H            0.43723564936194        0.97336654781472        3.81469916176722
H           -1.93660194860275       -0.46813178402891        3.33216112976251

          :  Hamiltonian                  GFN2-xTB          :
         :: gradient norm              0.000030432928 Eh/a0 ::
         :: HOMO-LUMO gap              1.858863720261 eV    ::
         :: SCC energy              -142.072426869276 Eh    ::
         :: -> dispersion             -0.139736729870 Eh    ::
         :: -> Gsolv                  -0.044261845454 Eh    ::
         :: repulsion energy           2.215186813755 Eh    ::

    * Orbital Energies and Occupations

         #    Occupation            Energy/Eh            Energy/eV
      -------------------------------------------------------------
         1        2.0000           -0.8863114             -24.1178
       ...           ...                  ...                  ...
       117        2.0000           -0.4124016             -11.2220
       118        2.0000           -0.4114405             -11.1959
       119        2.0000           -0.4063996             -11.0587
       120        2.0000           -0.4045947             -11.0096
       121        2.0000           -0.4037055             -10.9854
       122        2.0000           -0.3963674             -10.7857
       123        2.0000           -0.3929085             -10.6916
       124        2.0000           -0.3817109             -10.3869
       125        2.0000           -0.3788754             -10.3097
       126        2.0000           -0.3758898             -10.2285
       127        2.0000           -0.3716675             -10.1136
       128        2.0000           -0.3679221             -10.0117
       129        2.0000           -0.3554959              -9.6735 (HOMO)
       130                         -0.2871839              -7.8147 (LUMO)
       131                         -0.2496512              -6.7934
       132                         -0.2384429              -6.4884
       133                         -0.2346559              -6.3853
       134                         -0.2158181              -5.8727
       135                         -0.2109636              -5.7406
       136                         -0.2081424              -5.6638
       137                         -0.2043027              -5.5594
       138                         -0.1882503              -5.1226
       139                         -0.1808552              -4.9213
       140                         -0.1784255              -4.8552
       ...                                ...                  ...
       249                          0.7467973              20.3214
      -------------------------------------------------------------
                  HL-Gap            0.0683119 Eh            1.8589 eV

     #   Z          covCN         q      C6AA      α(0)
     1   6 C        3.757    -0.105    22.554     6.771
     2   6 C        2.963     0.014    27.708     8.634
     3   6 C        2.930    -0.055    29.371     8.888
     4   6 C        2.967     0.014    27.708     8.634
     5   6 C        3.759    -0.113    22.718     6.795
     6   6 C        2.889    -0.081    30.034     8.985
     7   5 B        2.707     0.256    17.634     7.043
     8   6 C        2.880    -0.062    29.545     8.911
     9   6 C        2.927    -0.025    28.618     8.773
    10   6 C        2.913    -0.031    28.772     8.796
    11   6 C        2.976    -0.029    28.713     8.790
    12   6 C        3.337     0.486    17.273     6.580
    13   9 F        0.791    -0.216    11.398     3.988
    14   9 F        0.791    -0.224    11.488     4.004
    15   9 F        0.791    -0.224    11.482     4.003
    16   6 C        2.926    -0.038    28.939     8.822
    17   6 C        2.913     0.074    26.341     8.416
    18   7 N        2.803    -0.046    22.132     6.987
    19   6 C        3.084     0.045    26.903     8.503
    20   6 C        2.908    -0.054    29.351     8.883
    21   6 C        2.931    -0.041    29.027     8.836
    22   6 C        2.972    -0.003    28.087     8.693
    23   6 C        3.902     0.025    20.098     6.373
    24   6 C        3.761    -0.106    22.581     6.774
    25   6 C        3.761    -0.103    22.521     6.765
    26   6 C        3.761    -0.104    22.540     6.768
    27   6 C        2.918    -0.044    29.098     8.846
    28   6 C        3.067    -0.018    28.388     8.737
    29   6 C        3.069    -0.019    28.404     8.739
    30   6 C        2.918    -0.044    29.093     8.845
    31   6 C        2.972    -0.002    28.068     8.690
    32   6 C        3.902     0.025    20.095     6.372
    33   6 C        3.761    -0.106    22.565     6.772
    34   6 C        3.761    -0.103    22.510     6.763
    35   6 C        3.761    -0.105    22.552     6.770
    36   6 C        2.931    -0.039    28.963     8.826
    37   6 C        2.910    -0.055    29.378     8.888
    38   6 C        3.080     0.046    26.888     8.501
    39   6 C        2.886    -0.083    30.064     8.989
    40   6 C        2.966     0.012    27.734     8.638
    41   6 C        3.760    -0.110    22.655     6.786
    42   6 C        2.931    -0.057    29.424     8.896
    43   6 C        2.962     0.014    27.706     8.634
    44   6 C        3.757    -0.108    22.618     6.781
    45   6 C        2.930    -0.057    29.418     8.895
    46   6 C        2.967     0.014    27.702     8.633
    47   6 C        3.759    -0.116    22.773     6.803
    48   6 C        2.967     0.012    27.737     8.639
    49   6 C        3.759    -0.111    22.662     6.787
    50   6 C        2.931    -0.055    29.379     8.889
    51   1 H        0.925     0.043     2.415     2.430
    52   1 H        0.924     0.045     2.382     2.414
    53   1 H        0.925     0.038     2.470     2.457
    54   1 H        0.925     0.023     2.694     2.567
    55   1 H        0.925     0.048     2.340     2.392
    56   1 H        0.925     0.047     2.352     2.398
    57   1 H        0.925     0.040     2.455     2.450
    58   1 H        0.926     0.065     2.143     2.289
    59   1 H        0.926     0.058     2.227     2.334
    60   1 H        0.926     0.052     2.300     2.372
    61   1 H        0.926     0.022     2.709     2.574
    62   1 H        0.926     0.028     2.619     2.530
    63   1 H        0.925     0.035     2.511     2.478
    64   1 H        0.925     0.037     2.495     2.470
    65   1 H        0.925     0.036     2.503     2.474
    66   1 H        0.925     0.035     2.523     2.484
    67   1 H        0.925     0.037     2.492     2.468
    68   1 H        0.925     0.032     2.557     2.501
    69   1 H        0.925     0.034     2.524     2.484
    70   1 H        0.925     0.031     2.567     2.506
    71   1 H        0.925     0.037     2.487     2.466
    72   1 H        0.926     0.039     2.457     2.451
    73   1 H        0.926     0.038     2.479     2.462
    74   1 H        0.925     0.036     2.508     2.477
    75   1 H        0.925     0.035     2.523     2.484
    76   1 H        0.925     0.035     2.515     2.480
    77   1 H        0.925     0.036     2.501     2.473
    78   1 H        0.925     0.036     2.498     2.472
    79   1 H        0.925     0.032     2.563     2.503
    80   1 H        0.925     0.036     2.507     2.476
    81   1 H        0.925     0.031     2.570     2.507
    82   1 H        0.925     0.037     2.488     2.467
    83   1 H        0.926     0.031     2.567     2.506
    84   1 H        0.926     0.026     2.639     2.540
    85   1 H        0.924     0.044     2.392     2.419
    86   1 H        0.925     0.039     2.458     2.452
    87   1 H        0.925     0.041     2.431     2.438
    88   1 H        0.925     0.025     2.662     2.551
    89   1 H        0.925     0.044     2.399     2.422
    90   1 H        0.924     0.046     2.368     2.406
    91   1 H        0.925     0.040     2.447     2.446
    92   1 H        0.925     0.025     2.655     2.548
    93   1 H        0.925     0.045     2.377     2.411
    94   1 H        0.925     0.052     2.301     2.372
    95   1 H        0.925     0.039     2.457     2.451
    96   1 H        0.925     0.042     2.421     2.433
    97   1 H        0.925     0.035     2.511     2.478
    98   1 H        0.924     0.046     2.365     2.405
    99   1 H        0.925     0.022     2.709     2.574

molecular dipole:
                 x           y           z       tot (Debye)
 q only:        0.339      -2.302       1.045
   full:        0.411      -1.979       0.963       5.691

 projected vibrational frequencies (cm⁻¹)
eigval :       -0.00    -0.00    -0.00     0.00     0.00     0.00
eigval :       10.40    17.66    18.42    25.69    30.95    33.55
eigval :       39.33    40.04    41.78    48.69    54.04    61.55
eigval :       68.20    78.70    89.42    91.77    92.15   101.79
eigval :      108.97   111.07   114.67   120.60   131.17   138.63
eigval :      148.16   151.66   153.43   161.64   166.65   172.96
eigval :      178.97   184.06   187.01   190.33   198.27   204.79
eigval :      206.24   208.52   216.86   224.36   228.63   233.78
eigval :      246.53   261.47   274.84   276.87   278.44   288.26
eigval :      307.99   310.95   315.95   319.63   320.23   325.28
eigval :      325.94   338.37   345.07   348.29   359.99   370.21
eigval :      375.19   396.31   399.72   410.88   421.00   427.58
eigval :      442.02   446.35   460.39   462.65   465.72   466.84
eigval :      478.21   486.46   491.44   494.50   498.10   507.22
eigval :      514.43   515.49   523.06   534.47   539.33   559.48
eigval :      569.28   578.49   587.15   592.27   600.45   601.73
eigval :      616.28   619.69   640.09   641.07   647.55   675.99
eigval :      680.79   686.00   698.92   705.94   713.45   724.04
eigval :      779.40   817.29   826.84   830.79   831.34   840.09
eigval :      842.01   870.74   872.53   872.99   877.81   882.65
eigval :      890.30   891.23   891.52   909.16   919.18   924.02
eigval :      924.94   929.37   952.32   957.75   959.03   961.63
eigval :      962.43   962.54   962.87   963.16   964.37   974.35
eigval :      976.04   988.60  1019.67  1023.26  1027.30  1029.01
eigval :     1029.46  1030.14  1030.66  1032.27  1033.46  1033.98
eigval :     1034.22  1035.23  1035.78  1040.25  1040.67  1041.26
eigval :     1042.83  1043.80  1073.51  1089.43  1112.03  1126.61
eigval :     1130.03  1155.35  1162.90  1176.61  1179.93  1198.05
eigval :     1206.65  1219.45  1224.99  1225.55  1227.90  1230.12
eigval :     1231.22  1235.08  1236.06  1236.96  1243.14  1253.79
eigval :     1268.22  1283.60  1296.55  1298.43  1302.80  1304.14
eigval :     1308.46  1332.87  1337.33  1346.11  1349.67  1359.18
eigval :     1397.42  1399.01  1399.94  1400.39  1400.92  1401.73
eigval :     1402.39  1403.20  1403.61  1404.83  1407.83  1412.82
eigval :     1423.98  1426.90  1427.40  1428.15  1440.71  1447.04
eigval :     1452.31  1459.16  1473.30  1475.41  1477.08  1480.32
eigval :     1481.83  1482.12  1483.23  1484.98  1485.72  1486.13
eigval :     1487.06  1488.80  1490.36  1490.44  1490.61  1493.11
eigval :     1494.03  1495.20  1499.64  1499.96  1502.97  1503.93
eigval :     1511.69  1511.93  1517.75  1518.73  1546.35  1556.12
eigval :     1558.45  1568.70  1571.91  1585.22  1599.58  1602.04
eigval :     1604.88  1618.09  2982.63  2985.40  2989.52  2991.84
eigval :     3004.38  3017.57  3017.97  3018.36  3019.07  3019.31
eigval :     3022.26  3022.94  3023.10  3023.57  3024.56  3025.08
eigval :     3025.64  3026.06  3027.68  3027.93  3029.44  3031.02
eigval :     3031.61  3035.69  3035.82  3037.14  3037.36  3038.43
eigval :     3040.90  3042.85  3045.04  3045.95  3048.11  3057.02
eigval :     3059.02  3060.03  3060.48  3063.44  3065.65  3069.34
eigval :     3074.05  3084.18  3085.53  3089.30  3091.65  3104.40
eigval :     3110.65  3114.65  3117.68

   temp. (K)  partition function   enthalpy   heat capacity  entropy
                                   cal/mol     cal/K/mol   cal/K/mol   J/K/mol
 298.15  VIB  0.126E+24            30420.525    181.846    190.442
         ROT  0.741E+08              888.752      2.981     38.991
         INT  0.934E+31            31309.277    184.827    229.433
         TR   0.168E+29             1481.254      4.968     45.375
         TOT                       32790.5314   189.7949   274.8075  1149.7947

       T/K    H(0)-H(T)+PV         H(T)/Eh          T*S/Eh         G(T)/Eh
   ------------------------------------------------------------------------
    298.15    0.522550E-01    0.861528E+00    0.130570E+00    0.730958E+00
   ------------------------------------------------------------------------

         :::::::::::::::::::::::::::::::::::::::::::::::::::::
         ::                  THERMODYNAMIC                  ::
         :::::::::::::::::::::::::::::::::::::::::::::::::::::
         :: total free energy        -139.126281731041 Eh   ::
         ::.................................................::
         :: total energy             -139.857240054744 Eh   ::
         :: zero point energy           0.809273205367 Eh   ::
         :: G(RRHO) w/o ZPVE           -0.078314881664 Eh   ::
         :: G(RRHO) contrib.            0.730958323703 Eh   ::
         :::::::::::::::::::::::::::::::::::::::::::::::::::::

           -------------------------------------------------
          | TOTAL ENERGY             -139.857240054744 Eh   |
          | TOTAL ENTHALPY           -138.995711811402 Eh   |
          | TOTAL FREE ENERGY        -139.126281731041 Eh   |
          | GRADIENT NORM               0.000030447277 Eh/α |
          | HOMO-LUMO GAP               1.858862276279 eV   |
           -------------------------------------------------

 * finished run on 2025/09/02 at 18:11:51.933
