   * xtb version 6.7.1 (edcfbbe) compiled by 'albert@albert-system' on 2024-07-22

   ID    Z sym.   atoms
    1    6 C      1-6, 8-12, 16, 17, 19-50
    2    5 B      7
    3    9 F      13-15
    4    7 N      18
    5    1 H      51-99

          program call               : xtb data2507/toluene/BuCzCF3oB/BuCzCF3oB_toluene_T1_crest.xyz --gfn 2 --uhf 2 --gbsa toluene --ohess vtight --parallel 40 --molden --ceasefiles --namespace data2507/toluene/BuCzCF3oB/BuCzCF3oB_toluene_T1_finalOpt
      * Solvation model:               GBSA
        Solvent                        toluene
        Solvent mass                       9.2140E+01 g/mol
          :  Hamiltonian                  GFN2-xTB          :
 * total energy  :  -139.7760412 Eh     change       -0.2055600E-08 Eh
 * total energy  :  -139.7762870 Eh     change       -0.2458136E-03 Eh
 * total energy  :  -139.7764201 Eh     change       -0.1330826E-03 Eh
 * total energy  :  -139.7764498 Eh     change       -0.2969076E-04 Eh
 * total energy  :  -139.7764971 Eh     change       -0.4729711E-04 Eh
 * total energy  :  -139.7765226 Eh     change       -0.2556507E-04 Eh
 * total energy  :  -139.7765824 Eh     change       -0.5974992E-04 Eh
 * total energy  :  -139.7766515 Eh     change       -0.6911030E-04 Eh
 * total energy  :  -139.7766813 Eh     change       -0.2984848E-04 Eh
 * total energy  :  -139.7767332 Eh     change       -0.5188755E-04 Eh
 * total energy  :  -139.7770522 Eh     change       -0.2290519E-06 Eh
 * total energy  :  -139.7770524 Eh     change       -0.1950764E-06 Eh
 * total energy  :  -139.7770526 Eh     change       -0.1516209E-06 Eh
 * total energy  :  -139.7770527 Eh     change       -0.1649273E-06 Eh
 * total energy  :  -139.7770528 Eh     change       -0.1168528E-06 Eh
 * total energy  :  -139.7770530 Eh     change       -0.1242163E-06 Eh
 * total energy  :  -139.7770531 Eh     change       -0.1070356E-06 Eh
 * total energy  :  -139.7770532 Eh     change       -0.1491558E-06 Eh
 * total energy  :  -139.7770533 Eh     change       -0.7348325E-07 Eh
   *** GEOMETRY OPTIMIZATION CONVERGED AFTER 118 ITERATIONS ***

 final structure:
================
99
 xtb: 6.7.1 (edcfbbe)
C           -2.73682521113802       -3.07106517128857        2.32413131891115
C           -1.45417960074058       -2.35908428704739        2.04145820817280
C           -0.41696731492297       -3.00312036629083        1.36582314054489
C            0.75941372117090       -2.35414026923906        1.05721862291298
C            1.85007853387362       -3.10441412457576        0.36018260405682
C            0.92227291836920       -0.98194405680360        1.37005248218688
B            2.10015924457237       -0.14300184856552        0.76586433941424
C            1.84559975800148        1.12588033582079       -0.02586674524340
C            2.87800960946166        2.09527649995510       -0.21329458780430
C            2.67554392567216        3.32879005253128       -0.75088515641837
C            1.37985326192142        3.70132029381705       -1.18232443604696
C            1.12368724086489        5.00760687039159       -1.81236791552516
F            2.05925425399093        5.94142600154660       -1.55309015687279
F           -0.06088511600750        5.56407407735270       -1.44962912437147
F            1.05243478060588        4.96359928943846       -3.18410500864206
C            0.34285369731743        2.76928374908363       -1.08553615852113
C            0.55153095325140        1.51672412041589       -0.55127757096219
N           -0.55053037907909        0.65324594224440       -0.51462385419116
C           -1.78297413861070        0.96832167267057        0.01248455266465
C           -2.20323233577822        2.10798828431112        0.68750777891438
C           -3.51033161060238        2.15642844109933        1.12848714720766
C           -4.42101729578640        1.10988694196021        0.92676062417101
C           -5.84406914158954        1.26331310223948        1.44012265019901
C           -6.71593949573889        0.03957564012116        1.14215665102601
C           -5.81605905837541        1.46952161632719        2.96246392906986
C           -6.48762745058373        2.48395780028871        0.76355227080984
C           -3.98776585313164       -0.02658765097208        0.24977141176030
C           -2.68314734637861       -0.10009706416228       -0.20523322584009
C           -1.95353841498069       -1.09333355557303       -0.95408410552136
C           -2.31089235604421       -2.30964628128385       -1.51058904142984
C           -1.38765565691941       -3.01682991112299       -2.27319942417459
C           -1.71072102366331       -4.35952083438141       -2.91044105558805
C           -3.12380585826171       -4.84824452772996       -2.57756245748090
C           -0.71138714685602       -5.40982342577580       -2.40288660105969
C           -1.59734285791183       -4.23049415198463       -4.43734970627199
C           -0.12222180402554       -2.45401812473557       -2.48206564837168
C            0.25885226714884       -1.24490542034463       -1.93622326092054
C           -0.65511313893771       -0.57246295545143       -1.14042904189011
C            3.60309377902658       -0.61177884549904        1.01029817439028
C            4.50832057432707       -0.80150795951664       -0.04251797176611
C            4.13337575177832       -0.65202741718206       -1.49000716390292
C            5.81626761037433       -1.19673486894887        0.22045649916829
C            6.26849405805246       -1.41697503935957        1.50859522369506
C            7.68441419658051       -1.82729544531835        1.78549882158425
C            5.36901211634907       -1.23011783524755        2.54963622765515
C            4.05962392405064       -0.83878402045331        2.32026016295313
C            3.16409132085589       -0.61837073767823        3.50247638491315
C           -0.07727688930928       -0.37155900519513        2.16541999839622
C            0.10613846895620        0.99245902821740        2.75855693691117
C           -1.24841330517916       -1.05102509309901        2.45666473357058
H           -2.55896521296865       -4.11984616714776        2.55470302313721
H           -3.26894233730743       -2.60776356220325        3.15168741032111
H           -3.37527055049823       -3.02568570191054        1.44121782535490
H           -0.54359037775890       -4.03708802429624        1.07672106573508
H            2.70871177177082       -3.22059898825064        1.02069201125956
H            2.18369772047459       -2.55739087602192       -0.51667518425519
H            1.50719847504068       -4.09046108237307        0.05687113151621
H            3.86826985598758        1.83135522643653        0.12691483407121
H            3.48528163834776        4.03686488588629       -0.84642426249199
H           -0.63047114650400        3.02342657373905       -1.48329543706905
H           -1.53340032207069        2.93759418445452        0.85547514558179
H           -3.83243008117713        3.04637070992903        1.64673586760706
H           -6.80072807355586       -0.12979513418659        0.07119452313621
H           -6.31548656349106       -0.85275556529646        1.61733532010668
H           -7.71714658143950        0.20673006946909        1.53420809714712
H           -5.24815309606828        2.35453451405877        3.23544343613478
H           -6.82949006051278        1.58716109747937        3.34022847100857
H           -5.36497699919010        0.60872135476429        3.45166087762167
H           -5.95334274911382        3.39982749619424        1.00052301216011
H           -6.48651497193185        2.35984017376382       -0.31772879665429
H           -7.51725884563455        2.59529276868914        1.09689690424459
H           -4.65145067575037       -0.85402723404213        0.06579091580041
H           -3.30939622763162       -2.68099187374792       -1.35391860735386
H           -3.29056228687059       -5.81623162819142       -3.04601347588742
H           -3.87681772022126       -4.16096642518790       -2.95642280163788
H           -3.25401517137610       -4.96887140396734       -1.50470943509893
H           -0.93241010664334       -6.37941065455081       -2.84434279289239
H            0.31007895550935       -5.14471025194663       -2.65973256551707
H           -0.78038286884488       -5.50043754838422       -1.32108364486897
H           -0.59017940119710       -3.95882295805289       -4.74060173094454
H           -2.28079771806684       -3.46651533584944       -4.80300473788305
H           -1.85168054422721       -5.17616702443790       -4.91147504716394
H            0.59201383937735       -2.97383289149768       -3.10111938874841
H            1.23216214505152       -0.82794445958556       -2.13480867543946
H            4.90103857585057       -0.09410390389670       -2.02457799965046
H            4.05411361306290       -1.63484850974012       -1.95756095383757
H            3.18946965589701       -0.12980844335992       -1.60064330399434
H            6.48994754518889       -1.34453622413203       -0.61354787961403
H            8.24260822181804       -0.98924527704906        2.20527032247133
H            8.18274617058462       -2.14712963243014        0.87318877046093
H            7.71424952411251       -2.64204662449248        2.50752790180760
H            5.70358760767689       -1.38326050555496        3.56729779940674
H            2.88366433403126        0.43175142799036        3.56546539723871
H            2.25207816689291       -1.20395859099755        3.40602053787996
H            3.66538708956030       -0.89973787842272        4.42612823041336
H           -0.83988034907506        1.52916012171467        2.78516185549364
H            0.83942817741142        1.57483854912346        2.20866526175123
H            0.45451408506426        0.89239896152516        3.78774593574687
H           -2.01573006342713       -0.54906115107161        3.02975926340890

          :  Hamiltonian                  GFN2-xTB          :
         :: gradient norm              0.000108189225 Eh/a0 ::
         :: HOMO-LUMO gap              0.642718081724 eV    ::
         :: SCC energy              -141.982346097454 Eh    ::
         :: -> dispersion             -0.142196537632 Eh    ::
         :: -> Gsolv                  -0.048335144137 Eh    ::
         :: repulsion energy           2.205292809073 Eh    ::

    * Orbital Energies and Occupations

         #    Occupation            Energy/Eh            Energy/eV
      -------------------------------------------------------------
         1        2.0000           -0.8706770             -23.6923
       ...           ...                  ...                  ...
       118        2.0000           -0.4103494             -11.1662
       119        2.0000           -0.4066559             -11.0657
       120        2.0000           -0.4045634             -11.0087
       121        2.0000           -0.3995238             -10.8716
       122        2.0000           -0.3958782             -10.7724
       123        2.0000           -0.3906309             -10.6296
       124        2.0000           -0.3874786             -10.5438
       125        2.0000           -0.3781109             -10.2889
       126        2.0000           -0.3763329             -10.2405
       127        1.9997           -0.3711188             -10.0987
       128        1.9972           -0.3690770             -10.0431
       129        1.0031           -0.3580000              -9.7417
       130        1.0000           -0.2726251              -7.4185 (HOMO)
       131        0.0000           -0.2490059              -6.7758 (LUMO)
       132                         -0.2294495              -6.2436
       133                         -0.2238288              -6.0907
       134                         -0.2224428              -6.0530
       135                         -0.2097594              -5.7078
       136                         -0.2090055              -5.6873
       137                         -0.2036643              -5.5420
       138                         -0.1972619              -5.3678
       139                         -0.1919423              -5.2230
       140                         -0.1648649              -4.4862
       141                         -0.1054593              -2.8697
       ...                                ...                  ...
       249                          0.7341898              19.9783
      -------------------------------------------------------------
                  HL-Gap            0.0236192 Eh            0.6427 eV

     #   Z          covCN         q      C6AA      α(0)
     1   6 C        3.758    -0.108    22.619     6.781
     2   6 C        2.963     0.021    27.541     8.608
     3   6 C        2.927    -0.053    29.312     8.879
     4   6 C        2.964     0.015    27.669     8.628
     5   6 C        3.759    -0.115    22.750     6.800
     6   6 C        2.888    -0.060    29.491     8.903
     7   5 B        2.709     0.187    18.607     7.234
     8   6 C        2.878    -0.084    30.092     8.993
     9   6 C        2.917    -0.042    29.032     8.836
    10   6 C        2.908    -0.040    28.986     8.828
    11   6 C        2.971    -0.081    30.013     8.986
    12   6 C        3.336     0.481    17.341     6.594
    13   9 F        0.790    -0.229    11.539     4.013
    14   9 F        0.790    -0.238    11.631     4.029
    15   9 F        0.789    -0.252    11.789     4.056
    16   6 C        2.920    -0.040    28.997     8.830
    17   6 C        2.907     0.042    27.062     8.530
    18   7 N        2.803     0.000    21.256     6.848
    19   6 C        3.084     0.046    26.876     8.498
    20   6 C        2.908    -0.041    29.023     8.834
    21   6 C        2.928    -0.038    28.946     8.823
    22   6 C        2.972     0.012    27.753     8.641
    23   6 C        3.902     0.027    20.060     6.366
    24   6 C        3.761    -0.110    22.651     6.785
    25   6 C        3.761    -0.106    22.569     6.772
    26   6 C        3.761    -0.106    22.578     6.773
    27   6 C        2.916    -0.038    28.956     8.824
    28   6 C        3.064    -0.010    28.212     8.710
    29   6 C        3.065    -0.013    28.274     8.719
    30   6 C        2.917    -0.039    28.964     8.825
    31   6 C        2.973     0.011    27.774     8.645
    32   6 C        3.903     0.027    20.061     6.367
    33   6 C        3.761    -0.109    22.635     6.782
    34   6 C        3.761    -0.105    22.561     6.771
    35   6 C        3.761    -0.107    22.590     6.775
    36   6 C        2.930    -0.036    28.885     8.814
    37   6 C        2.909    -0.043    29.066     8.840
    38   6 C        3.084     0.045    26.895     8.501
    39   6 C        2.886    -0.065    29.620     8.923
    40   6 C        2.965     0.008    27.828     8.653
    41   6 C        3.760    -0.110    22.649     6.785
    42   6 C        2.932    -0.058    29.437     8.898
    43   6 C        2.962     0.005    27.913     8.666
    44   6 C        3.757    -0.105    22.561     6.772
    45   6 C        2.931    -0.058    29.429     8.897
    46   6 C        2.966     0.008    27.836     8.654
    47   6 C        3.759    -0.112    22.702     6.793
    48   6 C        2.964     0.015    27.677     8.629
    49   6 C        3.759    -0.114    22.733     6.797
    50   6 C        2.927    -0.055    29.368     8.887
    51   1 H        0.925     0.048     2.348     2.396
    52   1 H        0.925     0.044     2.394     2.420
    53   1 H        0.924     0.059     2.216     2.328
    54   1 H        0.926     0.029     2.604     2.523
    55   1 H        0.925     0.052     2.292     2.367
    56   1 H        0.925     0.059     2.215     2.327
    57   1 H        0.925     0.042     2.423     2.434
    58   1 H        0.926     0.040     2.443     2.444
    59   1 H        0.926     0.024     2.678     2.559
    60   1 H        0.925     0.028     2.613     2.528
    61   1 H        0.926     0.038     2.480     2.463
    62   1 H        0.926     0.040     2.455     2.450
    63   1 H        0.925     0.038     2.470     2.458
    64   1 H        0.925     0.041     2.437     2.441
    65   1 H        0.925     0.040     2.452     2.449
    66   1 H        0.925     0.037     2.484     2.465
    67   1 H        0.925     0.041     2.433     2.439
    68   1 H        0.925     0.036     2.500     2.473
    69   1 H        0.925     0.037     2.489     2.467
    70   1 H        0.925     0.034     2.533     2.489
    71   1 H        0.925     0.042     2.427     2.436
    72   1 H        0.926     0.053     2.281     2.362
    73   1 H        0.926     0.051     2.311     2.377
    74   1 H        0.925     0.039     2.462     2.454
    75   1 H        0.925     0.037     2.486     2.466
    76   1 H        0.925     0.040     2.454     2.450
    77   1 H        0.925     0.040     2.448     2.447
    78   1 H        0.925     0.039     2.459     2.452
    79   1 H        0.925     0.035     2.513     2.479
    80   1 H        0.925     0.038     2.473     2.459
    81   1 H        0.925     0.034     2.537     2.491
    82   1 H        0.925     0.041     2.435     2.440
    83   1 H        0.926     0.044     2.397     2.421
    84   1 H        0.926     0.041     2.435     2.440
    85   1 H        0.925     0.037     2.491     2.468
    86   1 H        0.924     0.042     2.426     2.436
    87   1 H        0.925     0.045     2.380     2.413
    88   1 H        0.925     0.021     2.718     2.578
    89   1 H        0.924     0.042     2.428     2.437
    90   1 H        0.925     0.037     2.484     2.465
    91   1 H        0.925     0.041     2.440     2.443
    92   1 H        0.925     0.021     2.722     2.580
    93   1 H        0.925     0.046     2.370     2.407
    94   1 H        0.925     0.052     2.294     2.369
    95   1 H        0.925     0.036     2.501     2.473
    96   1 H        0.925     0.043     2.404     2.425
    97   1 H        0.925     0.047     2.354     2.399
    98   1 H        0.924     0.053     2.281     2.362
    99   1 H        0.925     0.027     2.634     2.538

molecular dipole:
                 x           y           z       tot (Debye)
 q only:       -2.091      -4.363       1.445
   full:       -1.939      -3.969       1.365      11.750

 projected vibrational frequencies (cm⁻¹)
eigval :       -0.00    -0.00    -0.00    -0.00     0.00     0.00
eigval :       11.06    17.50    21.23    27.12    29.81    34.35
eigval :       34.79    38.79    39.11    47.34    55.30    61.96
eigval :       64.92    69.41    75.38    84.26    85.55    87.48
eigval :       99.64   101.10   110.24   121.04   125.24   137.15
eigval :      145.23   148.22   151.13   162.52   164.02   168.81
eigval :      173.05   183.13   185.65   188.53   189.29   204.21
eigval :      207.31   210.70   218.79   223.79   224.37   231.86
eigval :      246.95   262.72   274.66   275.48   278.76   290.10
eigval :      299.37   302.60   314.17   318.41   320.88   321.78
eigval :      327.54   335.97   338.47   345.43   358.06   364.88
eigval :      375.37   389.26   395.80   404.55   406.60   417.56
eigval :      439.17   447.17   450.60   456.71   460.98   465.85
eigval :      475.02   480.81   482.37   493.35   495.02   499.02
eigval :      510.91   512.44   518.32   522.70   530.81   544.33
eigval :      558.21   565.30   577.65   581.89   594.84   597.72
eigval :      599.05   605.34   621.97   637.24   643.55   650.02
eigval :      663.54   669.93   692.68   703.82   708.21   715.82
eigval :      766.47   798.63   821.32   828.98   830.38   834.47
eigval :      835.52   850.63   862.14   865.35   866.46   870.44
eigval :      871.94   873.26   876.35   879.00   902.53   913.72
eigval :      918.95   922.74   927.14   941.45   958.05   959.27
eigval :      960.73   961.73   962.09   962.60   963.73   964.48
eigval :      970.92   972.06   987.17  1010.61  1017.67  1020.74
eigval :     1023.57  1026.49  1027.16  1028.28  1029.52  1033.65
eigval :     1033.77  1034.37  1035.17  1035.55  1037.58  1038.68
eigval :     1040.31  1042.05  1058.65  1067.18  1089.56  1118.90
eigval :     1121.50  1123.92  1146.31  1155.41  1188.58  1192.84
eigval :     1196.88  1209.89  1215.44  1221.60  1221.73  1223.13
eigval :     1224.92  1227.23  1229.38  1230.25  1234.60  1246.98
eigval :     1259.62  1271.25  1283.70  1291.92  1296.28  1299.25
eigval :     1305.81  1319.29  1328.64  1331.36  1344.25  1355.41
eigval :     1388.10  1392.66  1393.25  1396.52  1398.48  1399.33
eigval :     1400.35  1402.29  1403.35  1403.55  1403.71  1404.20
eigval :     1408.05  1414.56  1418.94  1426.22  1426.58  1427.70
eigval :     1432.80  1436.57  1448.11  1454.95  1460.48  1463.55
eigval :     1469.67  1473.53  1474.43  1475.75  1476.81  1479.12
eigval :     1479.79  1481.48  1484.34  1487.29  1487.58  1488.55
eigval :     1490.02  1490.49  1491.33  1496.74  1497.20  1500.21
eigval :     1500.90  1502.13  1511.40  1511.57  1515.49  1516.77
eigval :     1544.12  1553.01  1557.56  1570.83  1574.06  1576.84
eigval :     1581.97  1596.90  2981.88  2984.93  2987.35  2992.60
eigval :     3007.90  3012.08  3014.39  3015.59  3021.21  3022.30
eigval :     3022.35  3022.87  3023.16  3023.43  3025.95  3026.26
eigval :     3027.77  3027.90  3028.24  3030.11  3030.47  3030.79
eigval :     3033.54  3034.41  3035.84  3036.71  3038.01  3038.37
eigval :     3039.26  3045.93  3047.74  3049.24  3050.21  3050.32
eigval :     3051.17  3052.32  3053.49  3064.14  3064.53  3067.04
eigval :     3067.74  3075.24  3084.68  3087.57  3095.44  3096.75
eigval :     3115.92  3120.36  3124.39

   temp. (K)  partition function   enthalpy   heat capacity  entropy
                                   cal/mol     cal/K/mol   cal/K/mol   J/K/mol
 298.15  VIB  0.361E+24            30798.285    183.201    193.312
         ROT  0.734E+08              888.752      2.981     38.974
         INT  0.265E+32            31687.037    186.182    232.287
         TR   0.168E+29             1481.254      4.968     45.375
         TOT                       33168.2909   191.1498   277.6614  1161.7354

       T/K    H(0)-H(T)+PV         H(T)/Eh          T*S/Eh         G(T)/Eh
   ------------------------------------------------------------------------
    298.15    0.528570E-01    0.857842E+00    0.131926E+00    0.725916E+00
   ------------------------------------------------------------------------

         :::::::::::::::::::::::::::::::::::::::::::::::::::::
         ::                  THERMODYNAMIC                  ::
         :::::::::::::::::::::::::::::::::::::::::::::::::::::
         :: total free energy        -139.051136869565 Eh   ::
         ::.................................................::
         :: total energy             -139.777053288027 Eh   ::
         :: zero point energy           0.804985288434 Eh   ::
         :: G(RRHO) w/o ZPVE           -0.079068869972 Eh   ::
         :: G(RRHO) contrib.            0.725916418462 Eh   ::
         :::::::::::::::::::::::::::::::::::::::::::::::::::::

           -------------------------------------------------
          | TOTAL ENERGY             -139.777053288027 Eh   |
          | TOTAL ENTHALPY           -138.919210963562 Eh   |
          | TOTAL FREE ENERGY        -139.051136869565 Eh   |
          | GRADIENT NORM               0.000107969737 Eh/α |
          | HOMO-LUMO GAP               0.642710245190 eV   |
           -------------------------------------------------

 * finished run on 2025/09/02 at 18:21:44.037
