   * xtb version 6.7.1 (edcfbbe) compiled by 'albert@albert-system' on 2024-07-22

   ID    Z sym.   atoms
    1    6 C      1-4, 6-19, 21-29, 31-53, 55-72, 74-79
    2    7 N      5, 20, 30, 54, 73
    3    1 H      80-130

          program call               : xtb data2507/toluene/DBP-3TPA/DBP-3TPA_toluene_S0_crest.xyz --gfn 2 --gbsa toluene --ohess vtight --parallel 40 --molden --ceasefiles --namespace data2507/toluene/DBP-3TPA/DBP-3TPA_toluene_S0_finalOpt
      * Solvation model:               GBSA
        Solvent                        toluene
        Solvent mass                       9.2140E+01 g/mol
          :  Hamiltonian                  GFN2-xTB          :
 * total energy  :  -199.2231902 Eh     change       -0.1387150E-08 Eh
 * total energy  :  -199.2232381 Eh     change       -0.4793396E-04 Eh
 * total energy  :  -199.2232598 Eh     change       -0.2166934E-04 Eh
 * total energy  :  -199.2232696 Eh     change       -0.9803680E-05 Eh
 * total energy  :  -199.2232815 Eh     change       -0.1194306E-04 Eh
 * total energy  :  -199.2232859 Eh     change       -0.4347515E-05 Eh
 * total energy  :  -199.2232910 Eh     change       -0.5123971E-05 Eh
 * total energy  :  -199.2232945 Eh     change       -0.3486245E-05 Eh
 * total energy  :  -199.2232973 Eh     change       -0.2768862E-05 Eh
 * total energy  :  -199.2233005 Eh     change       -0.3222400E-05 Eh
 * total energy  :  -199.2234075 Eh     change       -0.2656275E-06 Eh
 * total energy  :  -199.2234077 Eh     change       -0.2160136E-06 Eh
 * total energy  :  -199.2234079 Eh     change       -0.2113482E-06 Eh
 * total energy  :  -199.2234082 Eh     change       -0.2444029E-06 Eh
 * total energy  :  -199.2234085 Eh     change       -0.2940733E-06 Eh
 * total energy  :  -199.2234088 Eh     change       -0.3154859E-06 Eh
 * total energy  :  -199.2234091 Eh     change       -0.3339624E-06 Eh
 * total energy  :  -199.2234095 Eh     change       -0.3517197E-06 Eh
 * total energy  :  -199.2234095 Eh     change       -0.4637116E-08 Eh
   *** GEOMETRY OPTIMIZATION CONVERGED AFTER 68 ITERATIONS ***

 final structure:
================
130
 xtb: 6.7.1 (edcfbbe)
C           14.84664346985263        3.13178476501579        0.34613964409756
C           13.68602487631051        3.41533601205805       -0.35578638423339
C           12.69472845375970        2.46134799228126       -0.48434478648152
C           12.84815803022046        1.20496690402500        0.10180381245958
N           11.84719565015723        0.23200384642594       -0.02543887155017
C           12.20767365387553       -1.11157290626895       -0.20376089662830
C           13.29689142399636       -1.44952786125080       -1.00634663034540
C           13.65274756937751       -2.77405439113196       -1.17477553705739
C           12.92782357623897       -3.77973900155660       -0.55572950357783
C           11.84301032958423       -3.44917854230458        0.24057067630078
C           11.48487657613215       -2.12698019833159        0.42206341881518
C           10.50177546378779        0.59621409315805        0.01133967200076
C           10.06513583680242        1.63834935102624        0.83244607053174
C            8.73627154567422        2.00330019615699        0.85561429132979
C            7.79075039629179        1.33388051666000        0.07778908178425
C            6.37510721184869        1.71667592714659        0.10752730481473
C            6.01487549340323        3.08612954959024        0.18478446789936
C            4.71081693387215        3.48237109088236        0.20022460417942
C            3.67796960764049        2.52112685280178        0.14568900774508
N            2.39482390213157        2.90863026291576        0.15433451225171
C            1.46358087764548        1.97102230179344        0.10777210997652
C            0.07354579506711        2.36179736681324        0.10519621234279
C           -0.26571553566432        3.71880341869438        0.13931757239131
C           -1.57789211649365        4.12204116053455        0.12878151048718
C           -2.60357816551219        3.17038096920008        0.08613304770697
C           -4.01326552868815        3.57836800378549        0.07315646996314
C           -4.43665964656910        4.67865212421666       -0.67227685612725
C           -5.76502456187450        5.04575276598288       -0.70900526428018
C           -6.71940953816148        4.33135653384652        0.01819818663917
N           -8.06654169030146        4.69482907831390       -0.02102890718668
C           -8.42892153104770        6.04577522306710       -0.11190133723328
C           -9.51088566530273        6.43537538464565       -0.90112774906757
C           -9.87020520270545        7.76716025472452       -0.98142403903716
C           -9.15562593923481        8.73024262726058       -0.28714370045675
C           -8.07705228303955        8.34894697155567        0.49482136290537
C           -7.71554837559710        7.01861138318696        0.58824322677610
C           -9.06268423641182        3.71029501353859        0.02612497765204
C           -8.88655367222025        2.49146599538699       -0.62932950312799
C           -9.86969882306324        1.52217222458100       -0.57431078831901
C          -11.04582480091676        1.75377076874757        0.12082951956238
C          -11.22933585730418        2.96559159420844        0.76719430895956
C          -10.24698459071813        3.93654839604514        0.72748750329417
C           -6.29737488762722        3.24227740081054        0.78355492445140
C           -4.97054271460531        2.87013257063369        0.80037438203981
C           -2.26706323205791        1.82457949473146        0.05286864418347
C           -0.94201612343758        1.38531945315779        0.06284727636081
C           -0.58844468976090       -0.02856472849267        0.02976003679421
C           -1.55100925319938       -1.03957452763904        0.00904187518644
C           -1.21352297572200       -2.38522959035571       -0.01322862321565
C           -2.26593171260542       -3.40823038133871       -0.02383998653534
C           -3.41950289147073       -3.24121015569867       -0.79038603297248
C           -4.41650226973989       -4.19276783296584       -0.79299776018714
C           -4.30154876406469       -5.34279275582021       -0.00950892213696
N           -5.32143770430115       -6.29646249637529        0.00714824114816
C           -5.01022381005616       -7.65887241655505        0.10606185028513
C           -5.81200509740546       -8.51455010333935        0.86149582590006
C           -5.50596918546911       -9.85912478965914        0.94904913054505
C           -4.39527118856533      -10.37055208915719        0.29721244780689
C           -3.59266154949610       -9.52405408990015       -0.45067503029822
C           -3.89608172888801       -8.17991739503599       -0.55214306029138
C           -6.66027781128365       -5.89037418512296       -0.07438828401273
C           -7.08873733105480       -4.73156322652546        0.57352543137569
C           -8.40827514435536       -4.33133173240010        0.48592197184832
C           -9.32273008933420       -5.08125140737115       -0.23628574379127
C           -8.90394301592150       -6.23658155986247       -0.87653516277136
C           -7.58412749654376       -6.63929423757812       -0.80319476258482
C           -3.14820749693125       -5.51589186129345        0.75813587818809
C           -2.14691081807416       -4.56824596095009        0.74130854964172
C            0.13956364085046       -2.74316776977444       -0.01681980443328
C            1.10764014306328       -1.76987835274924       -0.00007402835396
C            0.76724966998733       -0.41317468389434        0.02615772685107
C            1.81090621679274        0.58520053541631        0.05652362766187
N            3.07231944761861        0.19394064380692        0.03741774687674
C            4.02644294861965        1.13942653858239        0.07670356538743
C            5.38245295291767        0.76522384333467        0.05474572917823
C            8.23045655930747        0.28606961142001       -0.73241442279579
C            9.55993259466734       -0.07320190181950       -0.77387771948402
C           14.01633569665033        0.92618284786641        0.81106550476756
C           15.00638649310538        1.88328127249951        0.92560527193297
H           15.62082923553842        3.87838840090614        0.44098565915645
H           13.55501775269422        4.38375519452527       -0.81656712570008
H           11.79650691647877        2.68085558912641       -1.04309404192789
H           13.85810308022180       -0.66734854758308       -1.49670666747121
H           14.49729113912173       -3.02245332358731       -1.80102435002952
H           13.20647873800647       -4.81389773625899       -0.69253217686217
H           11.27567586284061       -4.22612702230303        0.73223121472133
H           10.64459959484966       -1.87096554969473        1.05105584928858
H           10.77781624214081        2.15607694294151        1.45757657318734
H            8.42009146450824        2.79756890702612        1.51567228585990
H            6.80039702996843        3.82693362959168        0.20743353075521
H            4.43440293949433        4.52492969433701        0.24831695442615
H            0.53891662029702        4.43697669708664        0.17622680697801
H           -1.82267395040457        5.17275190136922        0.17261186234169
H           -3.71939287627968        5.23147871634947       -1.26093318191323
H           -6.07655035130910        5.88647295759006       -1.31154600314826
H          -10.06445823223432        5.68724721577374       -1.44990977532774
H          -10.70954567308353        8.05536306412307       -1.59761552671939
H           -9.43743099842746        9.77035724557532       -0.35474888723785
H           -7.51744952726828        9.09207457320856        1.04427608443606
H           -6.88067462204366        6.72273304380794        1.20684958240979
H           -7.97599874824750        2.31243573491771       -1.18248915623732
H           -9.71956509499788        0.58280424513078       -1.08663334008144
H          -11.81387868758204        0.99582079582361        0.15837145465726
H          -12.14121231334923        3.15411257633532        1.31512549527570
H          -10.38929815017407        4.87646377411209        1.24083293745139
H           -7.02029323441270        2.69195068681529        1.36791952835087
H           -4.66450000909529        2.03598043209972        1.41469544819634
H           -3.07052901367410        1.10857785230784       -0.00425784929417
H           -2.59824297685067       -0.78627468526587        0.03480326580100
H           -3.52085602581430       -2.36828290195516       -1.41860082084761
H           -5.29465238627240       -4.05420968766105       -1.40669257407175
H           -6.67348845101069       -8.11712711456750        1.37838278182311
H           -6.13492924292818      -10.51037642128929        1.53863878752579
H           -4.15736024397308      -11.42112407215737        0.37076602075897
H           -2.72762506230862       -9.91453796978469       -0.96698413974567
H           -3.27455426819469       -7.52454736789786       -1.14497398769188
H           -6.38069139098309       -4.15080115954802        1.14675812867027
H           -8.72590996129502       -3.43187881483956        0.99339444609452
H          -10.35406468302173       -4.76794401551810       -0.29979111848674
H           -9.60842855134932       -6.82546530393013       -1.44590708161306
H           -7.25896279660902       -7.53552671362054       -1.31137880706656
H           -3.04849927394339       -6.39688633993203        1.37528712058373
H           -1.27303795610221       -4.71100300759627        1.35984989420557
H            0.41842802342760       -3.78571122769707       -0.05159680120654
H            2.15638071060084       -2.02416725696439       -0.00703877860565
H            5.61360059794406       -0.28856968953512        0.01816522402340
H            7.52260777773204       -0.23011660195081       -1.36398971972096
H            9.88278932601928       -0.87313948979673       -1.42398040769204
H           14.14002696987341       -0.04355753667099        1.27098366610746
H           15.90580385459712        1.65441814951780        1.47866099472040

          :  Hamiltonian                  GFN2-xTB          :
         :: gradient norm              0.000048807114 Eh/a0 ::
         :: HOMO-LUMO gap              1.328414577160 eV    ::
         :: SCC energy              -202.980625249782 Eh    ::
         :: -> dispersion             -0.183140515322 Eh    ::
         :: -> Gsolv                  -0.085444287868 Eh    ::
         :: repulsion energy           3.757215788461 Eh    ::

    * Orbital Energies and Occupations

         #    Occupation            Energy/Eh            Energy/eV
      -------------------------------------------------------------
         1        2.0000           -0.6718685             -18.2825
       ...           ...                  ...                  ...
       174        2.0000           -0.4055637             -11.0360
       175        2.0000           -0.4051738             -11.0253
       176        2.0000           -0.4049717             -11.0198
       177        2.0000           -0.4049571             -11.0194
       178        2.0000           -0.4044910             -11.0068
       179        2.0000           -0.3990121             -10.8577
       180        2.0000           -0.3952470             -10.7552
       181        2.0000           -0.3859832             -10.5031
       182        2.0000           -0.3839935             -10.4490
       183        2.0000           -0.3510709              -9.5531
       184        2.0000           -0.3500059              -9.5241
       185        2.0000           -0.3495401              -9.5115
       186        2.0000           -0.3491954              -9.5021 (HOMO)
       187                         -0.3003770              -8.1737 (LUMO)
       188                         -0.2696036              -7.3363
       189                         -0.2516162              -6.8468
       190                         -0.2451913              -6.6720
       191                         -0.2410147              -6.5583
       192                         -0.2314072              -6.2969
       193                         -0.2309140              -6.2835
       194                         -0.2308094              -6.2806
       195                         -0.2290707              -6.2333
       196                         -0.2286982              -6.2232
       197                         -0.2279564              -6.2030
       ...                                ...                  ...
       367                          0.7197143              19.5844
      -------------------------------------------------------------
                  HL-Gap            0.0488183 Eh            1.3284 eV

     #   Z          covCN         q      C6AA      α(0)
     1   6 C        2.919    -0.039    28.958     8.825
     2   6 C        2.919    -0.030    28.747     8.792
     3   6 C        2.922    -0.048    29.181     8.859
     4   6 C        2.924     0.065    26.547     8.449
     5   7 N        2.752    -0.075    22.701     7.076
     6   6 C        2.924     0.065    26.547     8.449
     7   6 C        2.922    -0.047    29.166     8.856
     8   6 C        2.919    -0.030    28.744     8.792
     9   6 C        2.919    -0.038    28.950     8.823
    10   6 C        2.919    -0.030    28.744     8.792
    11   6 C        2.922    -0.047    29.170     8.857
    12   6 C        2.923     0.066    26.520     8.445
    13   6 C        2.920    -0.049    29.218     8.864
    14   6 C        2.923    -0.033    28.834     8.806
    15   6 C        2.976     0.000    28.023     8.683
    16   6 C        2.972     0.013    27.728     8.637
    17   6 C        2.921    -0.034    28.852     8.808
    18   6 C        2.914    -0.047    29.167     8.856
    19   6 C        2.966     0.081    26.185     8.393
    20   7 N        1.847    -0.271    27.890     7.827
    21   6 C        2.960     0.085    26.111     8.381
    22   6 C        2.987    -0.011    28.285     8.724
    23   6 C        2.921    -0.030    28.749     8.793
    24   6 C        2.921    -0.035    28.878     8.812
    25   6 C        2.974     0.014    27.699     8.633
    26   6 C        2.976     0.000    28.020     8.683
    27   6 C        2.924    -0.034    28.837     8.806
    28   6 C        2.920    -0.049    29.216     8.864
    29   6 C        2.923     0.065    26.540     8.448
    30   7 N        2.752    -0.077    22.731     7.081
    31   6 C        2.924     0.065    26.540     8.448
    32   6 C        2.922    -0.047    29.176     8.858
    33   6 C        2.919    -0.030    28.749     8.793
    34   6 C        2.919    -0.039    28.962     8.825
    35   6 C        2.919    -0.030    28.750     8.793
    36   6 C        2.922    -0.047    29.179     8.858
    37   6 C        2.924     0.065    26.540     8.448
    38   6 C        2.922    -0.048    29.186     8.859
    39   6 C        2.919    -0.030    28.751     8.793
    40   6 C        2.919    -0.039    28.968     8.826
    41   6 C        2.919    -0.030    28.751     8.793
    42   6 C        2.922    -0.048    29.183     8.859
    43   6 C        2.920    -0.049    29.216     8.864
    44   6 C        2.924    -0.034    28.852     8.809
    45   6 C        2.929    -0.042    29.040     8.837
    46   6 C        2.975     0.002    27.966     8.674
    47   6 C        2.975     0.003    27.959     8.673
    48   6 C        2.929    -0.042    29.039     8.837
    49   6 C        2.974     0.014    27.694     8.632
    50   6 C        2.976     0.000    28.014     8.682
    51   6 C        2.924    -0.034    28.850     8.808
    52   6 C        2.920    -0.049    29.209     8.863
    53   6 C        2.923     0.065    26.540     8.448
    54   7 N        2.752    -0.077    22.734     7.081
    55   6 C        2.923     0.065    26.540     8.448
    56   6 C        2.922    -0.048    29.184     8.859
    57   6 C        2.919    -0.030    28.751     8.793
    58   6 C        2.919    -0.039    28.968     8.826
    59   6 C        2.919    -0.030    28.751     8.793
    60   6 C        2.922    -0.048    29.187     8.860
    61   6 C        2.924     0.065    26.539     8.448
    62   6 C        2.922    -0.048    29.185     8.859
    63   6 C        2.919    -0.030    28.750     8.793
    64   6 C        2.919    -0.039    28.967     8.826
    65   6 C        2.919    -0.030    28.751     8.793
    66   6 C        2.922    -0.048    29.181     8.859
    67   6 C        2.920    -0.049    29.209     8.863
    68   6 C        2.924    -0.034    28.837     8.806
    69   6 C        2.921    -0.035    28.878     8.812
    70   6 C        2.921    -0.030    28.744     8.792
    71   6 C        2.988    -0.011    28.288     8.725
    72   6 C        2.958     0.086    26.075     8.376
    73   7 N        1.848    -0.273    27.946     7.835
    74   6 C        2.962     0.082    26.175     8.392
    75   6 C        2.923    -0.054    29.337     8.882
    76   6 C        2.924    -0.033    28.830     8.805
    77   6 C        2.920    -0.049    29.207     8.862
    78   6 C        2.922    -0.047    29.173     8.857
    79   6 C        2.919    -0.030    28.745     8.792
    80   1 H        0.926     0.033     2.546     2.495
    81   1 H        0.926     0.034     2.528     2.486
    82   1 H        0.926     0.032     2.552     2.498
    83   1 H        0.926     0.033     2.549     2.497
    84   1 H        0.926     0.035     2.522     2.484
    85   1 H        0.926     0.033     2.541     2.493
    86   1 H        0.926     0.034     2.523     2.484
    87   1 H        0.926     0.033     2.550     2.497
    88   1 H        0.926     0.036     2.503     2.474
    89   1 H        0.926     0.038     2.478     2.462
    90   1 H        0.926     0.048     2.349     2.397
    91   1 H        0.926     0.048     2.340     2.392
    92   1 H        0.926     0.051     2.303     2.373
    93   1 H        0.926     0.041     2.439     2.442
    94   1 H        0.926     0.037     2.491     2.468
    95   1 H        0.926     0.034     2.534     2.489
    96   1 H        0.926     0.032     2.558     2.501
    97   1 H        0.926     0.034     2.534     2.489
    98   1 H        0.926     0.032     2.553     2.499
    99   1 H        0.926     0.034     2.533     2.489
   100   1 H        0.926     0.032     2.552     2.498
   101   1 H        0.926     0.032     2.553     2.499
   102   1 H        0.926     0.034     2.529     2.487
   103   1 H        0.926     0.032     2.555     2.499
   104   1 H        0.926     0.033     2.538     2.491
   105   1 H        0.926     0.032     2.565     2.504
   106   1 H        0.926     0.034     2.528     2.487
   107   1 H        0.926     0.037     2.495     2.470
   108   1 H        0.926     0.044     2.394     2.420
   109   1 H        0.926     0.044     2.394     2.420
   110   1 H        0.926     0.037     2.494     2.469
   111   1 H        0.926     0.034     2.528     2.486
   112   1 H        0.926     0.032     2.560     2.502
   113   1 H        0.926     0.033     2.537     2.491
   114   1 H        0.926     0.032     2.557     2.501
   115   1 H        0.926     0.034     2.536     2.490
   116   1 H        0.926     0.032     2.556     2.500
   117   1 H        0.926     0.032     2.556     2.500
   118   1 H        0.926     0.034     2.529     2.487
   119   1 H        0.926     0.032     2.554     2.499
   120   1 H        0.926     0.033     2.538     2.491
   121   1 H        0.926     0.032     2.563     2.503
   122   1 H        0.926     0.034     2.531     2.488
   123   1 H        0.926     0.037     2.489     2.467
   124   1 H        0.926     0.041     2.436     2.441
   125   1 H        0.926     0.052     2.298     2.371
   126   1 H        0.926     0.048     2.347     2.396
   127   1 H        0.926     0.037     2.494     2.469
   128   1 H        0.926     0.036     2.509     2.477
   129   1 H        0.926     0.032     2.553     2.498
   130   1 H        0.926     0.034     2.527     2.486

molecular dipole:
                 x           y           z       tot (Debye)
 q only:       -0.594      -0.422      -0.025
   full:       -0.546      -0.387      -0.025       1.702

 projected vibrational frequencies (cm⁻¹)
eigval :       -0.00     0.00     0.00     0.00     0.00     0.00
eigval :       -5.97     6.70     7.75     9.40    10.53    12.34
eigval :       19.43    21.07    23.35    36.98    37.95    39.63
eigval :       40.59    43.16    45.18    51.68    52.58    54.32
eigval :       59.31    63.42    65.19    69.47    73.09    77.14
eigval :       81.76    85.55    92.97    98.60   100.57   103.57
eigval :      109.49   111.99   123.58   138.76   154.55   164.53
eigval :      177.64   183.99   199.40   204.48   211.86   215.53
eigval :      224.20   231.33   233.11   234.66   235.89   269.15
eigval :      276.29   286.28   295.53   306.88   308.13   311.72
eigval :      318.45   326.78   332.56   338.94   348.48   360.57
eigval :      368.97   374.50   376.50   377.24   377.76   378.30
eigval :      378.73   380.05   382.84   386.12   388.30   388.84
eigval :      396.09   398.73   401.61   412.43   424.01   430.09
eigval :      437.41   439.01   444.80   456.28   461.45   472.50
eigval :      482.71   489.08   490.73   491.77   492.55   504.40
eigval :      510.96   514.93   518.26   565.23   569.79   572.44
eigval :      581.90   582.53   583.38   584.43   584.84   588.20
eigval :      590.72   592.53   593.41   593.57   594.90   596.44
eigval :      603.57   613.95   617.25   620.54   630.61   635.76
eigval :      643.34   659.41   659.93   660.57   661.24   665.74
eigval :      667.74   671.18   675.66   681.68   686.99   688.46
eigval :      699.63   701.09   712.24   720.22   732.88   740.41
eigval :      754.18   754.56   754.89   757.97   759.63   760.37
eigval :      766.92   777.01   805.36   808.09   809.21   826.57
eigval :      831.66   837.21   838.17   860.38   864.67   866.76
eigval :      868.24   869.14   870.18   870.59   872.19   874.36
eigval :      875.32   876.96   877.12   878.14   888.34   889.86
eigval :      890.10   891.15   892.71   893.15   895.13   909.16
eigval :      909.40   909.48   913.89   914.43   914.75   916.64
eigval :      921.61   922.53   922.89   923.34   923.89   925.30
eigval :      926.17   926.53   926.61   926.92   927.35   927.98
eigval :      928.40   928.77   928.84   928.99   929.66   930.94
eigval :      931.08   933.17   953.17   983.05   983.73   984.45
eigval :     1003.88  1003.89  1004.05  1009.77  1014.97  1018.20
eigval :     1043.23  1061.58  1067.28  1081.45  1081.45  1081.57
eigval :     1082.51  1082.52  1082.64  1082.75  1100.57  1120.03
eigval :     1120.04  1120.13  1122.07  1122.21  1122.34  1140.06
eigval :     1140.89  1142.31  1150.08  1155.68  1156.39  1178.06
eigval :     1178.25  1178.56  1178.56  1178.98  1180.25  1184.43
eigval :     1184.92  1185.19  1193.21  1193.58  1193.74  1194.50
eigval :     1195.75  1196.23  1208.46  1210.88  1214.10  1215.32
eigval :     1220.93  1229.49  1242.80  1265.74  1267.78  1269.62
eigval :     1271.06  1272.37  1274.41  1276.76  1276.94  1277.16
eigval :     1279.97  1280.18  1281.06  1293.32  1301.54  1306.23
eigval :     1307.79  1308.96  1309.69  1314.15  1314.61  1314.82
eigval :     1318.95  1320.62  1323.69  1323.87  1324.14  1324.51
eigval :     1325.55  1326.41  1327.15  1328.41  1338.78  1355.27
eigval :     1376.04  1392.91  1405.88  1408.21  1411.78  1413.51
eigval :     1431.01  1432.11  1434.32  1434.73  1435.83  1440.57
eigval :     1440.83  1441.08  1455.54  1468.79  1469.13  1469.59
eigval :     1471.12  1472.08  1472.28  1472.54  1478.83  1488.61
eigval :     1493.18  1495.36  1503.79  1525.30  1543.89  1547.79
eigval :     1552.27  1554.86  1557.43  1573.99  1575.66  1575.75
eigval :     1575.77  1579.07  1579.39  1579.78  1582.04  1584.48
eigval :     1590.94  1591.21  1591.26  1593.39  1595.88  1596.92
eigval :     1600.13  1601.44  1604.46  3070.95  3071.13  3071.48
eigval :     3071.61  3071.85  3071.92  3072.08  3072.37  3072.47
eigval :     3072.61  3072.94  3072.95  3074.78  3075.07  3077.10
eigval :     3077.18  3077.25  3079.09  3081.19  3081.42  3081.47
eigval :     3081.56  3082.27  3082.38  3082.41  3083.82  3083.97
eigval :     3084.22  3084.34  3084.42  3084.96  3085.15  3085.17
eigval :     3086.68  3087.11  3088.68  3089.79  3090.04  3091.21
eigval :     3091.96  3093.07  3093.09  3093.41  3093.87  3093.99
eigval :     3094.21  3094.25  3102.06  3102.42  3103.11  3113.44

   temp. (K)  partition function   enthalpy   heat capacity  entropy
                                   cal/mol     cal/K/mol   cal/K/mol   J/K/mol
 298.15  VIB  0.520E+33            38238.497    236.171    244.012
         ROT  0.792E+09              888.752      2.981     43.701
         INT  0.412E+42            39127.250    239.152    287.713
         TR   0.311E+29             1481.254      4.968     46.591
         TOT                       40608.5035   244.1199   334.3040  1398.7281

       T/K    H(0)-H(T)+PV         H(T)/Eh          T*S/Eh         G(T)/Eh
   ------------------------------------------------------------------------
    298.15    0.647138E-01    0.106963E+01    0.158839E+00    0.910790E+00
   ------------------------------------------------------------------------

         :::::::::::::::::::::::::::::::::::::::::::::::::::::
         ::                  THERMODYNAMIC                  ::
         :::::::::::::::::::::::::::::::::::::::::::::::::::::
         :: total free energy        -198.312619321786 Eh   ::
         ::.................................................::
         :: total energy             -199.223409456868 Eh   ::
         :: zero point energy           1.004915002698 Eh   ::
         :: G(RRHO) w/o ZPVE           -0.094124867615 Eh   ::
         :: G(RRHO) contrib.            0.910790135082 Eh   ::
         :::::::::::::::::::::::::::::::::::::::::::::::::::::

           -------------------------------------------------
          | TOTAL ENERGY             -199.223409456868 Eh   |
          | TOTAL ENTHALPY           -198.153780684701 Eh   |
          | TOTAL FREE ENERGY        -198.312619321786 Eh   |
          | GRADIENT NORM               0.000048802423 Eh/α |
          | HOMO-LUMO GAP               1.328414909304 eV   |
           -------------------------------------------------

 * finished run on 2025/07/19 at 21:14:05.626
