   * xtb version 6.7.1 (edcfbbe) compiled by 'albert@albert-system' on 2024-07-22

   ID    Z sym.   atoms
    1    6 C      1-4, 6-19, 21-29, 31-53, 55-72, 74-79
    2    7 N      5, 20, 30, 54, 73
    3    1 H      80-130

          program call               : xtb data2507/toluene/DBP-3TPA/DBP-3TPA_toluene_S0_finalOpt.xtbopt.xyz --gfn 2 --uhf 2 --gbsa toluene --ohess vtight --parallel 40 --molden --ceasefiles --namespace data2507/toluene/DBP-3TPA/DBP-3TPA_toluene_T1_preOpt
      * Solvation model:               GBSA
        Solvent                        toluene
        Solvent mass                       9.2140E+01 g/mol
          :  Hamiltonian                  GFN2-xTB          :
 * total energy  :  -199.1700201 Eh     change        0.1597158E-08 Eh
 * total energy  :  -199.1724021 Eh     change       -0.2382006E-02 Eh
 * total energy  :  -199.1732001 Eh     change       -0.7979235E-03 Eh
 * total energy  :  -199.1733098 Eh     change       -0.1097344E-03 Eh
 * total energy  :  -199.1733579 Eh     change       -0.4807398E-04 Eh
 * total energy  :  -199.1733637 Eh     change       -0.5839315E-05 Eh
 * total energy  :  -199.1733673 Eh     change       -0.3611844E-05 Eh
 * total energy  :  -199.1733705 Eh     change       -0.3223590E-05 Eh
 * total energy  :  -199.1733723 Eh     change       -0.1731751E-05 Eh
 * total energy  :  -199.1733742 Eh     change       -0.1938526E-05 Eh
 * total energy  :  -199.1734042 Eh     change       -0.1420775E-05 Eh
 * total energy  :  -199.1734057 Eh     change       -0.1489380E-05 Eh
 * total energy  :  -199.1734074 Eh     change       -0.1779739E-05 Eh
 * total energy  :  -199.1734097 Eh     change       -0.2223707E-05 Eh
 * total energy  :  -199.1734121 Eh     change       -0.2454328E-05 Eh
 * total energy  :  -199.1734143 Eh     change       -0.2139229E-05 Eh
 * total energy  :  -199.1734158 Eh     change       -0.1507800E-05 Eh
 * total energy  :  -199.1734170 Eh     change       -0.1213634E-05 Eh
 * total energy  :  -199.1734170 Eh     change       -0.6307545E-08 Eh
   *** GEOMETRY OPTIMIZATION CONVERGED AFTER 44 ITERATIONS ***

 final structure:
================
130
 xtb: 6.7.1 (edcfbbe)
C           14.85066693648943        3.14270232959128        0.14293805261992
C           13.67373191594004        3.39294177260288       -0.54485692646117
C           12.68441129558038        2.43106381722177       -0.61278329027744
C           12.85741969936428        1.19902214627213        0.01942075467428
N           11.85681497857505        0.22198538012451       -0.04341033353966
C           12.20750223834529       -1.12896335220819       -0.15446306394167
C           13.29703209266481       -1.51428822027185       -0.93661679410579
C           13.64436401823199       -2.84763220597526       -1.03718064336853
C           12.91146691506891       -3.81645024536322       -0.37005170668186
C           11.82522757006537       -3.43962181397431        0.40386034964636
C           11.47415091187749       -2.10819154950930        0.51676999613733
C           10.51081898599728        0.59405386715386        0.00365587314616
C           10.09293736972320        1.66005901612888        0.80325772779389
C            8.76638115120894        2.03101485843993        0.83777342448450
C            7.80358080339060        1.34865697176060        0.09044806305904
C            6.39512694789555        1.74679476731899        0.12707791105445
C            6.03655876662531        3.09576172764670        0.20066110130788
C            4.71309751940875        3.48448453814053        0.21341337246854
C            3.68386556678173        2.54219186650742        0.16555116422499
N            2.39720474717610        2.88275583468560        0.17546256841517
C            1.43200925346830        1.96910772805952        0.13332623914795
C            0.05761553413684        2.35096267258108        0.13352806534628
C           -0.28116973927191        3.71576568362388        0.16506453825031
C           -1.58681956868174        4.12251710862539        0.15428083423377
C           -2.62362130190683        3.17370092578149        0.11931247832057
C           -4.02877974125044        3.59209161588107        0.10347425043130
C           -4.44278414249407        4.69685355636538       -0.64215974120431
C           -5.76880456853467        5.07063400988487       -0.68739261819139
C           -6.73144664436678        4.35722615385708        0.02998322874840
N           -8.07826819890573        4.72388339122726       -0.02164195941600
C           -8.43563567798641        6.07537514761179       -0.10560838834842
C           -9.51204860059189        6.47401640616108       -0.89881250130547
C           -9.86399868762112        7.80784891351421       -0.97436675239458
C           -9.14870323346075        8.76375294910991       -0.27055085919165
C           -8.07623983067143        8.37345959362189        0.51575221702949
C           -7.72091491661427        7.04127197083543        0.60368354495656
C           -9.07391340502330        3.73951585678771        0.00338120723440
C           -8.88432414880181        2.52315211717428       -0.65395203583900
C           -9.86651367993201        1.55224841545775       -0.61876997570213
C          -11.05386754353416        1.77894829062236        0.05908997128982
C          -11.25050952591693        2.98797684887054        0.70727085094456
C          -10.27022553070321        3.96137160761073        0.68651408379435
C           -6.32037283877798        3.26516215573211        0.79734337764136
C           -4.99539508564197        2.88808637321371        0.82408089317136
C           -2.29528262909269        1.82935815609211        0.09151367413232
C           -0.97124847403489        1.37896524800964        0.09483625868172
C           -0.61982575755528       -0.02227619856016        0.05756788696782
C           -1.57585306541359       -1.04326819427560        0.02789776103893
C           -1.23131731649807       -2.38322922784924        0.00646663568139
C           -2.27484504308794       -3.41401379869777       -0.01253909048634
C           -3.42482416174564       -3.25473011323002       -0.78723596024257
C           -4.41580894190261       -4.21235662953975       -0.79701837211860
C           -4.29699155193658       -5.36258224291392       -0.01445314472356
N           -5.31112763899069       -6.32432360947535       -0.00581148120306
C           -4.98807530069343       -7.68365591392258        0.08098940330623
C           -5.78448996685237       -8.55462385733122        0.82547420861591
C           -5.46407468738192       -9.89628606809261        0.90275351660885
C           -4.34539071201014      -10.39003269820267        0.25050661813976
C           -3.54831647100670       -9.52848384665979       -0.48643623849281
C           -3.86494341447626       -8.18679556683152       -0.57685749902023
C           -6.65144005137134       -5.92580356025221       -0.07967805398180
C           -7.08199439832626       -4.76832670769003        0.57026475323484
C           -8.40395111330334       -4.37519891329893        0.48989297775294
C           -9.31849030986865       -5.12984406011145       -0.22763912598648
C           -8.89744643827136       -6.28296436006306       -0.87081110917128
C           -7.57562005548542       -6.67955223570734       -0.80412277765606
C           -3.14765158898542       -5.52981322381208        0.76041473211254
C           -2.15335052664890       -4.57477712222929        0.75207118109738
C            0.12964891837939       -2.73312615434004        0.01202448514638
C            1.09002044561781       -1.75892625151106        0.03135601612935
C            0.74501976430422       -0.39637734740999        0.05613407957602
C            1.78025823293180        0.58812249262797        0.08452371810859
N            3.05828883202040        0.23532546136327        0.06692834342375
C            4.03961314172196        1.14321005330869        0.10097100840521
C            5.38260838783317        0.78788772941432        0.07792410856829
C            8.22824264059118        0.27691506368034       -0.69842722819613
C            9.55488755735949       -0.09167063535463       -0.74893954292847
C           14.04266324658536        0.95387051124181        0.71411515534667
C           15.02939164334266        1.91923371817408        0.76895162953244
H           15.62271825695269        3.89581047240304        0.19103984914215
H           13.52787352773348        4.34150722905665       -1.04082622023048
H           11.77290438707478        2.62375096094430       -1.15958066648589
H           13.86317495854079       -0.76182912756543       -1.46599656401652
H           14.48869308236329       -3.13246870340408       -1.64785044466476
H           13.18468450753060       -4.85767295026050       -0.45274418767167
H           11.25109334199564       -4.18722094693308        0.93155446775095
H           10.63388215473351       -1.81574107274555        1.12946029758501
H           10.81794822502693        2.18919210014257        1.40449936553085
H            8.46312374073931        2.84424478943578        1.48041796885657
H            6.80688543066880        3.85206496194732        0.21726675342016
H            4.44209368940575        4.52889750293079        0.25371272181479
H            0.52651206643871        4.43185757873198        0.19942577838500
H           -1.82633769193720        5.17473958164669        0.19567583143946
H           -3.71865457457736        5.24752494045003       -1.22428500328141
H           -6.07238980202718        5.91312160806150       -1.29153866003952
H          -10.06444257515106        5.73184281886098       -1.45654689092364
H          -10.69759419851406        8.10361393738691       -1.59451663092400
H           -9.42498452021001        9.80549780822199       -0.33440300163702
H           -7.51654705486520        9.11097533070561        1.07237899621245
H           -6.89173972905876        6.73781311212663        1.22606474752432
H           -7.96504460081235        2.34875774756253       -1.19377075201670
H           -9.70651748686182        0.61537467726998       -1.13236775807944
H          -11.82061404090200        1.01922517565802        0.08178735464568
H          -12.17111214207866        3.17202397068759        1.24168482578676
H          -10.42169188136747        4.89817944142357        1.20263151965640
H           -7.04997267775304        2.71824232446266        1.37659251031656
H           -4.69680851703929        2.05171131523595        1.43886410166381
H           -3.10077383901873        1.11465532343535        0.04016735774948
H           -2.62426571716636       -0.79274654289076        0.04771420300804
H           -3.52722835276061       -2.38101247996956       -1.41405171311960
H           -5.29044270257774       -4.07993273331880       -1.41709004756430
H           -6.65092287951353       -8.17063923486990        1.34400680523111
H           -6.08781883407599      -10.55928822950082        1.48450792427168
H           -4.09659389467907      -11.43855012842821        0.31578481743991
H           -2.67723082072354       -9.90523276975673       -1.00254532525857
H           -3.24846551913013       -7.51961425787164       -1.16154296316414
H           -6.37401011916713       -4.18482493680010        1.14055879722049
H           -8.72346534976516       -3.47771117897567        0.99938699369592
H          -10.35164819732358       -4.82177283476193       -0.28546917165331
H           -9.60186023226797       -6.87469777748764       -1.43708797658820
H           -7.24833441675529       -7.57275127049846       -1.31602704795085
H           -3.04666248030941       -6.41057391292633        1.37773411086726
H           -1.28228341550351       -4.71205673512910        1.37574389736588
H            0.41401444010499       -3.77440708652568       -0.02223053164749
H            2.14045655181301       -2.00964194258450        0.02678925337841
H            5.62253096228399       -0.26421485548621        0.04968811607198
H            7.50944838339325       -0.25180724345999       -1.30680079627131
H            9.86473761204846       -0.90970187292525       -1.38293522582167
H           14.18004941613931        0.00534441813268        1.21249937286386
H           15.94106582165377        1.71737258795508        1.31214981021349

          :  Hamiltonian                  GFN2-xTB          :
         :: gradient norm              0.000077266628 Eh/a0 ::
         :: HOMO-LUMO gap              0.817955495928 eV    ::
         :: SCC energy              -202.932721510427 Eh    ::
         :: -> dispersion             -0.183092864431 Eh    ::
         :: -> Gsolv                  -0.086806419394 Eh    ::
         :: repulsion energy           3.759304524246 Eh    ::

    * Orbital Energies and Occupations

         #    Occupation            Energy/Eh            Energy/eV
      -------------------------------------------------------------
         1        2.0000           -0.6686430             -18.1947
       ...           ...                  ...                  ...
       175        2.0000           -0.4064404             -11.0598
       176        2.0000           -0.4061565             -11.0521
       177        2.0000           -0.4060493             -11.0492
       178        2.0000           -0.4025496             -10.9539
       179        2.0000           -0.3967378             -10.7958
       180        2.0000           -0.3892264             -10.5914
       181        2.0000           -0.3802807             -10.3480
       182        2.0000           -0.3769606             -10.2576
       183        1.9745           -0.3526316              -9.5956
       184        1.9370           -0.3517366              -9.5712
       185        1.8263           -0.3506541              -9.5418
       186        1.2622           -0.3481895              -9.4747
       187        1.0000           -0.2960712              -8.0565 (HOMO)
       188        0.0000           -0.2660125              -7.2386 (LUMO)
       189                         -0.2463399              -6.7032
       190                         -0.2428828              -6.6092
       191                         -0.2394708              -6.5163
       192                         -0.2334045              -6.3513
       193                         -0.2332955              -6.3483
       194                         -0.2330641              -6.3420
       195                         -0.2296293              -6.2485
       196                         -0.2294084              -6.2425
       197                         -0.2293138              -6.2399
       198                         -0.2282248              -6.2103
       ...                                ...                  ...
       367                          0.7221852              19.6517
      -------------------------------------------------------------
                  HL-Gap            0.0300587 Eh            0.8179 eV

     #   Z          covCN         q      C6AA      α(0)
     1   6 C        2.919    -0.037    28.920     8.819
     2   6 C        2.919    -0.029    28.726     8.789
     3   6 C        2.922    -0.046    29.145     8.853
     4   6 C        2.924     0.065    26.542     8.449
     5   7 N        2.752    -0.067    22.533     7.050
     6   6 C        2.924     0.065    26.542     8.449
     7   6 C        2.922    -0.046    29.146     8.853
     8   6 C        2.919    -0.029    28.727     8.789
     9   6 C        2.919    -0.037    28.917     8.818
    10   6 C        2.919    -0.029    28.725     8.789
    11   6 C        2.922    -0.046    29.141     8.853
    12   6 C        2.923     0.062    26.601     8.458
    13   6 C        2.920    -0.048    29.180     8.858
    14   6 C        2.924    -0.035    28.875     8.812
    15   6 C        2.975     0.004    27.933     8.669
    16   6 C        2.972    -0.000    28.031     8.685
    17   6 C        2.920    -0.043    29.073     8.842
    18   6 C        2.916    -0.063    29.575     8.918
    19   6 C        2.941     0.087    26.058     8.372
    20   7 N        1.849    -0.252    27.415     7.760
    21   6 C        2.942     0.079    26.229     8.400
    22   6 C        2.987    -0.013    28.327     8.731
    23   6 C        2.920    -0.032    28.802     8.801
    24   6 C        2.920    -0.039    28.967     8.826
    25   6 C        2.973     0.006    27.880     8.661
    26   6 C        2.976     0.003    27.943     8.671
    27   6 C        2.924    -0.034    28.843     8.807
    28   6 C        2.920    -0.048    29.182     8.859
    29   6 C        2.923     0.063    26.582     8.455
    30   7 N        2.752    -0.068    22.551     7.053
    31   6 C        2.924     0.065    26.542     8.449
    32   6 C        2.922    -0.046    29.147     8.853
    33   6 C        2.919    -0.029    28.728     8.789
    34   6 C        2.919    -0.037    28.919     8.819
    35   6 C        2.919    -0.029    28.727     8.789
    36   6 C        2.922    -0.046    29.144     8.853
    37   6 C        2.924     0.065    26.542     8.449
    38   6 C        2.922    -0.046    29.150     8.854
    39   6 C        2.919    -0.029    28.728     8.789
    40   6 C        2.919    -0.037    28.923     8.819
    41   6 C        2.919    -0.029    28.730     8.790
    42   6 C        2.922    -0.046    29.152     8.854
    43   6 C        2.920    -0.048    29.180     8.858
    44   6 C        2.924    -0.035    28.859     8.810
    45   6 C        2.927    -0.042    29.044     8.838
    46   6 C        2.975    -0.004    28.126     8.699
    47   6 C        2.975    -0.004    28.108     8.696
    48   6 C        2.928    -0.042    29.045     8.838
    49   6 C        2.973     0.007    27.865     8.659
    50   6 C        2.976     0.003    27.944     8.671
    51   6 C        2.924    -0.034    28.858     8.809
    52   6 C        2.920    -0.047    29.176     8.858
    53   6 C        2.924     0.063    26.581     8.455
    54   7 N        2.752    -0.069    22.572     7.056
    55   6 C        2.923     0.065    26.540     8.448
    56   6 C        2.922    -0.047    29.157     8.855
    57   6 C        2.919    -0.029    28.732     8.790
    58   6 C        2.919    -0.037    28.928     8.820
    59   6 C        2.919    -0.029    28.731     8.790
    60   6 C        2.922    -0.046    29.155     8.855
    61   6 C        2.924     0.065    26.541     8.448
    62   6 C        2.922    -0.046    29.154     8.855
    63   6 C        2.919    -0.029    28.730     8.790
    64   6 C        2.919    -0.037    28.928     8.820
    65   6 C        2.919    -0.029    28.732     8.790
    66   6 C        2.922    -0.047    29.155     8.855
    67   6 C        2.920    -0.047    29.177     8.858
    68   6 C        2.924    -0.034    28.842     8.807
    69   6 C        2.920    -0.039    28.969     8.826
    70   6 C        2.921    -0.032    28.790     8.799
    71   6 C        2.987    -0.013    28.336     8.732
    72   6 C        2.940     0.083    26.160     8.388
    73   7 N        1.849    -0.254    27.470     7.768
    74   6 C        2.938     0.086    26.091     8.377
    75   6 C        2.924    -0.069    29.708     8.938
    76   6 C        2.924    -0.035    28.867     8.811
    77   6 C        2.920    -0.047    29.175     8.858
    78   6 C        2.922    -0.046    29.148     8.854
    79   6 C        2.919    -0.029    28.727     8.789
    80   1 H        0.926     0.035     2.517     2.481
    81   1 H        0.926     0.036     2.503     2.474
    82   1 H        0.926     0.034     2.529     2.487
    83   1 H        0.926     0.035     2.519     2.482
    84   1 H        0.926     0.037     2.494     2.470
    85   1 H        0.926     0.035     2.515     2.480
    86   1 H        0.926     0.036     2.503     2.474
    87   1 H        0.926     0.034     2.530     2.487
    88   1 H        0.926     0.035     2.510     2.477
    89   1 H        0.926     0.036     2.496     2.471
    90   1 H        0.926     0.036     2.508     2.477
    91   1 H        0.926     0.038     2.473     2.459
    92   1 H        0.926     0.040     2.452     2.449
    93   1 H        0.926     0.036     2.507     2.476
    94   1 H        0.926     0.037     2.490     2.468
    95   1 H        0.926     0.035     2.518     2.481
    96   1 H        0.926     0.035     2.522     2.484
    97   1 H        0.926     0.036     2.502     2.473
    98   1 H        0.926     0.035     2.523     2.484
    99   1 H        0.926     0.036     2.506     2.476
   100   1 H        0.926     0.034     2.524     2.484
   101   1 H        0.926     0.034     2.524     2.484
   102   1 H        0.926     0.036     2.498     2.472
   103   1 H        0.926     0.035     2.521     2.483
   104   1 H        0.926     0.036     2.506     2.475
   105   1 H        0.926     0.034     2.530     2.487
   106   1 H        0.926     0.036     2.508     2.476
   107   1 H        0.926     0.037     2.488     2.467
   108   1 H        0.926     0.039     2.457     2.451
   109   1 H        0.926     0.039     2.456     2.451
   110   1 H        0.926     0.037     2.488     2.467
   111   1 H        0.926     0.035     2.510     2.478
   112   1 H        0.926     0.034     2.527     2.486
   113   1 H        0.926     0.036     2.508     2.476
   114   1 H        0.926     0.034     2.529     2.487
   115   1 H        0.926     0.035     2.512     2.478
   116   1 H        0.926     0.034     2.531     2.488
   117   1 H        0.926     0.034     2.530     2.487
   118   1 H        0.926     0.036     2.502     2.473
   119   1 H        0.926     0.034     2.524     2.484
   120   1 H        0.926     0.036     2.509     2.477
   121   1 H        0.926     0.034     2.532     2.488
   122   1 H        0.926     0.035     2.517     2.481
   123   1 H        0.926     0.037     2.490     2.467
   124   1 H        0.926     0.036     2.503     2.474
   125   1 H        0.926     0.040     2.444     2.445
   126   1 H        0.926     0.039     2.461     2.453
   127   1 H        0.926     0.035     2.512     2.478
   128   1 H        0.926     0.035     2.514     2.480
   129   1 H        0.926     0.035     2.520     2.483
   130   1 H        0.926     0.036     2.496     2.471

molecular dipole:
                 x           y           z       tot (Debye)
 q only:       -1.617      -0.944      -0.074
   full:       -1.535      -0.891      -0.074       4.515

 projected vibrational frequencies (cm⁻¹)
eigval :       -0.00    -0.00    -0.00     0.00     0.00     0.00
eigval :        6.80     8.11     8.78    10.29    10.97    12.56
eigval :       19.19    20.59    23.83    36.59    37.58    39.81
eigval :       40.57    44.98    47.02    52.87    53.53    57.69
eigval :       62.24    63.65    65.95    69.48    73.29    79.73
eigval :       82.24    86.86    91.95    98.74   101.21   106.02
eigval :      110.12   116.40   123.60   139.30   154.50   163.68
eigval :      173.73   182.78   196.65   206.30   210.66   212.50
eigval :      225.03   228.21   233.21   233.53   235.27   265.24
eigval :      269.73   283.72   295.04   302.86   307.83   310.28
eigval :      317.94   325.25   332.09   333.06   348.75   358.34
eigval :      368.30   371.16   375.43   376.39   377.21   378.60
eigval :      378.90   379.53   380.48   385.80   387.61   388.32
eigval :      394.84   400.37   402.20   412.18   420.15   424.45
eigval :      428.23   432.90   439.67   452.56   464.71   475.32
eigval :      481.25   487.02   491.23   492.85   493.45   504.57
eigval :      510.20   514.74   518.57   558.15   564.65   570.36
eigval :      579.65   580.77   581.72   582.80   583.95   587.31
eigval :      588.03   588.54   589.96   593.12   593.36   593.75
eigval :      600.70   612.89   614.01   615.97   624.82   627.83
eigval :      630.65   639.93   658.09   659.49   660.21   660.90
eigval :      665.01   666.77   672.90   676.95   679.42   686.26
eigval :      688.45   693.60   695.84   703.44   719.12   719.81
eigval :      734.57   753.44   755.38   755.92   756.16   758.85
eigval :      760.75   769.50   792.53   800.86   806.35   807.16
eigval :      817.23   825.21   831.10   831.91   855.60   863.14
eigval :      865.66   867.22   868.61   868.86   870.72   872.91
eigval :      873.12   873.99   874.45   875.81   882.40   886.96
eigval :      891.13   891.25   891.63   892.28   893.12   895.35
eigval :      909.07   909.12   909.14   910.24   913.85   914.21
eigval :      917.81   918.80   919.12   922.03   924.77   925.02
eigval :      925.39   925.56   926.13   926.54   926.60   927.21
eigval :      927.66   928.00   928.18   928.39   928.59   929.31
eigval :      931.05   931.51   935.49   981.05   983.35   983.95
eigval :     1003.36  1003.37  1003.42  1005.81  1016.01  1017.60
eigval :     1035.49  1060.18  1072.26  1079.71  1080.85  1080.97
eigval :     1081.02  1081.82  1081.93  1082.06  1097.28  1119.46
eigval :     1120.16  1120.18  1121.72  1122.42  1122.42  1137.65
eigval :     1139.84  1141.13  1143.88  1153.75  1156.28  1177.26
eigval :     1177.53  1177.89  1178.03  1178.45  1179.28  1180.11
eigval :     1181.99  1183.36  1192.21  1192.58  1193.03  1193.65
eigval :     1194.22  1194.87  1208.70  1210.88  1213.45  1216.72
eigval :     1219.30  1221.11  1244.01  1259.41  1264.09  1264.82
eigval :     1269.85  1270.41  1271.42  1274.74  1275.68  1276.00
eigval :     1276.04  1276.49  1279.20  1282.01  1285.16  1293.24
eigval :     1301.35  1305.00  1306.15  1307.14  1311.61  1313.50
eigval :     1314.20  1314.50  1316.67  1319.15  1322.52  1323.91
eigval :     1324.28  1324.52  1324.68  1324.94  1332.01  1341.25
eigval :     1348.27  1368.06  1396.14  1399.61  1406.44  1410.12
eigval :     1414.17  1422.37  1423.20  1432.95  1433.26  1433.46
eigval :     1439.70  1439.88  1440.15  1456.47  1463.92  1466.15
eigval :     1466.52  1466.83  1467.81  1468.14  1468.65  1474.17
eigval :     1485.27  1489.99  1494.27  1506.63  1514.20  1530.56
eigval :     1539.81  1548.05  1550.07  1551.26  1567.75  1572.75
eigval :     1573.24  1573.38  1574.32  1576.60  1577.28  1577.55
eigval :     1586.18  1587.47  1587.90  1588.11  1589.94  1591.30
eigval :     1595.07  1596.92  1597.34  3073.12  3073.14  3073.36
eigval :     3073.39  3073.44  3073.96  3073.97  3074.07  3074.37
eigval :     3074.49  3074.61  3075.04  3075.37  3075.62  3075.90
eigval :     3076.91  3077.16  3077.27  3078.29  3078.48  3078.83
eigval :     3082.89  3083.28  3083.48  3083.71  3084.15  3084.24
eigval :     3084.93  3085.55  3085.74  3086.11  3086.63  3086.74
eigval :     3087.05  3087.13  3087.34  3087.91  3088.87  3089.25
eigval :     3089.73  3090.26  3090.76  3091.32  3094.01  3094.23
eigval :     3094.49  3094.59  3094.87  3095.23  3097.84  3107.91

   temp. (K)  partition function   enthalpy   heat capacity  entropy
                                   cal/mol     cal/K/mol   cal/K/mol   J/K/mol
 298.15  VIB  0.265E+33            38377.731    237.633    244.110
         ROT  0.796E+09              888.752      2.981     43.710
         INT  0.211E+42            39266.484    240.614    287.820
         TR   0.311E+29             1481.254      4.968     46.591
         TOT                       40747.7377   245.5819   334.4110  1399.1756

       T/K    H(0)-H(T)+PV         H(T)/Eh          T*S/Eh         G(T)/Eh
   ------------------------------------------------------------------------
    298.15    0.649357E-01    0.106713E+01    0.158889E+00    0.908241E+00
   ------------------------------------------------------------------------

         :::::::::::::::::::::::::::::::::::::::::::::::::::::
         ::                  THERMODYNAMIC                  ::
         :::::::::::::::::::::::::::::::::::::::::::::::::::::
         :: total free energy        -198.265175886743 Eh   ::
         ::.................................................::
         :: total energy             -199.173416984616 Eh   ::
         :: zero point energy           1.002194898213 Eh   ::
         :: G(RRHO) w/o ZPVE           -0.093953800340 Eh   ::
         :: G(RRHO) contrib.            0.908241097873 Eh   ::
         :::::::::::::::::::::::::::::::::::::::::::::::::::::

           -------------------------------------------------
          | TOTAL ENERGY             -199.173416984616 Eh   |
          | TOTAL ENTHALPY           -198.106286433111 Eh   |
          | TOTAL FREE ENERGY        -198.265175886743 Eh   |
          | GRADIENT NORM               0.000062958373 Eh/α |
          | HOMO-LUMO GAP               0.817937885577 eV   |
           -------------------------------------------------

 * finished run on 2025/07/19 at 21:14:29.666
