   * xtb version 6.7.1 (edcfbbe) compiled by 'albert@albert-system' on 2024-07-22

   ID    Z sym.   atoms
    1    6 C      1-4, 6-19, 21-29, 31-53, 55-72, 74-79
    2    7 N      5, 20, 30, 54, 73
    3    1 H      80-130

          program call               : xtb data2507/toluene/DBP-3TPA/DBP-3TPA.xyz --gfn 2 --gbsa toluene --ohess vtight --parallel 40 --molden --ceasefiles --namespace data2507/toluene/DBP-3TPA/DBP-3TPA_toluene_S0_preOpt
      * Solvation model:               GBSA
        Solvent                        toluene
        Solvent mass                       9.2140E+01 g/mol
          :  Hamiltonian                  GFN2-xTB          :
 * total energy  :  -199.1777675 Eh     change       -0.1472188E-08 Eh
 * total energy  :  -199.2023029 Eh     change       -0.2453539E-01 Eh
 * total energy  :  -199.2120203 Eh     change       -0.9717448E-02 Eh
 * total energy  :  -199.2157440 Eh     change       -0.3723706E-02 Eh
 * total energy  :  -199.2183066 Eh     change       -0.2562533E-02 Eh
 * total energy  :  -199.2197933 Eh     change       -0.1486722E-02 Eh
 * total energy  :  -199.2206084 Eh     change       -0.8151674E-03 Eh
 * total energy  :  -199.2210459 Eh     change       -0.4374901E-03 Eh
 * total energy  :  -199.2213095 Eh     change       -0.2635411E-03 Eh
 * total energy  :  -199.2215108 Eh     change       -0.2013233E-03 Eh
 * total energy  :  -199.2228309 Eh     change       -0.4589657E-06 Eh
 * total energy  :  -199.2228312 Eh     change       -0.3448813E-06 Eh
 * total energy  :  -199.2228315 Eh     change       -0.2536813E-06 Eh
 * total energy  :  -199.2228316 Eh     change       -0.1898578E-06 Eh
 * total energy  :  -199.2228318 Eh     change       -0.1816281E-06 Eh
 * total energy  :  -199.2228321 Eh     change       -0.2387106E-06 Eh
 * total energy  :  -199.2228324 Eh     change       -0.3318817E-06 Eh
 * total energy  :  -199.2228328 Eh     change       -0.4214193E-06 Eh
 * total energy  :  -199.2228328 Eh     change       -0.9114075E-08 Eh
   *** GEOMETRY OPTIMIZATION CONVERGED AFTER 94 ITERATIONS ***

 final structure:
================
130
 xtb: 6.7.1 (edcfbbe)
C           13.08222367454685       -3.45394829462806       -0.42640676183624
C           13.78215135207928       -2.45701841848992       -1.08693869363143
C           13.39327399684153       -1.13586421966340       -0.97377443992418
C           12.29614283761419       -0.79178733418872       -0.18448367945832
N           11.90486614459963        0.54844922756150       -0.05711605499654
C           12.87983639315284        1.55215011847390        0.02241644294544
C           12.68183250554950        2.78187400581369       -0.60556348030005
C           13.64584690194511        3.76839798485620       -0.52438409340263
C           14.82303627862433        3.54411236605180        0.17136348657852
C           15.02685348085345        2.32239794720677        0.79258024149261
C           14.06435269217374        1.33323491468290        0.72547264471867
C           10.55097950416702        0.88106781454624       -0.01434618364793
C            9.61802879062612        0.17233585531360       -0.77492967333235
C            8.28119003107378        0.50273250547509       -0.72964982281942
C            7.82429602126358        1.55742884208289        0.06222777137201
C            6.40079715004915        1.90936052058406        0.09620894507733
C            6.01115257123306        3.27129544762925        0.16686468478553
C            4.69906277842241        3.63942449710419        0.18860829308143
C            3.68693151684202        2.65592544058388        0.14457876667921
N            2.39605614840514        3.01591071080833        0.16090159035286
C            1.48501103802735        2.05849530965136        0.11809730331854
C            0.08703634861127        2.41936701469816        0.12459814155955
C           -0.27726321871315        3.76894999987716        0.17993424168391
C           -1.59669996128350        4.14663175705739        0.17977402492809
C           -2.60376735410840        3.17656335748657        0.11435666583689
C           -4.01878316423071        3.56912368486970        0.10241005700355
C           -4.48092326131504        4.59995383479454        0.92032818356085
C           -5.80752539227916        4.97516274268207        0.91208812703456
C           -6.72123649589738        4.33141485929653        0.07558470698368
N           -8.06523785555632        4.71269275977778        0.06068491092598
C           -8.69441384687816        5.10790073713591        1.24872558120088
C           -9.61468350391701        6.15600312051855        1.24838861580165
C          -10.23593112141289        6.53787006269179        2.42205152103140
C           -9.94613107080109        5.89093594415538        3.61266590748234
C           -9.03041773197308        4.85097994017668        3.61915355990598
C           -8.41045899005894        4.45636020813032        2.44911498690759
C           -8.78209484243142        4.71391633243608       -1.14290567614784
C           -8.16713655891667        5.10290025018265       -2.33316262803948
C           -8.87865340276850        5.10145696215192       -3.51751975734110
C          -10.21162302624880        4.72331369806475       -3.53574101868384
C          -10.82864052351635        4.34059977270178       -2.35550569781546
C          -10.12289607618339        4.32989230021161       -1.16772333694900
C           -6.26394655810496        3.29950584752339       -0.74589226247468
C           -4.93668006066731        2.92638266319606       -0.72794299177387
C           -2.24293332659734        1.83790276083670        0.06082078801501
C           -0.90922255650161        1.42358211213606        0.06985283088056
C           -0.52613410472617        0.01721863940756        0.02767531072215
C           -1.46647367376831       -1.01488126934242       -0.00312166398720
C           -1.09857091194371       -2.35248933003029       -0.03265717536295
C           -2.12136568240217       -3.40506520029203       -0.05194818841975
C           -3.27627154672586       -3.27380763347004       -0.82307611540462
C           -4.23576042009817       -4.26345051633007       -0.84280885716677
C           -4.08061081709714       -5.41742386595680       -0.07217886712411
N           -5.05677580858444       -6.41568917100870       -0.07800963007098
C           -6.41251624324804       -6.07380968119864       -0.16839904585399
C           -6.90267195564033       -4.94176600089400        0.48296792700508
C           -8.24014814456719       -4.60806829375937        0.38868659641948
C           -9.11099940044821       -5.39829835138716       -0.34426847963402
C           -8.63053221880640       -6.52701458387310       -0.98864447499012
C           -7.29268374321413       -6.86328097448227       -0.90853973596635
C           -4.68296505307985       -7.76320315455196        0.01499535139520
C           -3.54434053137174       -8.22799272125526       -0.64327377769864
C           -3.17722507428410       -9.55645623177619       -0.54613869954087
C           -3.93963683583246      -10.44297119464509        0.19750326560478
C           -5.07479297291614       -9.98758044977923        0.84878558510498
C           -5.44498607803516       -8.65893896351615        0.76492775822695
C           -2.92850539197751       -5.55166440766684        0.70523690987358
C           -1.96486494224593       -4.56606375825013        0.70525133223016
C            0.26233123160780       -2.68016982295308       -0.03679433431759
C            1.20854715059315       -1.68630148113181       -0.01153551007521
C            0.83791461236349       -0.33788414459370        0.02385537959791
C            1.86119622975509        0.68103160170565        0.06026052378292
N            3.13065608800097        0.31630326551392        0.03912381184164
C            4.06454530342594        1.28181757112742        0.07742984743091
C            5.42823329304451        0.93671238510378        0.05316754708561
C            8.76120526128413        2.26440556976153        0.81725019524498
C           10.09811419107319        1.93076418653879        0.78788072756332
C           11.59711507026517       -1.79858829620066        0.48123361928455
C           11.98815694497202       -3.11782690416119        0.35473064106647
H           13.38729228315861       -4.48545105195841       -0.51958136793665
H           14.63331897589231       -2.71004852396703       -1.70230748270084
H           13.93534625729568       -0.36117664433680       -1.49646192149506
H           11.77017226052442        2.95494297090310       -1.15883732889119
H           13.48031376571845        4.71558250389063       -1.01706060735145
H           15.57591673148963        4.31582835513419        0.22921143126894
H           15.93939951517146        2.14002352808148        1.34138521133271
H           14.22253888878067        0.38472268618626        1.21787882689678
H            9.95397886515894       -0.63473752805663       -1.40941731385062
H            7.58051450751414       -0.04261406246508       -1.34439572349677
H            6.78010761126391        4.02944504867340        0.17979600886529
H            4.40018458813567        4.67592987563673        0.23346089382110
H            0.51394240611202        4.50177693177770        0.21836469014115
H           -1.86135606303833        5.19309914452768        0.20546429503214
H           -3.79297493059111        5.10443051528508        1.58273452921255
H           -6.14666367546654        5.77603368814393        1.55290499073406
H           -9.83579330914104        6.66854150340105        0.32342652994649
H          -10.94476766454792        7.35310998957858        2.40761789472437
H          -10.43059812641532        6.19470701952623        4.52850340844252
H           -8.80240498013137        4.33648172706722        4.54149087155640
H           -7.70344143077432        3.63946311911910        2.45610766940975
H           -7.13080362980247        5.40823092074649       -2.32084047243785
H           -8.39049721632417        5.40741598670103       -4.43155158363012
H          -10.76543461625304        4.72739058079386       -4.46256293597049
H          -11.86629965144151        4.03961001281697       -2.36046624731077
H          -10.60436867775674        4.02295187484059       -0.25049560033161
H           -6.95986079575274        2.79157562531587       -1.39764237946235
H           -4.60178886995560        2.13484015133470       -1.38227194774298
H           -3.03369335775344        1.10600029053361        0.03233298321097
H           -2.51917769715272       -0.78478746989404        0.02211571410829
H           -3.40730895382656       -2.39877858646794       -1.44277342813132
H           -5.11429879442654       -4.15272523556580       -1.46162602796168
H           -6.22873489246109       -4.32999963313278        1.06500536532132
H           -8.60615492546925       -3.72895604454783        0.89911897280354
H          -10.15633282248564       -5.13671498321720       -0.41229451608690
H           -9.30083372265707       -7.14682729675184       -1.56641839878599
H           -6.91964405840053       -7.73912947063019       -1.41937726325583
H           -2.95370403473014       -7.54114181833499       -1.23204059830725
H           -2.29368780468163       -9.90322518077449       -1.06231014754106
H           -3.65132784608608      -11.48104674052902        0.26897002370044
H           -5.67277175748135      -10.67020020706730        1.43508886762951
H           -6.32570540402237       -8.30499571707131        1.28102846201178
H           -2.79930099406175       -6.43390194926466        1.31507236812010
H           -1.09123387347826       -4.68077042001458        1.32992675046596
H            0.56408487971487       -3.71601578910037       -0.07900925471886
H            2.26266864619434       -1.91708403248506       -0.01903146039421
H            5.68101798592383       -0.11220681481814        0.02130000287840
H            8.43314779074941        3.06424737108430        1.46457284474313
H           10.80479808501972        2.47892547908912        1.39362900955182
H           10.74998253725088       -1.53806853506136        1.09908667786388
H           11.43939691383010       -3.88760894562308        0.87774717172362

          :  Hamiltonian                  GFN2-xTB          :
         :: gradient norm              0.000065123681 Eh/a0 ::
         :: HOMO-LUMO gap              1.318241505350 eV    ::
         :: SCC energy              -202.979939226308 Eh    ::
         :: -> dispersion             -0.182658460143 Eh    ::
         :: -> Gsolv                  -0.085440790042 Eh    ::
         :: repulsion energy           3.757106401573 Eh    ::

    * Orbital Energies and Occupations

         #    Occupation            Energy/Eh            Energy/eV
      -------------------------------------------------------------
         1        2.0000           -0.6720384             -18.2871
       ...           ...                  ...                  ...
       174        2.0000           -0.4055081             -11.0344
       175        2.0000           -0.4049537             -11.0194
       176        2.0000           -0.4048001             -11.0152
       177        2.0000           -0.4047128             -11.0128
       178        2.0000           -0.4043571             -11.0031
       179        2.0000           -0.3989920             -10.8571
       180        2.0000           -0.3953637             -10.7584
       181        2.0000           -0.3860703             -10.5055
       182        2.0000           -0.3837495             -10.4424
       183        2.0000           -0.3510179              -9.5517
       184        2.0000           -0.3499815              -9.5235
       185        2.0000           -0.3498262              -9.5193
       186        2.0000           -0.3490128              -9.4971 (HOMO)
       187                         -0.3005683              -8.1789 (LUMO)
       188                         -0.2697070              -7.3391
       189                         -0.2517885              -6.8515
       190                         -0.2453898              -6.6774
       191                         -0.2410065              -6.5581
       192                         -0.2313240              -6.2946
       193                         -0.2307847              -6.2800
       194                         -0.2306309              -6.2758
       195                         -0.2291221              -6.2347
       196                         -0.2287497              -6.2246
       197                         -0.2279128              -6.2018
       ...                                ...                  ...
       367                          0.7194659              19.5777
      -------------------------------------------------------------
                  HL-Gap            0.0484445 Eh            1.3182 eV

     #   Z          covCN         q      C6AA      α(0)
     1   6 C        2.919    -0.038    28.955     8.824
     2   6 C        2.919    -0.030    28.745     8.792
     3   6 C        2.922    -0.047    29.171     8.857
     4   6 C        2.924     0.065    26.548     8.450
     5   7 N        2.752    -0.075    22.701     7.076
     6   6 C        2.924     0.065    26.547     8.449
     7   6 C        2.922    -0.048    29.183     8.859
     8   6 C        2.919    -0.030    28.747     8.792
     9   6 C        2.919    -0.039    28.959     8.825
    10   6 C        2.919    -0.030    28.745     8.792
    11   6 C        2.922    -0.047    29.175     8.858
    12   6 C        2.923     0.066    26.519     8.445
    13   6 C        2.920    -0.048    29.199     8.861
    14   6 C        2.924    -0.033    28.829     8.805
    15   6 C        2.976     0.000    28.018     8.682
    16   6 C        2.972     0.013    27.727     8.637
    17   6 C        2.921    -0.034    28.852     8.808
    18   6 C        2.914    -0.047    29.166     8.856
    19   6 C        2.966     0.081    26.184     8.393
    20   7 N        1.847    -0.271    27.885     7.826
    21   6 C        2.960     0.085    26.111     8.381
    22   6 C        2.988    -0.011    28.281     8.723
    23   6 C        2.921    -0.030    28.748     8.793
    24   6 C        2.921    -0.035    28.876     8.812
    25   6 C        2.974     0.014    27.694     8.632
    26   6 C        2.976     0.001    28.007     8.681
    27   6 C        2.924    -0.034    28.838     8.807
    28   6 C        2.920    -0.048    29.203     8.862
    29   6 C        2.923     0.065    26.539     8.448
    30   7 N        2.752    -0.078    22.746     7.083
    31   6 C        2.923     0.065    26.537     8.448
    32   6 C        2.922    -0.048    29.183     8.859
    33   6 C        2.919    -0.030    28.751     8.793
    34   6 C        2.919    -0.039    28.969     8.826
    35   6 C        2.919    -0.030    28.752     8.793
    36   6 C        2.922    -0.048    29.186     8.859
    37   6 C        2.923     0.065    26.537     8.448
    38   6 C        2.922    -0.048    29.191     8.860
    39   6 C        2.919    -0.030    28.752     8.793
    40   6 C        2.919    -0.039    28.972     8.827
    41   6 C        2.919    -0.030    28.752     8.793
    42   6 C        2.922    -0.048    29.187     8.859
    43   6 C        2.920    -0.049    29.206     8.862
    44   6 C        2.924    -0.034    28.847     8.808
    45   6 C        2.928    -0.041    29.031     8.836
    46   6 C        2.974     0.003    27.962     8.674
    47   6 C        2.974     0.003    27.958     8.673
    48   6 C        2.928    -0.042    29.034     8.837
    49   6 C        2.974     0.014    27.692     8.632
    50   6 C        2.976     0.000    28.015     8.682
    51   6 C        2.923    -0.034    28.848     8.808
    52   6 C        2.920    -0.049    29.212     8.863
    53   6 C        2.923     0.065    26.540     8.448
    54   7 N        2.752    -0.077    22.734     7.082
    55   6 C        2.923     0.065    26.539     8.448
    56   6 C        2.922    -0.048    29.188     8.860
    57   6 C        2.919    -0.030    28.752     8.793
    58   6 C        2.919    -0.039    28.969     8.826
    59   6 C        2.919    -0.030    28.750     8.793
    60   6 C        2.922    -0.048    29.184     8.859
    61   6 C        2.924     0.065    26.539     8.448
    62   6 C        2.922    -0.048    29.181     8.859
    63   6 C        2.919    -0.030    28.750     8.793
    64   6 C        2.919    -0.039    28.965     8.825
    65   6 C        2.919    -0.030    28.750     8.793
    66   6 C        2.922    -0.047    29.179     8.858
    67   6 C        2.920    -0.049    29.210     8.863
    68   6 C        2.924    -0.034    28.838     8.807
    69   6 C        2.921    -0.035    28.878     8.812
    70   6 C        2.921    -0.030    28.744     8.792
    71   6 C        2.988    -0.011    28.288     8.725
    72   6 C        2.959     0.086    26.075     8.376
    73   7 N        1.848    -0.273    27.942     7.834
    74   6 C        2.962     0.082    26.174     8.392
    75   6 C        2.923    -0.054    29.337     8.882
    76   6 C        2.923    -0.033    28.834     8.806
    77   6 C        2.920    -0.049    29.211     8.863
    78   6 C        2.922    -0.047    29.176     8.858
    79   6 C        2.919    -0.030    28.745     8.792
    80   1 H        0.926     0.033     2.544     2.494
    81   1 H        0.926     0.034     2.525     2.485
    82   1 H        0.926     0.033     2.550     2.497
    83   1 H        0.926     0.032     2.554     2.499
    84   1 H        0.926     0.034     2.528     2.487
    85   1 H        0.926     0.033     2.547     2.496
    86   1 H        0.926     0.034     2.527     2.486
    87   1 H        0.926     0.032     2.552     2.498
    88   1 H        0.926     0.036     2.506     2.475
    89   1 H        0.926     0.037     2.489     2.467
    90   1 H        0.926     0.048     2.346     2.395
    91   1 H        0.926     0.048     2.339     2.391
    92   1 H        0.926     0.052     2.299     2.371
    93   1 H        0.926     0.041     2.437     2.441
    94   1 H        0.926     0.037     2.487     2.466
    95   1 H        0.926     0.034     2.533     2.489
    96   1 H        0.926     0.032     2.561     2.503
    97   1 H        0.926     0.033     2.537     2.491
    98   1 H        0.926     0.032     2.558     2.501
    99   1 H        0.926     0.033     2.537     2.491
   100   1 H        0.926     0.032     2.558     2.501
   101   1 H        0.926     0.032     2.562     2.503
   102   1 H        0.926     0.033     2.540     2.492
   103   1 H        0.926     0.032     2.560     2.502
   104   1 H        0.926     0.033     2.538     2.491
   105   1 H        0.926     0.032     2.561     2.502
   106   1 H        0.926     0.034     2.526     2.486
   107   1 H        0.926     0.037     2.493     2.469
   108   1 H        0.926     0.044     2.395     2.420
   109   1 H        0.926     0.044     2.395     2.420
   110   1 H        0.926     0.037     2.496     2.470
   111   1 H        0.926     0.034     2.528     2.486
   112   1 H        0.926     0.032     2.556     2.500
   113   1 H        0.926     0.034     2.534     2.490
   114   1 H        0.926     0.032     2.556     2.500
   115   1 H        0.926     0.033     2.537     2.491
   116   1 H        0.926     0.032     2.562     2.503
   117   1 H        0.926     0.032     2.554     2.499
   118   1 H        0.926     0.034     2.533     2.489
   119   1 H        0.926     0.032     2.554     2.499
   120   1 H        0.926     0.034     2.535     2.490
   121   1 H        0.926     0.032     2.560     2.502
   122   1 H        0.926     0.034     2.532     2.489
   123   1 H        0.926     0.037     2.489     2.467
   124   1 H        0.926     0.041     2.435     2.440
   125   1 H        0.926     0.052     2.296     2.370
   126   1 H        0.926     0.048     2.345     2.394
   127   1 H        0.926     0.038     2.474     2.460
   128   1 H        0.926     0.036     2.503     2.474
   129   1 H        0.926     0.032     2.553     2.499
   130   1 H        0.926     0.034     2.526     2.485

molecular dipole:
                 x           y           z       tot (Debye)
 q only:       -0.518      -0.459      -0.017
   full:       -0.473      -0.422      -0.012       1.612

 projected vibrational frequencies (cm⁻¹)
eigval :       -0.00     0.00     0.00     0.00     0.00     0.00
eigval :        6.64     7.57     8.92     9.51    11.12    11.40
eigval :       18.67    20.99    24.37    36.38    37.73    39.53
eigval :       43.73    45.13    46.64    50.43    53.10    59.80
eigval :       60.95    61.79    65.76    68.92    72.79    78.00
eigval :       80.77    87.38    94.67    99.70   100.13   105.35
eigval :      109.84   115.83   123.79   138.02   149.96   161.81
eigval :      179.49   190.64   190.72   203.57   212.08   214.31
eigval :      226.48   231.99   233.26   234.91   240.35   265.10
eigval :      276.09   286.18   296.65   303.16   308.63   315.00
eigval :      317.14   326.97   331.42   345.48   346.41   357.96
eigval :      368.56   376.05   376.92   377.76   378.89   378.97
eigval :      379.73   380.36   382.32   386.38   386.85   388.03
eigval :      392.11   397.14   401.89   417.90   422.01   430.46
eigval :      437.36   439.22   446.39   450.55   468.16   471.83
eigval :      483.11   489.26   491.43   491.75   492.87   505.99
eigval :      510.25   513.96   520.31   565.23   569.52   572.59
eigval :      581.71   582.39   582.88   584.88   585.45   588.22
eigval :      590.84   592.47   592.72   593.90   595.03   597.00
eigval :      606.12   613.23   617.38   620.14   630.45   636.94
eigval :      643.37   659.55   660.00   660.10   661.70   666.01
eigval :      667.56   671.37   676.74   679.19   688.87   690.64
eigval :      699.79   701.06   712.33   720.10   733.40   740.57
eigval :      756.14   756.64   758.57   760.58   761.37   762.98
eigval :      767.28   777.21   804.34   808.49   810.38   825.71
eigval :      832.36   837.24   839.64   861.72   864.81   866.24
eigval :      867.61   871.08   873.00   874.82   875.75   876.99
eigval :      877.29   878.97   879.59   880.95   889.43   891.14
eigval :      891.77   892.66   894.81   895.48   896.20   909.23
eigval :      909.27   909.37   913.98   914.23   915.21   917.62
eigval :      920.69   923.43   925.41   925.61   926.34   927.35
eigval :      927.37   927.72   928.14   928.51   929.01   929.09
eigval :      929.32   930.52   931.32   931.57   932.52   933.18
eigval :      934.64   936.00   953.25   983.06   983.95   984.49
eigval :     1003.98  1004.00  1004.03  1009.87  1015.26  1018.33
eigval :     1042.82  1061.99  1066.92  1081.33  1081.54  1081.70
eigval :     1082.11  1082.69  1082.79  1083.53  1099.96  1120.20
eigval :     1120.30  1120.43  1122.43  1122.43  1123.89  1139.98
eigval :     1140.14  1141.34  1150.75  1155.22  1157.26  1178.35
eigval :     1178.37  1178.67  1179.56  1179.68  1181.18  1184.67
eigval :     1184.98  1185.22  1193.51  1193.83  1193.96  1194.79
eigval :     1195.83  1196.26  1208.59  1210.65  1214.06  1215.25
eigval :     1220.41  1228.86  1242.98  1264.97  1267.70  1269.05
eigval :     1270.51  1271.94  1273.50  1277.01  1277.04  1277.22
eigval :     1280.19  1280.70  1281.47  1293.35  1301.01  1306.07
eigval :     1308.01  1308.95  1309.51  1314.28  1314.81  1315.11
eigval :     1318.54  1320.46  1323.67  1323.74  1324.02  1324.65
eigval :     1325.48  1326.02  1327.19  1327.92  1339.12  1355.54
eigval :     1376.70  1392.55  1405.59  1407.94  1411.77  1413.14
eigval :     1431.25  1432.05  1434.45  1435.00  1435.80  1440.64
eigval :     1441.09  1441.30  1454.89  1468.89  1469.20  1469.84
eigval :     1471.11  1472.23  1472.51  1472.57  1478.84  1488.52
eigval :     1493.08  1495.25  1503.63  1525.10  1544.10  1547.77
eigval :     1552.28  1555.33  1557.77  1574.77  1575.72  1575.73
eigval :     1575.82  1579.16  1579.41  1579.80  1582.56  1584.61
eigval :     1591.06  1591.23  1591.28  1593.57  1595.92  1597.04
eigval :     1600.25  1601.52  1604.45  3071.25  3071.53  3071.83
eigval :     3072.00  3072.27  3072.28  3072.49  3072.69  3072.77
eigval :     3073.02  3073.37  3073.72  3075.05  3075.29  3077.13
eigval :     3077.14  3077.57  3079.03  3080.96  3081.27  3081.88
eigval :     3082.06  3082.26  3082.70  3082.95  3083.89  3084.26
eigval :     3084.55  3084.59  3084.60  3085.01  3085.76  3085.76
eigval :     3086.85  3086.90  3088.59  3089.92  3090.24  3091.19
eigval :     3092.16  3092.70  3093.64  3093.79  3093.89  3094.18
eigval :     3094.66  3094.71  3101.71  3102.37  3102.42  3112.18

   temp. (K)  partition function   enthalpy   heat capacity  entropy
                                   cal/mol     cal/K/mol   cal/K/mol   J/K/mol
 298.15  VIB  0.287E+33            38197.099    236.224    243.435
         ROT  0.805E+09              888.752      2.981     43.731
         INT  0.231E+42            39085.851    239.205    287.166
         TR   0.311E+29             1481.254      4.968     46.591
         TOT                       40567.1050   244.1733   333.7568  1396.4386

       T/K    H(0)-H(T)+PV         H(T)/Eh          T*S/Eh         G(T)/Eh
   ------------------------------------------------------------------------
    298.15    0.646478E-01    0.106988E+01    0.158579E+00    0.911299E+00
   ------------------------------------------------------------------------

         :::::::::::::::::::::::::::::::::::::::::::::::::::::
         ::                  THERMODYNAMIC                  ::
         :::::::::::::::::::::::::::::::::::::::::::::::::::::
         :: total free energy        -198.311534259197 Eh   ::
         ::.................................................::
         :: total energy             -199.222832818299 Eh   ::
         :: zero point energy           1.005229403212 Eh   ::
         :: G(RRHO) w/o ZPVE           -0.093930844109 Eh   ::
         :: G(RRHO) contrib.            0.911298559103 Eh   ::
         :::::::::::::::::::::::::::::::::::::::::::::::::::::

           -------------------------------------------------
          | TOTAL ENERGY             -199.222832818299 Eh   |
          | TOTAL ENTHALPY           -198.152955618207 Eh   |
          | TOTAL FREE ENERGY        -198.311534259197 Eh   |
          | GRADIENT NORM               0.000065119784 Eh/α |
          | HOMO-LUMO GAP               1.318241164060 eV   |
           -------------------------------------------------

 * finished run on 2025/07/19 at 20:44:36.089
