   * xtb version 6.7.1 (edcfbbe) compiled by 'albert@albert-system' on 2024-07-22

   ID    Z sym.   atoms
    1    6 C      1-4, 6-19, 21-29, 31-53, 55-72, 74-79
    2    7 N      5, 20, 30, 54, 73
    3    1 H      80-130

          program call               : xtb data2507/toluene/DBP-3TPA/DBP-3TPA_toluene_T1_crest.xyz --gfn 2 --uhf 2 --gbsa toluene --ohess vtight --parallel 40 --molden --ceasefiles --namespace data2507/toluene/DBP-3TPA/DBP-3TPA_toluene_T1_finalOpt
      * Solvation model:               GBSA
        Solvent                        toluene
        Solvent mass                       9.2140E+01 g/mol
          :  Hamiltonian                  GFN2-xTB          :
 * total energy  :  -199.1731850 Eh     change       -0.2705633E-07 Eh
 * total energy  :  -199.1733011 Eh     change       -0.1161373E-03 Eh
 * total energy  :  -199.1733694 Eh     change       -0.6827193E-04 Eh
 * total energy  :  -199.1733776 Eh     change       -0.8241708E-05 Eh
 * total energy  :  -199.1733838 Eh     change       -0.6213634E-05 Eh
 * total energy  :  -199.1733869 Eh     change       -0.3113809E-05 Eh
 * total energy  :  -199.1733916 Eh     change       -0.4705135E-05 Eh
 * total energy  :  -199.1733927 Eh     change       -0.1053620E-05 Eh
 * total energy  :  -199.1733945 Eh     change       -0.1793084E-05 Eh
 * total energy  :  -199.1733967 Eh     change       -0.2176188E-05 Eh
 * total energy  :  -199.1734211 Eh     change       -0.7940855E-06 Eh
 * total energy  :  -199.1734219 Eh     change       -0.8397255E-06 Eh
 * total energy  :  -199.1734227 Eh     change       -0.8187986E-06 Eh
 * total energy  :  -199.1734235 Eh     change       -0.7435538E-06 Eh
 * total energy  :  -199.1734242 Eh     change       -0.6769575E-06 Eh
 * total energy  :  -199.1734248 Eh     change       -0.6863591E-06 Eh
 * total energy  :  -199.1734256 Eh     change       -0.7578050E-06 Eh
 * total energy  :  -199.1734264 Eh     change       -0.8241094E-06 Eh
 * total energy  :  -199.1734264 Eh     change       -0.8102489E-08 Eh
   *** GEOMETRY OPTIMIZATION CONVERGED AFTER 44 ITERATIONS ***

 final structure:
================
130
 xtb: 6.7.1 (edcfbbe)
C           14.84690912678984        3.07599584825406        0.04220617199153
C           13.66215746836105        3.31086406099426       -0.63752097054433
C           12.67306737660993        2.34711333067351       -0.67411128079967
C           12.85440352923308        1.12870109589614       -0.01819024954025
N           11.85376512115647        0.15036352762733       -0.04922263769898
C           12.20115332625198       -1.20297303695138       -0.13571469646469
C           13.28432734329526       -1.60696582922186       -0.91725549657947
C           13.62635533878344       -2.94322410879028       -0.99456864718044
C           12.89454744293685       -3.89660067144792       -0.30438016087629
C           11.81487419899012       -3.50119726959887        0.46946304494500
C           11.46913166078169       -2.16665700914757        0.55917499005724
C           10.50838355662157        0.52501949188142        0.00057750857414
C           10.09748559753042        1.60342069037063        0.78689990001216
C            8.77221567798820        1.97860928039435        0.82239058258499
C            7.80405333196618        1.28941551978739        0.08812984059562
C            6.39797680356561        1.69545695027546        0.12133331465014
C            6.04748459863420        3.04707985145469        0.18672693455696
C            4.72661526268840        3.44414504054867        0.19528318386437
C            3.69163320486354        2.50805025982253        0.14955065265117
N            2.40731692409521        2.85690857618513        0.15466505581682
C            1.43656550199218        1.94913550111707        0.11260814980401
C            0.06491744784183        2.33997038402656        0.10813712202631
C           -0.26388148089320        3.70716921596526        0.13848116856902
C           -1.56637749158096        4.12314910496965        0.12507994083576
C           -2.61017629754563        3.18196756763800        0.08577288803230
C           -4.01104629442174        3.61400589670838        0.07079347695996
C           -4.41099792488814        4.73484957839943       -0.65866532540773
C           -5.73112624255631        5.12948770176721       -0.69385469636433
C           -6.70220258483280        4.42091784729532        0.01686671506108
N           -8.04223622123002        4.81398854487452       -0.02027984648782
C           -8.37183036555704        6.17423491566620       -0.07004399505731
C           -9.44426474851423        6.61461693136033       -0.84631046175503
C           -9.76848611205832        7.95699851488703       -0.88686573001056
C           -9.02887390347267        8.88032412182900       -0.16493919048961
C           -7.95978394166897        8.44857630233447        0.60410910268164
C           -7.63240108604974        7.10746197062940        0.65748888255320
C           -9.05685713978462        3.84936747115993       -0.01146367740182
C           -8.89232306295210        2.64178484246527       -0.69140793909729
C           -9.89400628241973        1.69053221487146       -0.67335062896609
C          -11.07616283243716        1.92844264169643        0.00970224148127
C          -11.24773066057025        3.12878636587349        0.68078130878444
C          -10.24786794713985        4.08222677690273        0.67736264030786
C           -6.30627847752344        3.30924985527567        0.76357645899763
C           -4.98685791721724        2.91248804111595        0.78148387182434
C           -2.29143770425162        1.83519561712121        0.05761580034829
C           -0.97065431744873        1.37522848675647        0.06702180633875
C           -0.62834015361530       -0.02853741099534        0.03533989896312
C           -1.59084734674867       -1.04353324565306        0.00768603155491
C           -1.25496172356571       -2.38587511908420       -0.00767890686035
C           -2.30383161060178       -3.41113980686075       -0.02436402925304
C           -3.45579860258114       -3.24608710884878       -0.79495812559894
C           -4.45019819768423       -4.20020153642464       -0.80402855260854
C           -4.33278567263158       -5.35312082649944       -0.02523205188532
N           -5.34873694521949       -6.31282805393989       -0.01729553903934
C           -5.02741645181680       -7.67290717284377        0.06605352599304
C           -5.82242964735734       -8.54390264402756        0.81193848847106
C           -5.50321615683032       -9.88602087564744        0.88647453950652
C           -4.38717201904167      -10.38013256430255        0.22999258272472
C           -3.59175331432871       -9.51861265189471       -0.50877128540170
C           -3.90721631421987       -8.17646505615750       -0.59642851305818
C           -6.68857551372786       -5.91252414509434       -0.08865611657768
C           -7.11685318336668       -4.75532588542002        0.56327792736420
C           -8.43848611134122       -4.36063217265728        0.48528660150460
C           -9.35495323224838       -5.11341058666870       -0.23174807444713
C           -8.93619261762361       -6.26633682854405       -0.87675254529766
C           -7.61472765816921       -6.66448773281453       -0.81245536869350
C           -3.18202605511018       -5.52570457776398        0.74637679375325
C           -2.18472287400421       -4.57393599048186        0.73773298159698
C            0.10385453214699       -2.74427733266527        0.00185217687525
C            1.07038297824339       -1.77630077180735        0.02064012648191
C            0.73411617753532       -0.41152817797928        0.03979652532620
C            1.77598330860240        0.56591647326151        0.06893531212933
N            3.05172309808833        0.20474660443059        0.05767686108886
C            4.03868311336756        1.10661248527064        0.09204664729677
C            5.37939992130566        0.74271162818003        0.07509697682798
C            8.22190056210976        0.20430701007924       -0.68616541688558
C            9.54697861848345       -0.16974384374178       -0.73640135776967
C           14.04748644336870        0.89905810367833        0.66825343209028
C           15.03384290343724        1.86607626992080        0.69172639739016
H           15.61875107565418        3.83047667595524        0.06568871713630
H           13.50978310487679        4.24877321560990       -1.15145896251961
H           11.75516318636512        2.52770835151455       -1.21429963055347
H           13.84948287021852       -0.86693069834705       -1.46486923568303
H           14.46554379833751       -3.24267959543550       -1.60531351592178
H           13.16344888176771       -4.94020627131793       -0.36924018591195
H           11.24159752792596       -4.23651333958061        1.01504209647386
H           10.63403543204360       -1.85945571060385        1.17171314284729
H           10.82713615178498        2.13910158717328        1.37663589286452
H            8.47446520573438        2.80131920963133        1.45539509235234
H            6.82220406898919        3.79888569457962        0.20014702948360
H            4.46208832479737        4.49040646076216        0.23000747470339
H            0.54892095002373        4.41730411564622        0.17520939905342
H           -1.79800182683937        5.17703234164698        0.16785231885036
H           -3.68071909541070        5.28313885246096       -1.23527363813635
H           -6.02364840543338        5.98603742919503       -1.28355977745091
H          -10.01587856783705        5.89827658045207       -1.41825068112215
H          -10.59952392767057        8.28516550331356       -1.49399584031001
H           -9.28372258533383        9.92883764268606       -0.20123729120352
H           -7.38089207506147        9.16025125107928        1.17455917691377
H           -6.80602017731691        6.77157311833420        1.26680442622109
H           -7.97728636779139        2.45892770359496       -1.23561043247987
H           -9.75343224483998        0.76045766871707       -1.20468778459873
H          -11.85836562036931        1.18435334421883        0.01845957022235
H          -12.16397374776498        3.32141786073486        1.21966240072762
H          -10.37991813448589        5.01192257348891        1.21134632289643
H           -7.04272837670907        2.76395022643178        1.33564757973523
H           -4.69975763052113        2.06239049347910        1.38273326964810
H           -3.10155916620485        1.12606835627004        0.00200218019867
H           -2.63758468485496       -0.78589716457991        0.02481445381333
H           -3.55720557042829       -2.37083196727286       -1.41975378615540
H           -5.32619564830563       -4.06307007235578       -1.42114001939119
H           -6.68669429944844       -8.15955535339379        1.33381383116270
H           -6.12575566289134      -10.54909213935423        1.46943226051296
H           -4.13922674238135      -11.42897592832729        0.29325467009958
H           -2.72288652863196       -9.89567761761718       -1.02837617980831
H           -3.29199032633349       -7.50918245298377       -1.18232132312307
H           -6.40738844006145       -4.17328687087583        1.13322789099105
H           -8.75622695898176       -3.46332296551969        0.99619359478660
H          -10.38781913256798       -4.80402999224062       -0.28776987784520
H           -9.64212303909602       -6.85670802519992       -1.44255730173477
H           -7.28924032972342       -7.55752432877589       -1.32578197633889
H           -3.08211456548809       -6.40834134777501        1.36118235507658
H           -1.31279147553989       -4.71579907622859        1.35912986701985
H            0.38194290327473       -3.78734782364976       -0.02842129151105
H            2.11917760285147       -2.03385417521156        0.02013129174857
H            5.61226201554623       -0.31109556126179        0.05306028477563
H            7.49917057189973       -0.33089216051891       -1.28405352745183
H            9.85164912367227       -0.99834309345119       -1.35906145013925
H           14.19111108337715       -0.03872070777541        1.18484545709681
H           15.95173577362504        1.67644370431550        1.22880341663616

          :  Hamiltonian                  GFN2-xTB          :
         :: gradient norm              0.000054186531 Eh/a0 ::
         :: HOMO-LUMO gap              0.815593143307 eV    ::
         :: SCC energy              -202.932920842070 Eh    ::
         :: -> dispersion             -0.183072737391 Eh    ::
         :: -> Gsolv                  -0.086792329925 Eh    ::
         :: repulsion energy           3.759494410259 Eh    ::

    * Orbital Energies and Occupations

         #    Occupation            Energy/Eh            Energy/eV
      -------------------------------------------------------------
         1        2.0000           -0.6686568             -18.1951
       ...           ...                  ...                  ...
       175        2.0000           -0.4064508             -11.0601
       176        2.0000           -0.4061747             -11.0526
       177        2.0000           -0.4060721             -11.0498
       178        2.0000           -0.4025399             -10.9537
       179        2.0000           -0.3966604             -10.7937
       180        2.0000           -0.3892228             -10.5913
       181        2.0000           -0.3802665             -10.3476
       182        2.0000           -0.3769324             -10.2569
       183        1.9747           -0.3526399              -9.5958
       184        1.9370           -0.3517368              -9.5712
       185        1.8252           -0.3506464              -9.5416
       186        1.2631           -0.3481933              -9.4748
       187        1.0000           -0.2961091              -8.0575 (HOMO)
       188        0.0000           -0.2661368              -7.2420 (LUMO)
       189                         -0.2463883              -6.7046
       190                         -0.2430481              -6.6137
       191                         -0.2395633              -6.5188
       192                         -0.2333795              -6.3506
       193                         -0.2332454              -6.3469
       194                         -0.2330733              -6.3422
       195                         -0.2296127              -6.2481
       196                         -0.2294100              -6.2426
       197                         -0.2292829              -6.2391
       198                         -0.2281592              -6.2085
       ...                                ...                  ...
       367                          0.7222058              19.6522
      -------------------------------------------------------------
                  HL-Gap            0.0299723 Eh            0.8156 eV

     #   Z          covCN         q      C6AA      α(0)
     1   6 C        2.919    -0.037    28.920     8.819
     2   6 C        2.919    -0.029    28.726     8.789
     3   6 C        2.922    -0.046    29.146     8.853
     4   6 C        2.924     0.065    26.541     8.449
     5   7 N        2.752    -0.067    22.533     7.050
     6   6 C        2.924     0.065    26.542     8.449
     7   6 C        2.922    -0.046    29.148     8.854
     8   6 C        2.919    -0.029    28.727     8.789
     9   6 C        2.919    -0.037    28.918     8.818
    10   6 C        2.919    -0.029    28.725     8.789
    11   6 C        2.922    -0.046    29.143     8.853
    12   6 C        2.924     0.062    26.602     8.458
    13   6 C        2.920    -0.047    29.177     8.858
    14   6 C        2.924    -0.035    28.876     8.812
    15   6 C        2.975     0.004    27.932     8.669
    16   6 C        2.972    -0.000    28.032     8.685
    17   6 C        2.920    -0.043    29.073     8.842
    18   6 C        2.916    -0.063    29.575     8.918
    19   6 C        2.941     0.087    26.057     8.372
    20   7 N        1.849    -0.252    27.416     7.760
    21   6 C        2.942     0.079    26.229     8.400
    22   6 C        2.987    -0.013    28.328     8.731
    23   6 C        2.921    -0.032    28.803     8.801
    24   6 C        2.920    -0.039    28.968     8.826
    25   6 C        2.973     0.006    27.881     8.661
    26   6 C        2.975     0.004    27.941     8.671
    27   6 C        2.924    -0.034    28.844     8.807
    28   6 C        2.920    -0.047    29.179     8.858
    29   6 C        2.924     0.063    26.582     8.455
    30   7 N        2.752    -0.068    22.550     7.053
    31   6 C        2.924     0.065    26.542     8.449
    32   6 C        2.922    -0.046    29.147     8.853
    33   6 C        2.919    -0.029    28.729     8.789
    34   6 C        2.919    -0.037    28.919     8.818
    35   6 C        2.919    -0.029    28.727     8.789
    36   6 C        2.922    -0.046    29.144     8.853
    37   6 C        2.924     0.065    26.542     8.449
    38   6 C        2.922    -0.046    29.153     8.854
    39   6 C        2.919    -0.029    28.729     8.790
    40   6 C        2.919    -0.037    28.925     8.820
    41   6 C        2.919    -0.029    28.730     8.790
    42   6 C        2.922    -0.046    29.154     8.855
    43   6 C        2.920    -0.047    29.178     8.858
    44   6 C        2.924    -0.035    28.859     8.810
    45   6 C        2.927    -0.042    29.043     8.838
    46   6 C        2.975    -0.004    28.126     8.699
    47   6 C        2.975    -0.004    28.108     8.696
    48   6 C        2.927    -0.042    29.045     8.838
    49   6 C        2.973     0.007    27.865     8.659
    50   6 C        2.976     0.003    27.944     8.671
    51   6 C        2.924    -0.034    28.858     8.810
    52   6 C        2.920    -0.047    29.176     8.858
    53   6 C        2.924     0.063    26.580     8.455
    54   7 N        2.752    -0.069    22.571     7.056
    55   6 C        2.924     0.065    26.540     8.448
    56   6 C        2.922    -0.047    29.155     8.855
    57   6 C        2.919    -0.029    28.732     8.790
    58   6 C        2.919    -0.037    28.927     8.820
    59   6 C        2.919    -0.029    28.730     8.790
    60   6 C        2.922    -0.046    29.153     8.854
    61   6 C        2.924     0.065    26.541     8.448
    62   6 C        2.922    -0.046    29.154     8.855
    63   6 C        2.919    -0.029    28.730     8.790
    64   6 C        2.919    -0.037    28.929     8.820
    65   6 C        2.919    -0.029    28.732     8.790
    66   6 C        2.922    -0.047    29.155     8.855
    67   6 C        2.920    -0.047    29.177     8.858
    68   6 C        2.924    -0.034    28.842     8.807
    69   6 C        2.920    -0.039    28.970     8.826
    70   6 C        2.921    -0.032    28.790     8.799
    71   6 C        2.987    -0.013    28.336     8.732
    72   6 C        2.940     0.083    26.159     8.388
    73   7 N        1.849    -0.254    27.472     7.768
    74   6 C        2.938     0.086    26.092     8.377
    75   6 C        2.924    -0.069    29.709     8.938
    76   6 C        2.924    -0.035    28.867     8.811
    77   6 C        2.919    -0.047    29.173     8.857
    78   6 C        2.922    -0.046    29.149     8.854
    79   6 C        2.919    -0.029    28.727     8.789
    80   1 H        0.926     0.035     2.517     2.481
    81   1 H        0.926     0.036     2.504     2.475
    82   1 H        0.926     0.034     2.530     2.487
    83   1 H        0.926     0.035     2.519     2.482
    84   1 H        0.926     0.037     2.495     2.470
    85   1 H        0.926     0.035     2.516     2.480
    86   1 H        0.926     0.036     2.504     2.474
    87   1 H        0.926     0.034     2.531     2.488
    88   1 H        0.926     0.036     2.509     2.477
    89   1 H        0.926     0.037     2.495     2.470
    90   1 H        0.926     0.036     2.507     2.476
    91   1 H        0.926     0.038     2.473     2.459
    92   1 H        0.926     0.040     2.452     2.449
    93   1 H        0.926     0.036     2.506     2.476
    94   1 H        0.926     0.037     2.488     2.467
    95   1 H        0.926     0.035     2.518     2.481
    96   1 H        0.926     0.035     2.521     2.483
    97   1 H        0.926     0.036     2.502     2.473
    98   1 H        0.926     0.035     2.523     2.484
    99   1 H        0.926     0.036     2.506     2.476
   100   1 H        0.926     0.034     2.525     2.485
   101   1 H        0.926     0.034     2.525     2.485
   102   1 H        0.926     0.036     2.500     2.472
   103   1 H        0.926     0.035     2.522     2.483
   104   1 H        0.926     0.036     2.507     2.476
   105   1 H        0.926     0.034     2.530     2.487
   106   1 H        0.926     0.036     2.507     2.476
   107   1 H        0.926     0.037     2.486     2.466
   108   1 H        0.926     0.039     2.457     2.451
   109   1 H        0.926     0.039     2.456     2.450
   110   1 H        0.926     0.037     2.488     2.467
   111   1 H        0.926     0.035     2.510     2.477
   112   1 H        0.926     0.034     2.527     2.486
   113   1 H        0.926     0.036     2.507     2.476
   114   1 H        0.926     0.034     2.528     2.487
   115   1 H        0.926     0.035     2.511     2.478
   116   1 H        0.926     0.034     2.530     2.487
   117   1 H        0.926     0.034     2.529     2.487
   118   1 H        0.926     0.036     2.502     2.474
   119   1 H        0.926     0.034     2.524     2.485
   120   1 H        0.926     0.036     2.509     2.477
   121   1 H        0.926     0.034     2.532     2.488
   122   1 H        0.926     0.035     2.517     2.481
   123   1 H        0.926     0.037     2.489     2.467
   124   1 H        0.926     0.036     2.502     2.474
   125   1 H        0.926     0.040     2.444     2.445
   126   1 H        0.926     0.039     2.461     2.453
   127   1 H        0.926     0.035     2.510     2.478
   128   1 H        0.926     0.035     2.514     2.480
   129   1 H        0.926     0.035     2.520     2.482
   130   1 H        0.926     0.036     2.496     2.471

molecular dipole:
                 x           y           z       tot (Debye)
 q only:       -1.624      -0.925      -0.069
   full:       -1.541      -0.872      -0.068       4.504

 projected vibrational frequencies (cm⁻¹)
eigval :       -0.00    -0.00     0.00     0.00     0.00     0.00
eigval :        5.53     7.11     7.58     8.54    10.13    11.74
eigval :       18.79    20.45    23.14    36.33    36.81    38.28
eigval :       40.16    44.24    46.33    51.39    53.04    56.19
eigval :       60.84    62.72    65.79    69.31    73.37    78.84
eigval :       81.42    86.85    92.15    98.59   100.38   104.12
eigval :      110.27   116.59   123.85   139.07   154.32   163.69
eigval :      173.49   183.14   196.62   205.92   210.56   212.48
eigval :      224.51   227.77   232.82   233.05   234.24   265.62
eigval :      270.05   283.76   294.86   302.72   308.28   310.43
eigval :      317.84   325.39   332.10   333.08   348.65   358.66
eigval :      368.41   370.80   375.39   376.10   376.69   378.43
eigval :      378.90   379.28   380.50   385.69   387.59   388.32
eigval :      394.99   400.66   402.36   411.98   420.13   424.45
eigval :      428.42   433.21   439.95   452.61   464.28   475.09
eigval :      480.82   486.97   491.02   492.71   493.16   504.32
eigval :      510.14   514.45   517.87   558.34   564.72   570.37
eigval :      579.57   580.58   581.72   582.77   583.97   587.16
eigval :      588.02   588.65   589.96   592.92   593.26   593.78
eigval :      600.84   612.81   613.99   615.94   625.07   627.64
eigval :      630.63   639.97   657.90   659.25   659.50   660.40
eigval :      664.80   666.66   672.88   676.85   679.41   685.91
eigval :      688.54   693.51   696.09   703.36   719.17   719.91
eigval :      734.61   753.50   755.19   755.38   756.09   758.69
eigval :      759.06   769.71   793.05   800.74   806.64   807.49
eigval :      817.58   825.84   831.43   832.53   856.17   863.53
eigval :      865.82   867.64   868.70   869.31   871.98   873.14
eigval :      873.47   873.59   874.51   875.48   882.77   886.71
eigval :      890.47   890.87   892.39   892.89   893.77   895.34
eigval :      909.05   909.15   909.17   910.20   913.56   915.24
eigval :      917.70   919.63   920.04   922.46   923.81   925.01
eigval :      925.29   925.70   925.90   926.26   926.74   927.34
eigval :      927.58   927.95   928.06   928.41   928.77   929.95
eigval :      931.14   931.60   935.64   981.06   983.35   983.89
eigval :     1003.27  1003.37  1003.41  1005.76  1016.26  1017.57
eigval :     1035.52  1060.17  1072.03  1079.50  1080.88  1080.91
eigval :     1081.00  1081.78  1081.86  1082.11  1097.28  1119.61
eigval :     1119.72  1120.02  1121.88  1122.09  1122.26  1137.86
eigval :     1139.98  1141.02  1144.37  1154.61  1156.88  1177.36
eigval :     1177.40  1177.62  1177.88  1178.23  1179.21  1180.40
eigval :     1182.08  1183.38  1192.30  1192.36  1192.69  1193.77
eigval :     1194.41  1195.10  1208.44  1210.08  1213.15  1216.77
eigval :     1219.54  1220.67  1244.03  1259.65  1264.26  1264.90
eigval :     1270.01  1270.93  1271.47  1274.90  1275.74  1275.92
eigval :     1276.01  1276.52  1278.96  1282.11  1285.45  1293.24
eigval :     1301.43  1305.20  1306.29  1307.09  1311.70  1313.48
eigval :     1314.31  1314.55  1316.72  1318.95  1322.52  1323.92
eigval :     1324.34  1324.58  1324.68  1324.95  1332.10  1341.22
eigval :     1348.31  1368.23  1396.17  1399.66  1406.49  1410.22
eigval :     1414.30  1422.62  1423.25  1432.88  1433.17  1433.42
eigval :     1439.66  1439.81  1440.06  1456.38  1464.00  1466.33
eigval :     1466.63  1467.11  1467.74  1468.20  1468.61  1474.36
eigval :     1485.50  1490.09  1494.18  1506.56  1514.24  1530.55
eigval :     1539.78  1548.09  1549.97  1551.19  1567.59  1572.74
eigval :     1573.18  1573.34  1574.28  1576.61  1577.26  1577.52
eigval :     1586.16  1587.46  1587.77  1588.10  1589.93  1591.34
eigval :     1594.98  1596.59  1597.38  3073.02  3073.29  3073.36
eigval :     3073.41  3073.60  3073.67  3073.85  3074.29  3074.36
eigval :     3074.61  3074.74  3075.00  3075.43  3075.86  3076.11
eigval :     3077.00  3077.40  3077.42  3078.53  3078.65  3079.10
eigval :     3082.84  3083.24  3083.29  3083.69  3084.10  3084.11
eigval :     3085.14  3085.50  3086.08  3086.10  3086.63  3086.95
eigval :     3087.08  3087.18  3087.47  3088.21  3089.20  3089.38
eigval :     3089.82  3090.38  3090.96  3091.64  3093.72  3094.07
eigval :     3094.42  3094.50  3094.66  3095.07  3097.76  3108.08

   temp. (K)  partition function   enthalpy   heat capacity  entropy
                                   cal/mol     cal/K/mol   cal/K/mol   J/K/mol
 298.15  VIB  0.787E+33            38411.437    237.435    245.126
         ROT  0.799E+09              888.752      2.981     43.718
         INT  0.629E+42            39300.190    240.416    288.844
         TR   0.311E+29             1481.254      4.968     46.591
         TOT                       40781.4437   245.3840   335.4348  1403.4592

       T/K    H(0)-H(T)+PV         H(T)/Eh          T*S/Eh         G(T)/Eh
   ------------------------------------------------------------------------
    298.15    0.649894E-01    0.106714E+01    0.159376E+00    0.907766E+00
   ------------------------------------------------------------------------

         :::::::::::::::::::::::::::::::::::::::::::::::::::::
         ::                  THERMODYNAMIC                  ::
         :::::::::::::::::::::::::::::::::::::::::::::::::::::
         :: total free energy        -198.265660375059 Eh   ::
         ::.................................................::
         :: total energy             -199.173426426291 Eh   ::
         :: zero point energy           1.002152578355 Eh   ::
         :: G(RRHO) w/o ZPVE           -0.094386527123 Eh   ::
         :: G(RRHO) contrib.            0.907766051232 Eh   ::
         :::::::::::::::::::::::::::::::::::::::::::::::::::::

           -------------------------------------------------
          | TOTAL ENERGY             -199.173426426291 Eh   |
          | TOTAL ENTHALPY           -198.106284480593 Eh   |
          | TOTAL FREE ENERGY        -198.265660375059 Eh   |
          | GRADIENT NORM               0.000054823469 Eh/α |
          | HOMO-LUMO GAP               0.815588577545 eV   |
           -------------------------------------------------

 * finished run on 2025/07/19 at 21:54:50.439
