   * xtb version 6.7.1 (edcfbbe) compiled by 'albert@albert-system' on 2024-07-22

   ID    Z sym.   atoms
    1    6 C      1-10, 12-24, 26-38, 40-42
    2    7 N      11, 25, 39
    3    1 H      43-69

          program call               : xtb data2507/toluene/Diphenylsulfane/Diphenylsulfane_toluene_S0_crest.xyz --gfn 2 --gbsa toluene --ohess vtight --parallel 40 --molden --ceasefiles --namespace data2507/toluene/Diphenylsulfane/Diphenylsulfane_toluene_S0_finalOpt
      * Solvation model:               GBSA
        Solvent                        toluene
        Solvent mass                       9.2140E+01 g/mol
          :  Hamiltonian                  GFN2-xTB          :
 * total energy  :  -106.0936686 Eh     change       -0.1227022E-08 Eh
 * total energy  :  -106.0937041 Eh     change       -0.3542819E-04 Eh
 * total energy  :  -106.0937270 Eh     change       -0.2295409E-04 Eh
 * total energy  :  -106.0937426 Eh     change       -0.1557055E-04 Eh
 * total energy  :  -106.0937775 Eh     change       -0.3491928E-04 Eh
 * total energy  :  -106.0937966 Eh     change       -0.1909268E-04 Eh
 * total energy  :  -106.0938029 Eh     change       -0.6256983E-05 Eh
 * total energy  :  -106.0938073 Eh     change       -0.4390200E-05 Eh
 * total energy  :  -106.0938117 Eh     change       -0.4460787E-05 Eh
 * total energy  :  -106.0938153 Eh     change       -0.3575179E-05 Eh
 * total energy  :  -106.0938356 Eh     change       -0.2657867E-06 Eh
 * total energy  :  -106.0938360 Eh     change       -0.3319820E-06 Eh
 * total energy  :  -106.0938362 Eh     change       -0.2700235E-06 Eh
 * total energy  :  -106.0938364 Eh     change       -0.1596895E-06 Eh
 * total energy  :  -106.0938365 Eh     change       -0.1174707E-06 Eh
 * total energy  :  -106.0938366 Eh     change       -0.1187753E-06 Eh
 * total energy  :  -106.0938368 Eh     change       -0.1502449E-06 Eh
 * total energy  :  -106.0938370 Eh     change       -0.2448759E-06 Eh
 * total energy  :  -106.0938370 Eh     change       -0.1213579E-08 Eh
   *** GEOMETRY OPTIMIZATION CONVERGED AFTER 44 ITERATIONS ***

 final structure:
================
69
 xtb: 6.7.1 (edcfbbe)
C           -5.68530192752370       -4.76215639732068        0.20922446839658
C           -4.70234459232883       -5.53468987615075        0.80576837159654
C           -3.37244610749543       -5.16830263596477        0.70577452752121
C           -3.00405868417400       -4.01890869337338        0.00950758717745
C           -1.59037569713264       -3.62296233738035       -0.09828085409926
C           -0.58832776289438       -4.57304787497590       -0.29830779873836
C            0.73914438339331       -4.19162335613264       -0.39801141447352
C            1.09381677689452       -2.85887566122754       -0.30431498195837
C            0.10536357152209       -1.89588357293907       -0.10878540390199
C            0.45046365890491       -0.47718080732813       -0.01562291763171
N            1.73598266163212       -0.13660817063530       -0.00003878364971
C            1.99149370649815        1.16653947471377        0.09417248481857
C            3.39235061322469        1.58855681283282        0.11554877566037
C            3.72112693472371        2.94009499280152        0.21159490921783
C            5.04906682817989        3.32212680207245        0.22766310930378
C            6.05201913557816        2.37107847535734        0.14540397164708
C            5.74164415048609        1.01437482706379        0.04836513057343
C            6.80531615617316        0.00039502746395       -0.03991977163142
C            7.93298654899280        0.21928156428389       -0.82829664901090
C            8.92795510001505       -0.73755374523057       -0.91387412463824
C            8.81509353661928       -1.92534915018273       -0.21020827446194
C            7.69934303236754       -2.15184043722377        0.57906698903962
C            6.70054366860268       -1.19891458946215        0.66160790918893
C            4.40438107330362        0.63626151704737        0.03581925393631
N            1.05344309607404        2.10795854920934        0.17015637069217
C           -0.20484664856572        1.67762298027151        0.13471808943141
C           -1.28340543834861        2.66392824677432        0.20128009030359
C           -1.00621284635441        4.01082759502582        0.42824023793783
C           -2.04482541030119        4.92080898828046        0.49131402467407
C           -3.35466674094215        4.50253300926713        0.32696531674989
C           -3.64995360291544        3.15852207613996        0.09754341622632
C           -5.03934574101183        2.70318293662885       -0.07476727730097
C           -5.94481984139250        3.44639266900681       -0.82881092823933
C           -7.24745667536196        3.01113307198297       -0.99223310226145
C           -7.66768293219214        1.83139225236162       -0.40015431080666
C           -6.77573564928874        1.08560610820201        0.35317837668720
C           -5.47114295094623        1.51558013653435        0.51265167068201
C           -2.60174001634639        2.24859771060705        0.03785295267464
N           -0.55048565368215        0.39653631042350        0.04389464125225
C           -1.22699323513675       -2.28488441177322       -0.00600245919302
C           -4.00175965217008       -3.24677920577705       -0.58294115792361
C           -5.33042965485678       -3.61727750060305       -0.48544124332118
H           -6.72339138544655       -5.05092820546863        0.28562047004104
H           -4.97319052481529       -6.42613003313026        1.35304316968626
H           -2.61317690026351       -5.76588448230426        1.18891192076797
H           -0.85451047729733       -5.61533710020565       -0.39356264857315
H            1.50173821980595       -4.94007697283322       -0.55577066598290
H            2.12294480962494       -2.54572564952093       -0.38429713095826
H            2.92767815171564        3.66810725230492        0.27176424065112
H            5.30647221121414        4.36815735615829        0.30638908353172
H            7.08682489354909        2.67876327300816        0.17513647441871
H            8.01865040666118        1.13589990926934       -1.39357173176727
H            9.79419782910878       -0.55677136845889       -1.53391170513355
H            9.59339589038215       -2.67144750986648       -0.27631738534288
H            7.60721195394511       -3.07475568510007        1.13342794946299
H            5.83917938684785       -1.37399167164906        1.29009157220846
H            4.12752384929908       -0.40259530355998       -0.05409828469125
H            0.01913984212591        4.32044240019627        0.55535755186780
H           -1.83400750458748        5.96439520767115        0.67324778737422
H           -4.15920277179124        5.21982136471479        0.39494244077764
H           -5.61808542176198        4.35858029560038       -1.30669332714454
H           -7.93753584219529        3.59404675198138       -1.58513757160429
H           -8.68617794453260        1.49422304807657       -0.52597762430141
H           -7.09769470886307        0.16628018654539        0.82090858432964
H           -4.78387875479536        0.93804725622221        1.11410390360064
H           -2.79190967404941        1.20465378338751       -0.15674386378642
H           -1.97205094307850       -1.52432663891591        0.16778731282646
H           -3.73092620336945       -2.36209912372310       -1.14098395509118
H           -6.09113271095543       -3.01128591487105       -0.95626647601305

          :  Hamiltonian                  GFN2-xTB          :
         :: gradient norm              0.000026591265 Eh/a0 ::
         :: HOMO-LUMO gap              2.380511878372 eV    ::
         :: SCC energy              -108.091927673236 Eh    ::
         :: -> dispersion             -0.086855504216 Eh    ::
         :: -> Gsolv                  -0.052144539947 Eh    ::
         :: repulsion energy           1.998090631172 Eh    ::

    * Orbital Energies and Occupations

         #    Occupation            Energy/Eh            Energy/eV
      -------------------------------------------------------------
         1        2.0000           -0.6898868             -18.7728
       ...           ...                  ...                  ...
        87        2.0000           -0.4176001             -11.3635
        88        2.0000           -0.4172474             -11.3539
        89        2.0000           -0.4141727             -11.2702
        90        2.0000           -0.4129843             -11.2379
        91        2.0000           -0.4122608             -11.2182
        92        2.0000           -0.4066158             -11.0646
        93        2.0000           -0.4065713             -11.0634
        94        2.0000           -0.4065216             -11.0620
        95        2.0000           -0.3925772             -10.6826
        96        2.0000           -0.3923450             -10.6763
        97        2.0000           -0.3921974             -10.6722
        98        2.0000           -0.3800506             -10.3417
        99        2.0000           -0.3799707             -10.3395 (HOMO)
       100                         -0.2924885              -7.9590 (LUMO)
       101                         -0.2922868              -7.9535
       102                         -0.2549934              -6.9387
       103                         -0.2503289              -6.8118
       104                         -0.2501773              -6.8077
       105                         -0.2439735              -6.6389
       106                         -0.2246924              -6.1142
       107                         -0.2246559              -6.1132
       108                         -0.2246034              -6.1118
       109                         -0.2149813              -5.8499
       110                         -0.2142220              -5.8293
       ...                                ...                  ...
       195                          0.6914316              18.8148
      -------------------------------------------------------------
                  HL-Gap            0.0874822 Eh            2.3805 eV

     #   Z          covCN         q      C6AA      α(0)
     1   6 C        2.920    -0.030    28.761     8.794
     2   6 C        2.918    -0.030    28.742     8.792
     3   6 C        2.924    -0.034    28.846     8.808
     4   6 C        2.976     0.009    27.813     8.651
     5   6 C        2.974     0.014    27.704     8.634
     6   6 C        2.925    -0.029    28.716     8.788
     7   6 C        2.916    -0.029    28.715     8.787
     8   6 C        2.922    -0.029    28.722     8.789
     9   6 C        2.982    -0.011    28.286     8.724
    10   6 C        2.981     0.220    23.378     7.931
    11   7 N        1.843    -0.325    29.290     8.021
    12   6 C        2.982     0.219    23.381     7.932
    13   6 C        2.982    -0.011    28.286     8.724
    14   6 C        2.923    -0.029    28.728     8.790
    15   6 C        2.916    -0.029    28.715     8.787
    16   6 C        2.925    -0.029    28.714     8.788
    17   6 C        2.974     0.014    27.702     8.633
    18   6 C        2.977     0.009    27.811     8.651
    19   6 C        2.924    -0.034    28.846     8.808
    20   6 C        2.918    -0.030    28.741     8.791
    21   6 C        2.920    -0.031    28.764     8.795
    22   6 C        2.918    -0.030    28.738     8.791
    23   6 C        2.925    -0.034    28.836     8.806
    24   6 C        2.930    -0.032    28.791     8.800
    25   7 N        1.843    -0.325    29.290     8.021
    26   6 C        2.981     0.220    23.379     7.931
    27   6 C        2.982    -0.011    28.285     8.724
    28   6 C        2.922    -0.029    28.725     8.789
    29   6 C        2.916    -0.029    28.714     8.787
    30   6 C        2.925    -0.029    28.715     8.788
    31   6 C        2.974     0.014    27.703     8.634
    32   6 C        2.977     0.009    27.812     8.651
    33   6 C        2.924    -0.034    28.845     8.808
    34   6 C        2.918    -0.030    28.741     8.791
    35   6 C        2.920    -0.031    28.762     8.795
    36   6 C        2.918    -0.029    28.732     8.790
    37   6 C        2.925    -0.033    28.828     8.805
    38   6 C        2.931    -0.032    28.789     8.799
    39   7 N        1.846    -0.325    29.287     8.020
    40   6 C        2.931    -0.032    28.791     8.800
    41   6 C        2.925    -0.033    28.829     8.805
    42   6 C        2.918    -0.029    28.733     8.790
    43   1 H        0.926     0.035     2.516     2.480
    44   1 H        0.926     0.035     2.511     2.478
    45   1 H        0.926     0.036     2.500     2.472
    46   1 H        0.926     0.050     2.322     2.383
    47   1 H        0.926     0.047     2.363     2.404
    48   1 H        0.926     0.048     2.345     2.395
    49   1 H        0.926     0.049     2.331     2.387
    50   1 H        0.926     0.047     2.362     2.403
    51   1 H        0.926     0.050     2.321     2.383
    52   1 H        0.926     0.036     2.500     2.472
    53   1 H        0.926     0.036     2.509     2.477
    54   1 H        0.926     0.035     2.516     2.481
    55   1 H        0.926     0.035     2.522     2.484
    56   1 H        0.926     0.032     2.553     2.499
    57   1 H        0.926     0.051     2.310     2.377
    58   1 H        0.926     0.048     2.342     2.393
    59   1 H        0.926     0.047     2.363     2.404
    60   1 H        0.926     0.050     2.323     2.384
    61   1 H        0.926     0.036     2.503     2.474
    62   1 H        0.926     0.035     2.511     2.478
    63   1 H        0.926     0.035     2.516     2.480
    64   1 H        0.926     0.035     2.517     2.481
    65   1 H        0.926     0.032     2.556     2.500
    66   1 H        0.926     0.050     2.315     2.379
    67   1 H        0.926     0.050     2.314     2.379
    68   1 H        0.926     0.032     2.555     2.500
    69   1 H        0.926     0.035     2.518     2.481

molecular dipole:
                 x           y           z       tot (Debye)
 q only:       -0.228      -0.225      -0.036
   full:       -0.185      -0.183      -0.031       0.666

 projected vibrational frequencies (cm⁻¹)
eigval :       -0.00     0.00     0.00     0.00     0.00     0.00
eigval :        3.72    15.35    16.90    25.27    27.90    31.71
eigval :       41.49    53.83    56.20    69.28    79.94    83.24
eigval :       88.00    92.66   100.64   101.98   104.91   160.89
eigval :      172.64   184.14   186.73   208.46   228.18   244.67
eigval :      256.71   260.39   278.77   288.97   316.41   321.56
eigval :      331.13   345.86   356.92   370.74   372.34   374.93
eigval :      391.36   395.06   411.03   414.08   429.19   472.56
eigval :      495.08   496.49   530.19   532.20   562.17   573.58
eigval :      583.75   583.92   584.10   589.44   589.93   591.95
eigval :      614.53   618.35   649.21   653.39   655.33   661.78
eigval :      673.29   674.08   675.69   690.28   691.38   734.70
eigval :      735.38   751.12   756.50   759.89   781.12   788.87
eigval :      804.48   805.96   810.13   874.51   877.65   879.96
eigval :      885.94   887.94   888.95   892.35   894.46   902.18
eigval :      904.26   905.07   906.54   907.09   908.04   926.36
eigval :      927.04   927.89   930.38   930.81   931.12   931.85
eigval :      932.77   939.53   959.01   979.92   981.35   989.22
eigval :      992.48   992.65  1050.55  1074.32  1079.08  1079.79
eigval :     1086.25  1087.09  1087.78  1099.34  1116.48  1119.26
eigval :     1119.96  1120.60  1123.57  1123.79  1163.22  1163.86
eigval :     1178.96  1180.08  1180.88  1182.30  1183.47  1185.05
eigval :     1199.42  1200.11  1200.92  1207.53  1244.36  1246.62
eigval :     1253.53  1279.76  1279.85  1280.25  1280.99  1288.80
eigval :     1291.14  1315.62  1315.87  1316.03  1326.29  1327.69
eigval :     1329.14  1356.72  1364.58  1371.19  1413.33  1417.74
eigval :     1421.45  1434.18  1434.61  1435.32  1455.09  1456.10
eigval :     1465.64  1484.46  1485.81  1486.94  1511.35  1512.79
eigval :     1571.23  1571.93  1574.05  1581.36  1581.96  1582.15
eigval :     1586.09  1586.72  1588.28  1598.15  1598.54  1598.65
eigval :     3068.69  3069.13  3069.41  3070.56  3070.62  3070.96
eigval :     3077.40  3077.67  3077.74  3078.24  3078.28  3078.40
eigval :     3081.99  3082.09  3082.48  3089.13  3089.34  3089.60
eigval :     3090.60  3090.72  3090.85  3104.08  3104.44  3104.94
eigval :     3106.21  3106.49  3108.10

   temp. (K)  partition function   enthalpy   heat capacity  entropy
                                   cal/mol     cal/K/mol   cal/K/mol   J/K/mol
 298.15  VIB  0.248E+17            19600.809    121.674    124.609
         ROT  0.749E+08              888.752      2.981     39.014
         INT  0.186E+25            20489.561    124.655    163.623
         TR   0.121E+29             1481.254      4.968     44.712
         TOT                       21970.8150   129.6235   208.3347   871.6725

       T/K    H(0)-H(T)+PV         H(T)/Eh          T*S/Eh         G(T)/Eh
   ------------------------------------------------------------------------
    298.15    0.350127E-01    0.565954E+00    0.989866E-01    0.466968E+00
   ------------------------------------------------------------------------

         :::::::::::::::::::::::::::::::::::::::::::::::::::::
         ::                  THERMODYNAMIC                  ::
         :::::::::::::::::::::::::::::::::::::::::::::::::::::
         :: total free energy        -105.626869218679 Eh   ::
         ::.................................................::
         :: total energy             -106.093837040398 Eh   ::
         :: zero point energy           0.530941654268 Eh   ::
         :: G(RRHO) w/o ZPVE           -0.063973832549 Eh   ::
         :: G(RRHO) contrib.            0.466967821719 Eh   ::
         :::::::::::::::::::::::::::::::::::::::::::::::::::::

           -------------------------------------------------
          | TOTAL ENERGY             -106.093837040398 Eh   |
          | TOTAL ENTHALPY           -105.527882663811 Eh   |
          | TOTAL FREE ENERGY        -105.626869218679 Eh   |
          | GRADIENT NORM               0.000026587870 Eh/α |
          | HOMO-LUMO GAP               2.380511966861 eV   |
           -------------------------------------------------

 * finished run on 2025/08/29 at 12:38:09.430
