   * xtb version 6.7.1 (edcfbbe) compiled by 'albert@albert-system' on 2024-07-22

   ID    Z sym.   atoms
    1    6 C      1-10, 12-24, 26-38, 40-42
    2    7 N      11, 25, 39
    3    1 H      43-69

          program call               : xtb data2507/toluene/Diphenylsulfane/Diphenylsulfane_toluene_T1_crest.xyz --gfn 2 --uhf 2 --gbsa toluene --ohess vtight --parallel 40 --molden --ceasefiles --namespace data2507/toluene/Diphenylsulfane/Diphenylsulfane_toluene_T1_finalOpt
      * Solvation model:               GBSA
        Solvent                        toluene
        Solvent mass                       9.2140E+01 g/mol
          :  Hamiltonian                  GFN2-xTB          :
 * total energy  :  -106.0044874 Eh     change       -0.4713912E-07 Eh
 * total energy  :  -106.0045494 Eh     change       -0.6199049E-04 Eh
 * total energy  :  -106.0045785 Eh     change       -0.2916118E-04 Eh
 * total energy  :  -106.0045904 Eh     change       -0.1188540E-04 Eh
 * total energy  :  -106.0046067 Eh     change       -0.1630101E-04 Eh
 * total energy  :  -106.0046227 Eh     change       -0.1600240E-04 Eh
 * total energy  :  -106.0046311 Eh     change       -0.8355149E-05 Eh
 * total energy  :  -106.0046361 Eh     change       -0.5028845E-05 Eh
 * total energy  :  -106.0046417 Eh     change       -0.5610082E-05 Eh
 * total energy  :  -106.0046470 Eh     change       -0.5307180E-05 Eh
 * total energy  :  -106.0046626 Eh     change       -0.6197389E-06 Eh
 * total energy  :  -106.0046628 Eh     change       -0.1506232E-06 Eh
 * total energy  :  -106.0046631 Eh     change       -0.2875363E-06 Eh
 * total energy  :  -106.0046630 Eh     change        0.6402914E-07 Eh
 * total energy  :  -106.0046632 Eh     change       -0.2326070E-06 Eh
 * total energy  :  -106.0046634 Eh     change       -0.1435308E-06 Eh
 * total energy  :  -106.0046636 Eh     change       -0.1818882E-06 Eh
 * total energy  :  -106.0046635 Eh     change        0.1949839E-07 Eh
 * total energy  :  -106.0046636 Eh     change       -0.2252625E-07 Eh
   *** GEOMETRY OPTIMIZATION CONVERGED AFTER 29 ITERATIONS ***

 final structure:
================
69
 xtb: 6.7.1 (edcfbbe)
C           -5.69047673734291       -4.74344021751286        0.24245731665642
C           -4.70312228755489       -5.51838885905226        0.82882939830879
C           -3.37317501134060       -5.15795447942469        0.71089624407601
C           -3.00898702243038       -4.01268267061831        0.00524093896927
C           -1.59509667723723       -3.62342525863003       -0.11979569938263
C           -0.59723223587623       -4.57771873392433       -0.32197073712918
C            0.73033967964399       -4.19938007120425       -0.43104502219885
C            1.09011468966135       -2.86750832312835       -0.34579307766161
C            0.10495846829322       -1.90153921699913       -0.14957830135933
C            0.45398177633810       -0.47960177697177       -0.06267516870915
N            1.72726763766673       -0.14236278430216       -0.03607705948927
C            2.02773293141906        1.19606158670634        0.05809397986650
C            3.39961810033589        1.60279932886806        0.10282506489175
C            3.74568541678399        2.96158283045603        0.20539202800949
C            5.07154393228082        3.33275714865856        0.24452813154418
C            6.07701246252395        2.37943862226024        0.17894130582731
C            5.75699689171006        1.02092977449210        0.07687204738100
C            6.81664088963787        0.00463612154971        0.00378834973504
C            6.68848924365801       -1.20653577140542        0.68429099543656
C            7.68590412352080       -2.16100036199880        0.61727553230799
C            8.82618029949180       -1.92652955245285       -0.13526927561953
C            8.96349099336248       -0.72818475162505       -0.81808648939607
C            7.96991002411011        0.23020534891669       -0.74790807745871
C            4.42213678573171        0.64710528179728        0.04231924257285
N            1.05063395405731        2.08488383215797        0.11095644681965
C           -0.21702564246284        1.72089817019468        0.06823329140446
C           -1.27913578975924        2.68074429306276        0.11804097711413
C           -1.01699569334375        4.05465726022073        0.25020433787337
C           -2.06268215484704        4.95084786052591        0.29605238932917
C           -3.37672399811527        4.51510562327246        0.20743740330519
C           -3.66162178737965        3.15187778709534        0.07099867501879
C           -5.04844890000704        2.67567073712383       -0.03530165088150
C           -5.99138904186264        3.38507430945842       -0.77924525913604
C           -7.29277784627310        2.93065154373371       -0.88317714210383
C           -7.67742946861950        1.76306695913049       -0.24289919636504
C           -6.74964036727900        1.04981650140760        0.50004256463730
C           -5.44667432605057        1.49964843570278        0.60126141870615
C           -2.60921261986020        2.25054615232729        0.03064397951882
N           -0.53782365279019        0.38889097182404       -0.02105259081637
C           -1.22763883169683       -2.28592544961362       -0.03720940486710
C           -4.01097733045748       -3.23829232723732       -0.57734428463328
C           -5.33982792779047       -3.60247762535537       -0.46092206176552
H           -6.72872677341615       -5.02711125441010        0.33388382625796
H           -4.97067205141028       -6.40684478809755        1.38247384790193
H           -2.61035549317714       -5.75663543712638        1.18688205810387
H           -0.86654766993125       -5.61953957979981       -0.41112036774352
H            1.49071840624442       -4.94979516795066       -0.58991557332523
H            2.12038854787748       -2.55907679978881       -0.43313033880905
H            2.95660115118615        3.69646830344192        0.25253589714817
H            5.33231897825096        4.37794795625901        0.33012320306259
H            7.11136959586512        2.68302312488860        0.23195560623207
H            5.80912284687788       -1.38721480722431        1.28544234438072
H            7.57537831364369       -3.09152621252680        1.15526752455397
H            9.60391318844448       -2.67411576551734       -0.18922931314763
H            9.84829883008373       -0.54174090899149       -1.40951158890167
H            8.07475218994189        1.15456144097992       -1.29685197534950
H            4.14378778228608       -0.39094850237837       -0.05787351557948
H            0.00817014097603        4.38571635447005        0.31595428180642
H           -1.85757736645199        6.00609709225330        0.40592876221488
H           -4.18499008122668        5.22787849458379        0.26695175643415
H           -5.69329544748490        4.28562457376819       -1.29598535705533
H           -8.01055749079666        3.48769021419979       -1.46793333761858
H           -8.69526045163765        1.41059980790653       -0.32323338741360
H           -7.04357287523672        0.14073346598361        1.00477094666514
H           -4.73268399245343        0.94845205027646        1.19599390658247
H           -2.79427704974576        1.19514100278172       -0.09872637498463
H           -1.97079115927378       -1.52330888967788        0.13810905884302
H           -3.74424043880422       -2.35694569727504       -1.14257934143629
H           -6.10398851248181       -2.99442787001521       -0.92337262456145

          :  Hamiltonian                  GFN2-xTB          :
         :: gradient norm              0.000120831319 Eh/a0 ::
         :: HOMO-LUMO gap              0.142248368655 eV    ::
         :: SCC energy              -107.996753972123 Eh    ::
         :: -> dispersion             -0.086702011455 Eh    ::
         :: -> Gsolv                  -0.050567021944 Eh    ::
         :: repulsion energy           1.992090322451 Eh    ::

    * Orbital Energies and Occupations

         #    Occupation            Energy/Eh            Energy/eV
      -------------------------------------------------------------
         1        2.0000           -0.6898313             -18.7713
       ...           ...                  ...                  ...
        88        2.0000           -0.4157698             -11.3137
        89        2.0000           -0.4152127             -11.2985
        90        2.0000           -0.4082666             -11.1095
        91        2.0000           -0.4079180             -11.1000
        92        2.0000           -0.4077883             -11.0965
        93        2.0000           -0.4075720             -11.0906
        94        2.0000           -0.4051776             -11.0254
        95        1.9987           -0.3936214             -10.7110
        96        1.9543           -0.3902271             -10.6186
        97        1.9424           -0.3899955             -10.6123
        98        1.6433           -0.3879006             -10.5553
        99        1.4613           -0.3871930             -10.5361
       100        0.9400           -0.2949741              -8.0267 (HOMO)
       101        0.0600           -0.2897463              -7.8844 (LUMO)
       102                         -0.2555018              -6.9526
       103                         -0.2503928              -6.8135
       104                         -0.2482212              -6.7544
       105                         -0.2429541              -6.6111
       106                         -0.2256767              -6.1410
       107                         -0.2256152              -6.1393
       108                         -0.2255794              -6.1383
       109                         -0.2137351              -5.8160
       110                         -0.2095707              -5.7027
       111                         -0.2056481              -5.5960
       ...                                ...                  ...
       195                          0.6886886              18.7402
      -------------------------------------------------------------
                  HL-Gap            0.0052278 Eh            0.1423 eV

     #   Z          covCN         q      C6AA      α(0)
     1   6 C        2.920    -0.030    28.745     8.792
     2   6 C        2.918    -0.029    28.732     8.790
     3   6 C        2.924    -0.034    28.835     8.806
     4   6 C        2.976     0.010    27.795     8.648
     5   6 C        2.974     0.015    27.677     8.630
     6   6 C        2.924    -0.030    28.739     8.791
     7   6 C        2.917    -0.028    28.695     8.784
     8   6 C        2.922    -0.029    28.717     8.788
     9   6 C        2.983    -0.004    28.120     8.698
    10   6 C        2.916     0.213    23.506     7.950
    11   7 N        1.845    -0.289    28.353     7.891
    12   6 C        2.919     0.173    24.282     8.081
    13   6 C        2.976    -0.010    28.254     8.719
    14   6 C        2.922    -0.036    28.894     8.815
    15   6 C        2.914    -0.030    28.750     8.792
    16   6 C        2.923    -0.040    28.984     8.829
    17   6 C        2.973     0.012    27.737     8.639
    18   6 C        2.977     0.013    27.722     8.637
    19   6 C        2.924    -0.032    28.807     8.802
    20   6 C        2.918    -0.029    28.720     8.788
    21   6 C        2.919    -0.028    28.710     8.787
    22   6 C        2.918    -0.029    28.721     8.788
    23   6 C        2.924    -0.032    28.809     8.802
    24   6 C        2.929    -0.038    28.953     8.824
    25   7 N        1.847    -0.231    26.904     7.687
    26   6 C        2.918     0.175    24.252     8.076
    27   6 C        2.977    -0.010    28.254     8.719
    28   6 C        2.921    -0.036    28.888     8.814
    29   6 C        2.914    -0.030    28.748     8.792
    30   6 C        2.923    -0.039    28.974     8.827
    31   6 C        2.972     0.012    27.738     8.639
    32   6 C        2.977     0.013    27.727     8.637
    33   6 C        2.924    -0.033    28.811     8.802
    34   6 C        2.918    -0.029    28.723     8.789
    35   6 C        2.919    -0.028    28.711     8.787
    36   6 C        2.917    -0.029    28.716     8.787
    37   6 C        2.924    -0.032    28.802     8.801
    38   6 C        2.931    -0.038    28.944     8.823
    39   7 N        1.848    -0.290    28.370     7.894
    40   6 C        2.931    -0.031    28.783     8.798
    41   6 C        2.925    -0.033    28.819     8.804
    42   6 C        2.918    -0.029    28.724     8.789
    43   1 H        0.926     0.036     2.506     2.476
    44   1 H        0.926     0.036     2.501     2.473
    45   1 H        0.926     0.037     2.486     2.466
    46   1 H        0.926     0.051     2.309     2.376
    47   1 H        0.926     0.049     2.338     2.391
    48   1 H        0.926     0.047     2.353     2.399
    49   1 H        0.926     0.037     2.491     2.468
    50   1 H        0.926     0.040     2.453     2.449
    51   1 H        0.926     0.041     2.439     2.442
    52   1 H        0.926     0.034     2.525     2.485
    53   1 H        0.926     0.036     2.500     2.472
    54   1 H        0.926     0.037     2.489     2.467
    55   1 H        0.926     0.037     2.490     2.468
    56   1 H        0.926     0.038     2.477     2.461
    57   1 H        0.926     0.043     2.410     2.427
    58   1 H        0.926     0.037     2.494     2.470
    59   1 H        0.926     0.040     2.450     2.448
    60   1 H        0.926     0.041     2.435     2.440
    61   1 H        0.926     0.038     2.481     2.463
    62   1 H        0.926     0.037     2.494     2.470
    63   1 H        0.926     0.037     2.490     2.468
    64   1 H        0.926     0.036     2.497     2.471
    65   1 H        0.926     0.034     2.533     2.489
    66   1 H        0.926     0.043     2.405     2.425
    67   1 H        0.926     0.050     2.324     2.384
    68   1 H        0.926     0.033     2.546     2.495
    69   1 H        0.926     0.035     2.510     2.477

molecular dipole:
                 x           y           z       tot (Debye)
 q only:       -0.415      -0.852      -0.057
   full:       -0.372      -0.807      -0.056       2.263

 projected vibrational frequencies (cm⁻¹)
eigval :       -0.00    -0.00    -0.00     0.00     0.00     0.00
eigval :        8.53    13.95    21.63    23.38    25.74    26.69
eigval :       38.55    52.90    56.84    66.08    80.35    84.39
eigval :       86.84    97.53   100.27   107.07   117.04   156.45
eigval :      169.85   183.05   200.23   207.50   225.43   240.80
eigval :      249.89   256.60   261.81   285.39   308.26   319.94
eigval :      325.65   337.37   348.76   367.63   370.03   373.70
eigval :      376.24   382.93   388.11   400.07   418.77   462.44
eigval :      481.93   488.05   499.46   516.51   532.63   545.20
eigval :      550.42   561.15   581.38   582.86   583.31   586.04
eigval :      587.48   589.22   599.76   627.80   641.72   642.76
eigval :      643.77   655.17   667.81   669.97   672.27   675.96
eigval :      703.58   706.17   748.89   752.52   755.39   765.66
eigval :      777.08   783.33   783.94   799.37   843.63   852.07
eigval :      854.88   866.11   867.95   872.30   873.13   876.21
eigval :      877.50   881.85   890.89   899.42   901.18   905.60
eigval :      906.10   913.56   914.11   925.67   927.00   927.34
eigval :      929.98   930.30   931.22   937.64   943.84   969.87
eigval :      972.11   981.81   983.48   984.66   988.90  1068.68
eigval :     1074.57  1076.57  1082.53  1083.36  1085.24  1089.38
eigval :     1100.92  1116.89  1118.58  1119.30  1121.16  1122.63
eigval :     1124.13  1164.15  1176.48  1178.07  1178.43  1179.45
eigval :     1180.70  1181.73  1195.50  1198.29  1200.28  1220.27
eigval :     1239.09  1249.16  1263.93  1275.22  1278.20  1278.67
eigval :     1280.15  1287.26  1298.23  1315.55  1316.86  1317.50
eigval :     1325.36  1332.62  1334.24  1339.47  1362.70  1380.79
eigval :     1396.96  1413.06  1424.10  1430.88  1433.55  1435.02
eigval :     1443.06  1450.76  1466.63  1476.15  1477.33  1485.05
eigval :     1517.68  1529.13  1549.40  1554.68  1562.74  1566.56
eigval :     1567.43  1575.28  1579.49  1582.64  1587.62  1594.51
eigval :     3068.71  3069.95  3070.36  3071.04  3071.06  3071.30
eigval :     3071.71  3072.10  3077.95  3078.76  3079.33  3079.48
eigval :     3082.56  3083.12  3083.14  3089.31  3089.51  3089.95
eigval :     3089.97  3090.84  3091.36  3091.40  3092.05  3094.41
eigval :     3095.72  3097.41  3099.95

   temp. (K)  partition function   enthalpy   heat capacity  entropy
                                   cal/mol     cal/K/mol   cal/K/mol   J/K/mol
 298.15  VIB  0.185E+17            20048.601    125.002    125.894
         ROT  0.750E+08              888.752      2.981     39.017
         INT  0.139E+25            20937.353    127.983    164.911
         TR   0.121E+29             1481.254      4.968     44.712
         TOT                       22418.6071   132.9515   209.6221   877.0587

       T/K    H(0)-H(T)+PV         H(T)/Eh          T*S/Eh         G(T)/Eh
   ------------------------------------------------------------------------
    298.15    0.357263E-01    0.559632E+00    0.995982E-01    0.460034E+00
   ------------------------------------------------------------------------

         :::::::::::::::::::::::::::::::::::::::::::::::::::::
         ::                  THERMODYNAMIC                  ::
         :::::::::::::::::::::::::::::::::::::::::::::::::::::
         :: total free energy        -105.544629856206 Eh   ::
         ::.................................................::
         :: total energy             -106.004663649855 Eh   ::
         :: zero point energy           0.523905675616 Eh   ::
         :: G(RRHO) w/o ZPVE           -0.063871881967 Eh   ::
         :: G(RRHO) contrib.            0.460033793649 Eh   ::
         :::::::::::::::::::::::::::::::::::::::::::::::::::::

           -------------------------------------------------
          | TOTAL ENERGY             -106.004663649855 Eh   |
          | TOTAL ENTHALPY           -105.445031649823 Eh   |
          | TOTAL FREE ENERGY        -105.544629856206 Eh   |
          | GRADIENT NORM               0.000123360808 Eh/α |
          | HOMO-LUMO GAP               0.142254355818 eV   |
           -------------------------------------------------

 * finished run on 2025/08/29 at 12:42:50.120
