   * xtb version 6.7.1 (edcfbbe) compiled by 'albert@albert-system' on 2024-07-22

   ID    Z sym.   atoms
    1    6 C      1-10, 12-24, 26-38, 40-42
    2    7 N      11, 25, 39
    3    1 H      43-69

          program call               : xtb data2507/toluene/Diphenylsulfane/Diphenylsulfane_toluene_S0_finalOpt.xtbopt.xyz --gfn 2 --uhf 2 --gbsa toluene --ohess vtight --parallel 40 --molden --ceasefiles --namespace data2507/toluene/Diphenylsulfane/Diphenylsulfane_toluene_T1_preOpt
      * Solvation model:               GBSA
        Solvent                        toluene
        Solvent mass                       9.2140E+01 g/mol
          :  Hamiltonian                  GFN2-xTB          :
 * total energy  :  -106.0014285 Eh     change       -0.2098622E-07 Eh
 * total energy  :  -106.0034811 Eh     change       -0.2052541E-02 Eh
 * total energy  :  -106.0043527 Eh     change       -0.8716425E-03 Eh
 * total energy  :  -106.0043760 Eh     change       -0.2331973E-04 Eh
 * total energy  :  -106.0043885 Eh     change       -0.1246458E-04 Eh
 * total energy  :  -106.0043958 Eh     change       -0.7286189E-05 Eh
 * total energy  :  -106.0044043 Eh     change       -0.8545989E-05 Eh
 * total energy  :  -106.0044167 Eh     change       -0.1233335E-04 Eh
 * total energy  :  -106.0044245 Eh     change       -0.7885325E-05 Eh
 * total energy  :  -106.0044479 Eh     change       -0.2339294E-04 Eh
 * total energy  :  -106.0046275 Eh     change       -0.4757717E-06 Eh
 * total energy  :  -106.0046282 Eh     change       -0.6207434E-06 Eh
 * total energy  :  -106.0046289 Eh     change       -0.7509509E-06 Eh
 * total energy  :  -106.0046295 Eh     change       -0.5548854E-06 Eh
 * total energy  :  -106.0046298 Eh     change       -0.3523796E-06 Eh
 * total energy  :  -106.0046301 Eh     change       -0.2825979E-06 Eh
 * total energy  :  -106.0046304 Eh     change       -0.2948099E-06 Eh
 * total energy  :  -106.0046308 Eh     change       -0.3781311E-06 Eh
 * total energy  :  -106.0046308 Eh     change       -0.2424670E-08 Eh
   *** GEOMETRY OPTIMIZATION CONVERGED AFTER 68 ITERATIONS ***

 final structure:
================
69
 xtb: 6.7.1 (edcfbbe)
C           -5.72455628588610       -4.71369098630941        0.13769243189713
C           -4.76746917488860       -5.48882645127195        0.77357712990354
C           -3.43148449792436       -5.14088644483481        0.70378537540031
C           -3.02797873685068       -4.00647150747749       -0.00080318858019
C           -1.60878649808367       -3.62997891876763       -0.07301874672535
C           -0.61156415075346       -4.60225202803688       -0.21003156135530
C            0.72409628171886       -4.23257117391796       -0.27049261477303
C            1.09412323579015       -2.90720697417617       -0.19683444489730
C            0.11001362887741       -1.91345224754911       -0.06305427505719
C            0.45827082203899       -0.52591099023033        0.01484161064264
N            1.71584736615576       -0.12641073600576        0.01798323010825
C            2.03309860103732        1.15479032696582        0.10090853516233
C            3.40199561122333        1.57395050087278        0.10848002663244
C            3.73593497010381        2.93637524114572        0.18968869190043
C            5.05858815440571        3.32373469817306        0.19158679518095
C            6.07181082248011        2.38087947029496        0.11092428049272
C            5.76326552622938        1.01759462964334        0.03119931088718
C            6.83164259154215        0.01165755165077       -0.06052601634874
C            7.95257268541540        0.23443672475942       -0.86014408779057
C            8.95447967725683       -0.71384308717264       -0.94757254044125
C            8.85755619604793       -1.89865408450898       -0.23475549445163
C            7.74966328995667       -2.12976202633780        0.56559712030587
C            6.74337117608659       -1.18591253149656        0.64945142717321
C            4.43355540175616        0.62769497584890        0.03457723474760
N            1.03844832659195        2.09927110665555        0.18669406923394
C           -0.20885084561221        1.67483126204215        0.16165423047995
C           -1.29132769628285        2.66170122749337        0.22883027027117
C           -1.01731097198959        4.00830358661159        0.46060604035948
C           -2.05854313050742        4.91542988772670        0.51976626160833
C           -3.36692539400903        4.49617530707478        0.34676822115704
C           -3.65757205858585        3.15182612286693        0.11257470836430
C           -5.04358135365474        2.69219234939853       -0.07328905440961
C           -5.94299519916091        3.43332610622177       -0.83680811802494
C           -7.24240078813079        2.99418469635612       -1.01425465974170
C           -7.66511068111943        1.81243443410557       -0.42769537019127
C           -6.77913176921143        1.06880908915404        0.33490157879502
C           -5.47772082583853        1.50266757074705        0.50879520616842
C           -2.60758797044889        2.24394267719468        0.05719220789946
N           -0.54992812789811        0.40335996160137        0.07842062107040
C           -1.23578610961318       -2.29655223371457       -0.00353082138247
C           -4.00137357662757       -3.23210137063016       -0.63335370263872
C           -5.33607283279057       -3.58437467950978       -0.56608849928077
H           -6.76791840377834       -4.98805980996324        0.19078281218373
H           -5.06475553637678       -6.36735904762390        1.32789377652428
H           -2.69304655763622       -5.73928504043305        1.21695428021522
H           -0.88571405995604       -5.64286555236758       -0.29279439741168
H            1.48305822189416       -4.99372247704852       -0.38149137515954
H            2.13123314411442       -2.61167251768631       -0.24272110982247
H            2.93942573078169        3.66196108495756        0.24902233678467
H            5.30951758454792        4.37258814324645        0.25942167771076
H            7.10425244614634        2.69471794748161        0.13330926510017
H            8.02478656543282        1.14821889581155       -1.43166106891167
H            9.81406367337537       -0.53022913229032       -1.57592249002983
H            9.64169293304126       -2.63839826729711       -0.30239092001828
H            7.67105705024195       -3.04940514424614        1.12736697107259
H            5.88911632323001       -1.36362237426331        1.28669152399431
H            4.16664998514995       -0.41529617636268       -0.04683269831156
H            0.00648465250342        4.32150178982749        0.59418942040376
H           -1.84950457991168        5.95866492039308        0.70551728904644
H           -4.17304071228373        5.21169432488248        0.41171654350784
H           -5.61378146248132        4.34687165995592       -1.31024567970394
H           -7.92798462208118        3.57544672487163       -1.61389150619958
H           -8.68096483629412        1.47192838365443       -0.56512121711166
H           -7.10314947365085        0.14796972993673        0.79813894533294
H           -4.79544284835997        0.92668190752642        1.11737193138865
H           -2.79630828364619        1.20018320939618       -0.14207531325918
H           -1.97840027466961       -1.52439207959249        0.12742962742018
H           -3.70413898615034       -2.36079154003245       -1.19876753814571
H           -6.07623395920136       -2.97745462632519       -1.06740215600081

          :  Hamiltonian                  GFN2-xTB          :
         :: gradient norm              0.000036524930 Eh/a0 ::
         :: HOMO-LUMO gap              0.139930689798 eV    ::
         :: SCC energy              -107.996790304104 Eh    ::
         :: -> dispersion             -0.086679682193 Eh    ::
         :: -> Gsolv                  -0.050560256274 Eh    ::
         :: repulsion energy           1.992159532596 Eh    ::

    * Orbital Energies and Occupations

         #    Occupation            Energy/Eh            Energy/eV
      -------------------------------------------------------------
         1        2.0000           -0.6898492             -18.7718
       ...           ...                  ...                  ...
        88        2.0000           -0.4159159             -11.3176
        89        2.0000           -0.4152002             -11.2982
        90        2.0000           -0.4080116             -11.1026
        91        2.0000           -0.4079452             -11.1008
        92        2.0000           -0.4078688             -11.0987
        93        2.0000           -0.4075668             -11.0905
        94        2.0000           -0.4056276             -11.0377
        95        1.9990           -0.3938849             -10.7182
        96        1.9513           -0.3901892             -10.6176
        97        1.9494           -0.3901513             -10.6166
        98        1.6290           -0.3878676             -10.5544
        99        1.4714           -0.3872576             -10.5378
       100        0.9374           -0.2949305              -8.0255 (HOMO)
       101        0.0626           -0.2897880              -7.8855 (LUMO)
       102                         -0.2550962              -6.9415
       103                         -0.2502081              -6.8085
       104                         -0.2480713              -6.7504
       105                         -0.2430645              -6.6141
       106                         -0.2257283              -6.1424
       107                         -0.2256421              -6.1400
       108                         -0.2256185              -6.1394
       109                         -0.2137754              -5.8171
       110                         -0.2098553              -5.7105
       111                         -0.2056902              -5.5971
       ...                                ...                  ...
       195                          0.6889214              18.7465
      -------------------------------------------------------------
                  HL-Gap            0.0051424 Eh            0.1399 eV

     #   Z          covCN         q      C6AA      α(0)
     1   6 C        2.919    -0.028    28.709     8.786
     2   6 C        2.918    -0.029    28.722     8.788
     3   6 C        2.924    -0.032    28.810     8.802
     4   6 C        2.976     0.013    27.726     8.637
     5   6 C        2.972     0.012    27.737     8.639
     6   6 C        2.923    -0.039    28.973     8.827
     7   6 C        2.914    -0.030    28.748     8.792
     8   6 C        2.921    -0.036    28.884     8.813
     9   6 C        2.977    -0.010    28.252     8.719
    10   6 C        2.918     0.175    24.250     8.075
    11   7 N        1.847    -0.232    26.936     7.692
    12   6 C        2.919     0.173    24.279     8.080
    13   6 C        2.977    -0.010    28.253     8.719
    14   6 C        2.922    -0.035    28.880     8.813
    15   6 C        2.914    -0.030    28.750     8.792
    16   6 C        2.923    -0.040    28.983     8.829
    17   6 C        2.973     0.012    27.737     8.639
    18   6 C        2.977     0.013    27.721     8.636
    19   6 C        2.924    -0.032    28.809     8.802
    20   6 C        2.918    -0.029    28.719     8.788
    21   6 C        2.919    -0.028    28.710     8.787
    22   6 C        2.918    -0.029    28.720     8.788
    23   6 C        2.924    -0.032    28.807     8.802
    24   6 C        2.929    -0.039    28.968     8.827
    25   7 N        1.845    -0.288    28.326     7.888
    26   6 C        2.916     0.213    23.508     7.951
    27   6 C        2.983    -0.004    28.122     8.699
    28   6 C        2.922    -0.029    28.720     8.788
    29   6 C        2.917    -0.028    28.694     8.784
    30   6 C        2.924    -0.030    28.738     8.791
    31   6 C        2.975     0.015    27.676     8.629
    32   6 C        2.977     0.010    27.794     8.648
    33   6 C        2.924    -0.033    28.834     8.806
    34   6 C        2.918    -0.029    28.731     8.790
    35   6 C        2.920    -0.030    28.747     8.792
    36   6 C        2.918    -0.029    28.723     8.789
    37   6 C        2.924    -0.033    28.818     8.804
    38   6 C        2.931    -0.031    28.782     8.798
    39   7 N        1.848    -0.290    28.359     7.893
    40   6 C        2.931    -0.038    28.944     8.823
    41   6 C        2.924    -0.032    28.801     8.801
    42   6 C        2.917    -0.029    28.715     8.787
    43   1 H        0.926     0.037     2.489     2.467
    44   1 H        0.926     0.037     2.492     2.469
    45   1 H        0.926     0.038     2.478     2.462
    46   1 H        0.926     0.041     2.433     2.439
    47   1 H        0.926     0.040     2.448     2.447
    48   1 H        0.926     0.037     2.493     2.469
    49   1 H        0.926     0.040     2.445     2.445
    50   1 H        0.926     0.039     2.458     2.452
    51   1 H        0.926     0.041     2.441     2.443
    52   1 H        0.926     0.038     2.476     2.461
    53   1 H        0.926     0.037     2.488     2.467
    54   1 H        0.926     0.037     2.487     2.466
    55   1 H        0.926     0.036     2.501     2.473
    56   1 H        0.926     0.034     2.531     2.488
    57   1 H        0.926     0.039     2.460     2.453
    58   1 H        0.926     0.047     2.354     2.399
    59   1 H        0.926     0.048     2.340     2.392
    60   1 H        0.926     0.051     2.312     2.378
    61   1 H        0.926     0.037     2.491     2.468
    62   1 H        0.926     0.036     2.501     2.473
    63   1 H        0.926     0.036     2.506     2.476
    64   1 H        0.926     0.036     2.508     2.477
    65   1 H        0.926     0.033     2.548     2.496
    66   1 H        0.926     0.050     2.324     2.384
    67   1 H        0.926     0.043     2.406     2.425
    68   1 H        0.926     0.034     2.531     2.488
    69   1 H        0.926     0.036     2.496     2.471

molecular dipole:
                 x           y           z       tot (Debye)
 q only:       -0.645      -0.139      -0.031
   full:       -0.602      -0.101      -0.022       1.552

 projected vibrational frequencies (cm⁻¹)
eigval :       -0.00    -0.00    -0.00     0.00     0.00     0.00
eigval :       -5.90    14.67    17.24    22.14    25.96    29.05
eigval :       39.34    52.51    55.34    66.31    78.25    82.80
eigval :       87.00    93.47    99.11   107.61   116.86   155.30
eigval :      167.22   185.70   202.98   206.02   223.60   239.44
eigval :      250.19   256.22   262.80   284.99   310.01   315.55
eigval :      325.94   332.73   348.08   367.41   370.54   372.61
eigval :      374.78   383.26   387.81   394.34   416.61   463.54
eigval :      482.67   488.92   498.85   515.71   535.74   539.74
eigval :      548.41   561.84   581.51   582.21   583.50   585.99
eigval :      587.60   589.19   604.40   626.97   642.87   643.24
eigval :      643.70   654.32   667.26   668.95   671.33   675.43
eigval :      702.21   706.01   748.95   751.07   753.85   758.47
eigval :      777.50   780.68   784.50   797.71   843.66   853.83
eigval :      858.97   865.92   867.25   867.96   873.19   875.39
eigval :      877.19   880.39   886.48   898.43   901.02   903.13
eigval :      906.52   914.04   915.60   923.80   926.09   927.87
eigval :      928.16   931.21   931.53   937.68   943.94   969.09
eigval :      970.75   980.43   984.61   985.66   989.29  1068.81
eigval :     1073.22  1076.72  1082.39  1083.17  1085.31  1087.96
eigval :     1104.82  1115.42  1118.69  1119.69  1120.66  1123.26
eigval :     1124.71  1163.14  1175.97  1177.36  1178.56  1179.35
eigval :     1180.49  1182.10  1195.45  1197.83  1199.62  1224.88
eigval :     1241.13  1245.45  1261.95  1274.69  1278.05  1278.81
eigval :     1279.91  1285.98  1294.71  1315.70  1316.89  1317.18
eigval :     1324.53  1332.14  1334.30  1339.48  1368.56  1378.01
eigval :     1400.08  1415.12  1420.20  1431.33  1431.83  1434.65
eigval :     1442.07  1450.72  1466.04  1476.19  1477.91  1485.23
eigval :     1516.91  1528.07  1548.96  1554.44  1562.80  1566.56
eigval :     1566.91  1575.40  1580.03  1582.67  1587.75  1594.63
eigval :     3069.20  3069.70  3070.10  3071.07  3071.15  3071.51
eigval :     3072.09  3072.21  3078.32  3078.88  3079.09  3079.38
eigval :     3082.37  3083.10  3083.87  3088.08  3088.58  3089.64
eigval :     3090.01  3090.29  3090.84  3091.26  3091.59  3094.06
eigval :     3096.12  3096.89  3101.79

   temp. (K)  partition function   enthalpy   heat capacity  entropy
                                   cal/mol     cal/K/mol   cal/K/mol   J/K/mol
 298.15  VIB  0.340E+17            20086.138    125.052    126.675
         ROT  0.752E+08              888.752      2.981     39.021
         INT  0.256E+25            20974.891    128.032    165.696
         TR   0.121E+29             1481.254      4.968     44.712
         TOT                       22456.1447   133.0006   210.4075   880.3451

       T/K    H(0)-H(T)+PV         H(T)/Eh          T*S/Eh         G(T)/Eh
   ------------------------------------------------------------------------
    298.15    0.357861E-01    0.559529E+00    0.999714E-01    0.459557E+00
   ------------------------------------------------------------------------

         :::::::::::::::::::::::::::::::::::::::::::::::::::::
         ::                  THERMODYNAMIC                  ::
         :::::::::::::::::::::::::::::::::::::::::::::::::::::
         :: total free energy        -105.545073521471 Eh   ::
         ::.................................................::
         :: total energy             -106.004630770016 Eh   ::
         :: zero point energy           0.523742507935 Eh   ::
         :: G(RRHO) w/o ZPVE           -0.064185259391 Eh   ::
         :: G(RRHO) contrib.            0.459557248544 Eh   ::
         :::::::::::::::::::::::::::::::::::::::::::::::::::::

           -------------------------------------------------
          | TOTAL ENERGY             -106.004630770016 Eh   |
          | TOTAL ENTHALPY           -105.445102117676 Eh   |
          | TOTAL FREE ENERGY        -105.545073521471 Eh   |
          | GRADIENT NORM               0.000035808899 Eh/α |
          | HOMO-LUMO GAP               0.139932925582 eV   |
           -------------------------------------------------

 * finished run on 2025/08/29 at 12:38:18.016
