   * xtb version 6.7.1 (edcfbbe) compiled by 'albert@albert-system' on 2024-07-22

   ID    Z sym.   atoms
    1    6 C      1-10, 12-24, 26-38, 40-42
    2    7 N      11, 25, 39
    3    1 H      43-69

          program call               : xtb data2507/toluene/Diphenylsulfane/Diphenylsulfane.xyz --gfn 2 --gbsa toluene --ohess vtight --parallel 40 --molden --ceasefiles --namespace data2507/toluene/Diphenylsulfane/Diphenylsulfane_toluene_S0_preOpt
      * Solvation model:               GBSA
        Solvent                        toluene
        Solvent mass                       9.2140E+01 g/mol
          :  Hamiltonian                  GFN2-xTB          :
 * total energy  :  -106.0807399 Eh     change       -0.7185150E-09 Eh
 * total energy  :  -106.0885768 Eh     change       -0.7836902E-02 Eh
 * total energy  :  -106.0909347 Eh     change       -0.2357927E-02 Eh
 * total energy  :  -106.0916350 Eh     change       -0.7002128E-03 Eh
 * total energy  :  -106.0919143 Eh     change       -0.2793657E-03 Eh
 * total energy  :  -106.0920624 Eh     change       -0.1480254E-03 Eh
 * total energy  :  -106.0922449 Eh     change       -0.1825252E-03 Eh
 * total energy  :  -106.0924439 Eh     change       -0.1990640E-03 Eh
 * total energy  :  -106.0926389 Eh     change       -0.1950008E-03 Eh
 * total energy  :  -106.0927978 Eh     change       -0.1588527E-03 Eh
 * total energy  :  -106.0932161 Eh     change       -0.2006858E-06 Eh
 * total energy  :  -106.0932168 Eh     change       -0.7063808E-06 Eh
 * total energy  :  -106.0932168 Eh     change       -0.1327695E-07 Eh
 * total energy  :  -106.0932170 Eh     change       -0.2230345E-06 Eh
 * total energy  :  -106.0932171 Eh     change       -0.1090638E-06 Eh
 * total energy  :  -106.0932173 Eh     change       -0.1661397E-06 Eh
 * total energy  :  -106.0932175 Eh     change       -0.1528100E-06 Eh
 * total energy  :  -106.0932176 Eh     change       -0.1035030E-06 Eh
 * total energy  :  -106.0932176 Eh     change       -0.1540403E-07 Eh
   *** GEOMETRY OPTIMIZATION CONVERGED AFTER 34 ITERATIONS ***

 final structure:
================
69
 xtb: 6.7.1 (edcfbbe)
C            0.51613063086647       -8.51056706423067       -0.04909484260727
C            0.97166199177531       -7.46605672581561       -0.83687543574096
C            0.31437038827981       -6.24938486199991       -0.82682974423227
C           -0.81459285441605       -6.06036376348001       -0.03247824372077
C           -1.51736132653845       -4.76679945362062       -0.02896348376689
C           -2.91129348047710       -4.71114567272695       -0.03294042833890
C           -3.57071517849549       -3.49376978043122       -0.03881299314788
C           -2.85472900841943       -2.31184888150736       -0.03795294103965
C           -1.46091998704490       -2.34832902802111       -0.03099369788195
C           -0.68869248141903       -1.10533507924402       -0.02949932637426
N           -1.35664709499681        0.04513382392653       -0.03217223353856
C           -0.61480294187067        1.14992443837821       -0.03742134275294
C           -1.30494600465385        2.44022632722946       -0.04899792219770
C           -0.57650237348303        3.62881228339735       -0.07487039893096
C           -1.24170680836004        4.84000126570029       -0.08881074124642
C           -2.62570339531033        4.87801089997976       -0.07882197324958
C           -3.37041062109868        3.69883661750267       -0.05095166067528
C           -4.84207060636818        3.73756306963830       -0.03598129157205
C           -5.56371957597851        2.88643329402521        0.79809024511145
C           -6.94597728869281        2.92693152555170        0.81742774319061
C           -7.62856124586119        3.81168418054080       -0.00139312102145
C           -6.92053788294791        4.65854568933905       -0.83828530595141
C           -5.53793309293413        4.62511163233933       -0.85373088829126
C           -2.69613104884175        2.48387630602099       -0.03539646509818
N            0.71551707387015        1.15322001537499       -0.03022136668555
C            1.30134527517992       -0.04157325186172       -0.02220384521004
C            2.76372170252766       -0.08933839823763       -0.00403035163379
C            3.42852502608293       -1.31478179259289       -0.02108237438889
C            4.80995885479467       -1.34499129976187       -0.00190425428771
C            5.53467512879085       -0.16581985919188        0.03359775362073
C            4.88610723824487        1.06910344507454        0.05375326998148
C            5.65619333330414        2.32301004327670        0.09931121136300
C            6.79966466469459        2.48372103925464       -0.68003857955875
C            7.52190937386572        3.66229192042673       -0.63392347843527
C            7.11717747808893        4.69537499541183        0.19534796995288
C            5.98244291775850        4.54510309773413        0.97568475310924
C            5.25490167413666        3.37004566208084        0.92614909416605
C            3.49676183519012        1.09325169893552        0.03466680819196
N            0.63898335303624       -1.19523865020545       -0.02677847971545
C           -0.80280294519583       -3.57480318480191       -0.02745620894158
C           -1.26537085085831       -7.11788186316179        0.75452010642075
C           -0.60265515583489       -8.33179525538649        0.74781531177487
H            1.03136271480962       -9.45991494500052       -0.05612593139395
H            1.84207947606727       -7.60041819963158       -1.46290529992372
H            0.66390205228576       -5.44229479268084       -1.45454248138544
H           -3.47946534062278       -5.62941117515267       -0.05131665495714
H           -4.65046534773174       -3.46808932039253       -0.04793913772140
H           -3.35310758663317       -1.35536453303874       -0.04445333009281
H            0.50098975356690        3.58195826657312       -0.08495685921353
H           -0.67915842197602        5.76186711649468       -0.10541480420876
H           -3.13728184581055        5.82920598094205       -0.07377307078043
H           -5.03426682834270        2.20474864531400        1.44825556899949
H           -7.49311025031168        2.26634956067199        1.47461528084309
H           -8.70825498978740        3.84081332618397        0.01282891445788
H           -7.44806708628205        5.34732805524109       -1.48233796770446
H           -4.99078316156687        5.27682824222506       -1.51942542463694
H           -3.24160072994516        1.55303129940092       -0.03084287940958
H            2.84885863662759       -2.22388818627110       -0.04769256858448
H            5.32705680311936       -2.29321923783809       -0.01126963249732
H            6.61372408196048       -0.19931323514769        0.06529876936096
H            7.11077674943144        1.68686205650254       -1.33995235822583
H            8.40364832660663        3.77590479394720       -1.24803262501546
H            7.68376032504546        5.61424801328842        0.23343021906825
H            5.66377178603023        5.34649313998846        1.62673632461798
H            4.37882509232970        3.25080741873365        1.54740653977759
H            2.96309197157077        2.03095492556007        0.03266934937098
H            0.27581009624901       -3.58102275278898       -0.00591988993443
H           -2.12772569203844       -6.97940626821774        1.39032310982311
H           -0.95963527504251       -9.14144759976843        1.36788699271443

          :  Hamiltonian                  GFN2-xTB          :
         :: gradient norm              0.000092161321 Eh/a0 ::
         :: HOMO-LUMO gap              2.378973449837 eV    ::
         :: SCC energy              -108.091417968642 Eh    ::
         :: -> dispersion             -0.086113987409 Eh    ::
         :: -> Gsolv                  -0.052133480413 Eh    ::
         :: repulsion energy           1.998200384010 Eh    ::

    * Orbital Energies and Occupations

         #    Occupation            Energy/Eh            Energy/eV
      -------------------------------------------------------------
         1        2.0000           -0.6897815             -18.7699
       ...           ...                  ...                  ...
        87        2.0000           -0.4173896             -11.3577
        88        2.0000           -0.4173203             -11.3559
        89        2.0000           -0.4141535             -11.2697
        90        2.0000           -0.4126952             -11.2300
        91        2.0000           -0.4126902             -11.2299
        92        2.0000           -0.4066562             -11.0657
        93        2.0000           -0.4066506             -11.0655
        94        2.0000           -0.4066371             -11.0652
        95        2.0000           -0.3926775             -10.6853
        96        2.0000           -0.3925881             -10.6829
        97        2.0000           -0.3924749             -10.6798
        98        2.0000           -0.3798953             -10.3375
        99        2.0000           -0.3798845             -10.3372 (HOMO)
       100                         -0.2924588              -7.9582 (LUMO)
       101                         -0.2924487              -7.9579
       102                         -0.2546961              -6.9306
       103                         -0.2499201              -6.8007
       104                         -0.2496866              -6.7943
       105                         -0.2439337              -6.6378
       106                         -0.2247438              -6.1156
       107                         -0.2247309              -6.1152
       108                         -0.2247170              -6.1149
       109                         -0.2145815              -5.8391
       110                         -0.2144949              -5.8367
       ...                                ...                  ...
       195                          0.6912835              18.8108
      -------------------------------------------------------------
                  HL-Gap            0.0874257 Eh            2.3790 eV

     #   Z          covCN         q      C6AA      α(0)
     1   6 C        2.920    -0.031    28.764     8.795
     2   6 C        2.918    -0.030    28.738     8.791
     3   6 C        2.925    -0.034    28.835     8.806
     4   6 C        2.977     0.009    27.811     8.650
     5   6 C        2.974     0.014    27.702     8.633
     6   6 C        2.925    -0.029    28.714     8.788
     7   6 C        2.916    -0.029    28.714     8.787
     8   6 C        2.923    -0.029    28.724     8.789
     9   6 C        2.982    -0.011    28.286     8.724
    10   6 C        2.981     0.219    23.382     7.932
    11   7 N        1.844    -0.325    29.286     8.020
    12   6 C        2.981     0.219    23.382     7.932
    13   6 C        2.982    -0.011    28.285     8.724
    14   6 C        2.923    -0.029    28.724     8.789
    15   6 C        2.916    -0.029    28.714     8.787
    16   6 C        2.925    -0.029    28.713     8.787
    17   6 C        2.975     0.014    27.701     8.633
    18   6 C        2.977     0.009    27.810     8.650
    19   6 C        2.925    -0.033    28.834     8.806
    20   6 C        2.918    -0.030    28.738     8.791
    21   6 C        2.920    -0.031    28.765     8.795
    22   6 C        2.918    -0.030    28.739     8.791
    23   6 C        2.924    -0.034    28.844     8.807
    24   6 C        2.930    -0.032    28.788     8.799
    25   7 N        1.844    -0.325    29.287     8.020
    26   6 C        2.981     0.219    23.382     7.932
    27   6 C        2.982    -0.011    28.286     8.724
    28   6 C        2.923    -0.029    28.725     8.789
    29   6 C        2.916    -0.029    28.714     8.787
    30   6 C        2.925    -0.029    28.714     8.788
    31   6 C        2.975     0.014    27.701     8.633
    32   6 C        2.977     0.009    27.810     8.650
    33   6 C        2.924    -0.034    28.845     8.808
    34   6 C        2.918    -0.030    28.740     8.791
    35   6 C        2.920    -0.031    28.764     8.795
    36   6 C        2.918    -0.030    28.738     8.791
    37   6 C        2.925    -0.033    28.834     8.806
    38   6 C        2.929    -0.032    28.789     8.799
    39   7 N        1.844    -0.325    29.287     8.020
    40   6 C        2.930    -0.032    28.789     8.799
    41   6 C        2.924    -0.034    28.845     8.808
    42   6 C        2.918    -0.030    28.740     8.791
    43   1 H        0.926     0.035     2.516     2.481
    44   1 H        0.926     0.035     2.522     2.484
    45   1 H        0.926     0.032     2.556     2.500
    46   1 H        0.926     0.050     2.322     2.383
    47   1 H        0.926     0.047     2.362     2.403
    48   1 H        0.926     0.049     2.335     2.390
    49   1 H        0.926     0.049     2.335     2.390
    50   1 H        0.926     0.047     2.361     2.403
    51   1 H        0.926     0.050     2.323     2.384
    52   1 H        0.926     0.032     2.557     2.500
    53   1 H        0.926     0.035     2.522     2.483
    54   1 H        0.926     0.035     2.516     2.481
    55   1 H        0.926     0.036     2.509     2.477
    56   1 H        0.926     0.036     2.502     2.474
    57   1 H        0.926     0.050     2.315     2.379
    58   1 H        0.926     0.049     2.335     2.390
    59   1 H        0.926     0.047     2.361     2.403
    60   1 H        0.926     0.050     2.323     2.383
    61   1 H        0.926     0.036     2.501     2.473
    62   1 H        0.926     0.036     2.509     2.477
    63   1 H        0.926     0.035     2.516     2.481
    64   1 H        0.926     0.035     2.523     2.484
    65   1 H        0.926     0.032     2.557     2.501
    66   1 H        0.926     0.050     2.314     2.379
    67   1 H        0.926     0.050     2.314     2.379
    68   1 H        0.926     0.036     2.500     2.472
    69   1 H        0.926     0.036     2.509     2.477

molecular dipole:
                 x           y           z       tot (Debye)
 q only:        0.001      -0.002      -0.004
   full:        0.001      -0.002      -0.003       0.009

 projected vibrational frequencies (cm⁻¹)
eigval :       -0.00    -0.00     0.00     0.00     0.00     0.00
eigval :        1.31     5.92     9.79    23.76    24.78    31.16
eigval :       46.69    48.82    50.99    66.40    80.82    82.71
eigval :       83.34    91.74    95.51    99.59   102.02   154.40
eigval :      180.16   183.67   205.94   206.52   211.81   225.21
eigval :      256.57   260.74   261.18   310.58   318.23   319.27
eigval :      341.25   341.85   344.16   370.81   371.80   373.06
eigval :      388.05   391.87   405.42   417.41   430.43   475.86
eigval :      490.54   498.40   528.53   529.89   565.66   568.21
eigval :      583.94   584.06   584.34   589.32   589.41   591.92
eigval :      616.63   616.77   648.78   652.25   654.11   660.18
eigval :      673.70   674.10   674.68   689.18   690.46   734.99
eigval :      735.07   753.00   758.00   758.59   780.45   789.46
eigval :      805.87   806.46   810.00   877.92   878.31   878.36
eigval :      887.23   889.56   890.75   893.48   893.85   903.71
eigval :      905.07   906.14   908.00   908.21   909.42   928.60
eigval :      929.30   929.42   932.70   932.93   933.23   933.39
eigval :      934.09   934.22   959.14   980.64   980.80   989.28
eigval :      992.35   992.41  1050.44  1074.50  1079.29  1079.53
eigval :     1087.15  1087.43  1087.57  1097.52  1118.92  1119.27
eigval :     1120.54  1121.85  1123.16  1124.17  1162.77  1163.75
eigval :     1179.58  1180.73  1181.29  1182.65  1185.13  1185.82
eigval :     1199.14  1199.75  1200.97  1206.19  1242.86  1250.86
eigval :     1251.50  1279.72  1279.76  1280.23  1281.39  1290.04
eigval :     1290.11  1315.82  1316.03  1316.12  1326.52  1326.68
eigval :     1328.17  1363.52  1363.59  1364.19  1416.37  1416.54
eigval :     1422.19  1434.29  1434.58  1436.40  1454.88  1455.07
eigval :     1465.40  1484.75  1484.93  1487.48  1511.61  1511.86
eigval :     1571.24  1572.68  1572.76  1581.67  1582.19  1582.35
eigval :     1586.07  1587.73  1587.81  1598.46  1598.59  1598.69
eigval :     3068.94  3069.43  3069.44  3070.68  3070.79  3070.92
eigval :     3077.47  3077.74  3077.79  3078.09  3078.42  3078.94
eigval :     3081.95  3082.07  3082.46  3089.02  3089.32  3089.74
eigval :     3090.74  3090.84  3090.87  3103.36  3103.42  3104.09
eigval :     3106.80  3108.66  3109.39

   temp. (K)  partition function   enthalpy   heat capacity  entropy
                                   cal/mol     cal/K/mol   cal/K/mol   J/K/mol
 298.15  VIB  0.480E+18            19687.531    121.499    127.760
         ROT  0.888E+08              888.752      2.981     39.351
         INT  0.426E+26            20576.283    124.480    167.111
         TR   0.121E+29             1481.254      4.968     44.712
         TOT                       22057.5373   129.4485   211.8221   886.2638

       T/K    H(0)-H(T)+PV         H(T)/Eh          T*S/Eh         G(T)/Eh
   ------------------------------------------------------------------------
    298.15    0.351509E-01    0.565976E+00    0.100644E+00    0.465332E+00
   ------------------------------------------------------------------------

         :::::::::::::::::::::::::::::::::::::::::::::::::::::
         ::                  THERMODYNAMIC                  ::
         :::::::::::::::::::::::::::::::::::::::::::::::::::::
         :: total free energy        -105.627885108547 Eh   ::
         ::.................................................::
         :: total energy             -106.093217583703 Eh   ::
         :: zero point energy           0.530825084476 Eh   ::
         :: G(RRHO) w/o ZPVE           -0.065492609320 Eh   ::
         :: G(RRHO) contrib.            0.465332475156 Eh   ::
         :::::::::::::::::::::::::::::::::::::::::::::::::::::

           -------------------------------------------------
          | TOTAL ENERGY             -106.093217583703 Eh   |
          | TOTAL ENTHALPY           -105.527241576131 Eh   |
          | TOTAL FREE ENERGY        -105.627885108547 Eh   |
          | GRADIENT NORM               0.000092176263 Eh/α |
          | HOMO-LUMO GAP               2.378973469316 eV   |
           -------------------------------------------------

 * finished run on 2025/08/29 at 12:35:23.596
