   * xtb version 6.7.1 (edcfbbe) compiled by 'albert@albert-system' on 2024-07-22

   ID    Z sym.   atoms
    1    6 C      1-5, 7, 9-24, 26-33, 35, 37-52, 54-61, 63, 64
    2    7 N      6, 8, 25, 34, 36, 53, 62
    3    1 H      65-99

          program call               : xtb data2507/gas/PBICT/PBICT_gas_T1_crest.xyz --gfn 2 --spinpol --tblite --uhf 2 --ohess vtight --parallel 40 --molden --ceasefiles --namespace data2507/gas/PBICT/PBICT_gas_T1_finalOpt
 * total energy  :  -160.5057243 Eh     change       -0.7272803E-08 Eh
 * total energy  :  -160.5057710 Eh     change       -0.4664853E-04 Eh
 * total energy  :  -160.5058079 Eh     change       -0.3694234E-04 Eh
 * total energy  :  -160.5058133 Eh     change       -0.5373161E-05 Eh
 * total energy  :  -160.5058184 Eh     change       -0.5074583E-05 Eh
 * total energy  :  -160.5058225 Eh     change       -0.4159030E-05 Eh
 * total energy  :  -160.5058270 Eh     change       -0.4412018E-05 Eh
 * total energy  :  -160.5058311 Eh     change       -0.4132190E-05 Eh
 * total energy  :  -160.5058346 Eh     change       -0.3491196E-05 Eh
 * total energy  :  -160.5058377 Eh     change       -0.3132255E-05 Eh
 * total energy  :  -160.5058840 Eh     change       -0.7511485E-06 Eh
 * total energy  :  -160.5058848 Eh     change       -0.7633135E-06 Eh
 * total energy  :  -160.5058856 Eh     change       -0.7768550E-06 Eh
 * total energy  :  -160.5058864 Eh     change       -0.8036644E-06 Eh
 * total energy  :  -160.5058872 Eh     change       -0.7849214E-06 Eh
 * total energy  :  -160.5058879 Eh     change       -0.7707283E-06 Eh
 * total energy  :  -160.5058888 Eh     change       -0.8808543E-06 Eh
 * total energy  :  -160.5058896 Eh     change       -0.8055432E-06 Eh
 * total energy  :  -160.5058897 Eh     change       -0.3661211E-07 Eh
   *** GEOMETRY OPTIMIZATION CONVERGED AFTER 44 ITERATIONS ***

 final structure:
================
99
 xtb: 6.7.1 (edcfbbe)
C           -7.54923321113598       -0.19536290105957       -0.07264104841820
C           -6.81311683879005       -1.16167292439818       -0.74746413496420
C           -5.43784221703161       -1.14228394763613       -0.71334142592585
C           -4.75445654063319       -0.14432178055118        0.00371502546394
C           -3.33054180684761       -0.11383083311241        0.03151840102421
N           -2.68760824403958        0.93434936418896        0.61235471472773
C           -1.39122791162929        0.93678298682371        0.56515291754965
N           -0.68621590841304        2.03437553714273        1.03058778747287
C           -1.12713925305706        3.34658311735591        0.88305167618749
C           -2.41644340232668        3.82689112291758        0.74150747418397
C           -2.58229123089908        5.19494602747077        0.60357660332416
C           -1.49159395863799        6.05983396373303        0.59393353891564
C           -0.20040735578417        5.58065506973300        0.71537669811294
C           -0.01153245691084        4.21292336343817        0.86105773002254
C            1.15981297285378        3.38933610567018        0.99165292844296
C            2.51698937672488        3.69296513760265        0.92403993634454
C            3.44283391548845        2.67424835938158        1.02788096315076
C            3.00445130895156        1.38119765487543        1.30101302203075
C            3.72612110500127        0.17234320667019        1.57022285438494
C            5.07796172260515       -0.13987944697209        1.55642217319037
C            5.46399683232586       -1.41824676563280        1.90898581215300
C            4.52158284379110       -2.36247575835963        2.30656742864606
C            3.17038214279666       -2.06847167895312        2.33757445746478
C            2.76828479278360       -0.80421843744866        1.93120341961723
N            1.50371022793220       -0.24467841945803        1.86210781044515
C            0.31986907458309       -0.83202622855273        2.32001772658783
C           -0.57078093210246       -0.07916077940740        3.09041007224063
C           -1.76579551751860       -0.63031327373041        3.50784046024416
C           -2.08120640900542       -1.94171214587032        3.19115065538998
C           -1.17434624809337       -2.71034674253710        2.47790192034821
C            0.02150448404290       -2.16723945717339        2.05102574070564
C            1.62819283096539        1.06286013497370        1.44593585189344
C            0.69401435842585        2.05775719800373        1.15607749573064
N           -0.61587777495557       -0.02958522314572        0.03067482037563
C           -1.33131615593103       -1.04660544262998       -0.49433496833658
N           -0.55943369389960       -2.09542726967162       -0.96639446831635
C           -0.89320478920457       -3.43447251275633       -0.79059911562744
C           -2.13544981812742       -4.00734040610064       -0.58597854609147
C           -2.19116990719830       -5.38215692260520       -0.42815155970805
C           -1.03875437410213       -6.16257137242566       -0.46090361351314
C            0.20606632245960       -5.59014161298842       -0.64636143195023
C            0.28510600072866       -4.21393384304632       -0.81278149561525
C            1.38335259642063       -3.30557395756420       -1.00268116994325
C            2.76151224270890       -3.50393307622258       -0.99992301662645
C            3.60074838236063       -2.41856243644532       -1.15447297956116
C            3.05285955531894       -1.16415344548114       -1.40976151420791
C            3.66615707146887        0.09473515271450       -1.71595641011219
C            4.98900846338197        0.50995990267231       -1.76977526750472
C            5.25767112050424        1.81259332846774       -2.14230655155204
C            4.22717654067606        2.68045566888643       -2.49261622923820
C            2.90263943038697        2.28358430354934       -2.45590550604020
C            2.61996199686493        0.99382726993200       -2.02993813049595
N            1.40671522810286        0.33974704798223       -1.89902021651417
C            0.16103807996418        0.83478314865038       -2.29838339993665
C           -0.70480532686277        0.01566801701848       -3.02882919181857
C           -1.95885113761250        0.47191056374870       -3.38327170737320
C           -2.36106883402294        1.75262619643053       -3.04100858046929
C           -1.48249818567609        2.58935685639107       -2.36951678336479
C           -0.22715855095401        2.14210398268035       -2.00732399527757
C            1.65075308711867       -0.95242749811465       -1.48829852828250
C            0.81045626365512       -2.01412264267360       -1.15174043925954
N           -2.62507890778570       -1.12746074377224       -0.53570021117845
C           -5.51177374155673        0.82546444932511        0.68375157067223
C           -6.88674060983867        0.79507957189606        0.64212788487278
H           -8.62864267731064       -0.21405488576133       -0.10348207971351
H           -7.32630380172653       -1.93278144962322       -1.30530792083546
H           -4.85946224257686       -1.88222879366301       -1.24495045619753
H           -3.25256505890447        3.14784783568241        0.72951823743346
H           -3.57837200794868        5.59772959826626        0.49760163919905
H           -1.65903594604782        7.12110954204974        0.48436763401186
H            0.64471596032729        6.25214016844844        0.70086801349567
H            2.83183764747568        4.71328081499310        0.77020514275292
H            4.49823998331593        2.87362656809529        0.93220895680202
H            5.80593804575551        0.60551971982815        1.27545585297584
H            6.50976117946661       -1.68746878563792        1.89598286266191
H            4.85169545965162       -3.34583816843996        2.60620004067118
H            2.46523784899030       -2.80609258512469        2.68476448458400
H           -0.31734255528073        0.93463707149031        3.36212428001816
H           -2.45662268057161       -0.03054117136452        4.08106716539690
H           -3.02493714148417       -2.36343760247692        3.50041610525781
H           -1.40577088224500       -3.73710910051059        2.23548598481184
H            0.70276717412472       -2.75998852262698        1.46309906290719
H           -3.01917012511855       -3.39239275320197       -0.54314131773393
H           -3.14803418922563       -5.85735051891500       -0.27248723852982
H           -1.12066305362719       -7.23189882951118       -0.33361847657748
H            1.09889796191993       -6.19666373171132       -0.66438570842000
H            3.16092605451740       -4.49584051909810       -0.85696001267823
H            4.67167401824371       -2.53686851218716       -1.11097980077213
H            5.78530378126417       -0.17601119978892       -1.52512524005683
H            6.27908317683972        2.16102179813392       -2.18206436842827
H            4.46562184125716        3.68489841428947       -2.80878791747491
H            2.12597036950101        2.96317278353875       -2.76717389186033
H           -0.38607806308208       -0.97457492734447       -3.31832597608638
H           -2.62854190903405       -0.17933388782492       -3.92440744771084
H           -3.35054819695617        2.09799601611220       -3.29730570713597
H           -1.78260825720242        3.59343234555259       -2.10817221957848
H            0.43404177009668        2.78506307350070       -1.44977235167706
H           -4.99161038467087        1.58536299460965        1.24629551553856
H           -7.45732866724519        1.54659557227145        1.17015637426136

 projected vibrational frequencies (cm⁻¹)
eigval :       -0.00    -0.00    -0.00    -0.00     0.00     0.00
eigval :       14.24    17.58    26.44    39.60    43.12    46.04
eigval :       46.71    55.17    57.49    58.94    63.98    66.27
eigval :       71.54    78.78    92.41    97.97   103.90   114.63
eigval :      124.25   126.54   133.70   134.69   140.68   152.98
eigval :      153.18   165.11   190.94   192.48   194.62   209.04
eigval :      212.18   234.72   236.73   238.65   242.07   268.37
eigval :      271.77   277.61   283.99   292.97   295.47   304.27
eigval :      322.66   328.31   331.61   332.44   357.89   372.30
eigval :      375.33   380.18   387.26   398.31   400.08   403.80
eigval :      411.54   412.42   416.51   440.08   440.65   467.83
eigval :      469.40   469.78   475.14   482.69   487.41   489.10
eigval :      519.04   528.98   536.92   540.38   549.17   549.56
eigval :      553.75   555.08   571.35   573.89   578.93   581.81
eigval :      586.08   588.39   589.23   593.17   599.33   608.73
eigval :      615.60   618.39   628.94   632.27   637.38   647.96
eigval :      649.62   659.56   662.59   667.36   674.23   676.76
eigval :      686.93   688.27   695.50   695.79   705.95   706.91
eigval :      724.59   744.32   745.49   760.77   761.76   769.67
eigval :      771.56   774.02   774.42   790.72   791.63   809.92
eigval :      811.65   812.00   821.94   857.79   863.35   866.77
eigval :      870.07   871.08   872.86   880.17   881.78   884.19
eigval :      884.42   896.11   897.73   899.91   903.64   904.54
eigval :      907.30   907.75   912.01   913.29   917.35   918.33
eigval :      918.85   919.76   919.89   920.21   920.82   922.46
eigval :      927.32   928.63   949.42   950.42   956.47   958.64
eigval :      974.21   991.30   992.56   997.22  1015.48  1027.10
eigval :     1061.76  1062.36  1072.01  1072.27  1072.44  1081.33
eigval :     1082.08  1084.16  1098.23  1098.83  1112.19  1120.27
eigval :     1120.64  1122.97  1128.70  1138.79  1140.59  1146.76
eigval :     1147.12  1165.83  1166.35  1173.95  1175.49  1178.14
eigval :     1178.37  1178.96  1180.51  1181.72  1182.99  1193.32
eigval :     1197.31  1207.20  1207.27  1217.23  1221.29  1225.25
eigval :     1227.39  1251.72  1255.48  1267.62  1268.43  1269.89
eigval :     1270.58  1277.45  1285.41  1286.52  1293.29  1296.34
eigval :     1310.75  1318.56  1324.00  1324.21  1338.05  1342.62
eigval :     1343.59  1349.68  1353.41  1357.83  1360.43  1364.68
eigval :     1375.89  1377.39  1393.45  1394.69  1413.98  1416.90
eigval :     1425.65  1430.03  1430.40  1433.36  1433.80  1437.40
eigval :     1449.76  1452.13  1460.30  1465.89  1467.22  1470.60
eigval :     1471.36  1475.84  1476.87  1506.69  1543.86  1544.25
eigval :     1545.79  1556.40  1561.56  1563.01  1571.81  1572.53
eigval :     1575.74  1578.57  1579.41  1580.56  1582.15  1583.59
eigval :     1584.20  1593.74  1594.76  1597.05  3062.18  3064.26
eigval :     3079.29  3079.32  3079.37  3079.55  3083.35  3083.88
eigval :     3084.11  3085.14  3085.16  3087.70  3087.78  3088.09
eigval :     3088.74  3093.55  3093.88  3094.02  3094.47  3094.57
eigval :     3095.59  3095.65  3096.22  3096.30  3097.20  3103.34
eigval :     3103.92  3106.27  3106.37  3107.44  3107.77  3117.49
eigval :     3117.95  3119.59  3120.77

   temp. (K)  partition function   enthalpy   heat capacity  entropy
                                   cal/mol     cal/K/mol   cal/K/mol   J/K/mol
 298.15  VIB  0.529E+20            28317.289    186.471    172.890
         ROT  0.792E+08              888.752      2.981     39.124
         INT  0.419E+28            29206.041    189.452    212.014
         TR   0.226E+29             1481.254      4.968     45.962
         TOT                       30687.2950   194.4202   257.9753  1079.3686

       T/K    H(0)-H(T)+PV         H(T)/Eh          T*S/Eh         G(T)/Eh
   ------------------------------------------------------------------------
    298.15    0.489033E-01    0.792783E+00    0.122572E+00    0.670211E+00
   ------------------------------------------------------------------------

         :::::::::::::::::::::::::::::::::::::::::::::::::::::
         ::                  THERMODYNAMIC                  ::
         :::::::::::::::::::::::::::::::::::::::::::::::::::::
         :: total free energy        -159.835678966050 Eh   ::
         ::.................................................::
         :: total energy             -160.505889654082 Eh   ::
         :: zero point energy           0.743879754074 Eh   ::
         :: G(RRHO) w/o ZPVE           -0.073669066042 Eh   ::
         :: G(RRHO) contrib.            0.670210688032 Eh   ::
         :::::::::::::::::::::::::::::::::::::::::::::::::::::

           -------------------------------------------------
          | TOTAL ENERGY             -160.505889654082 Eh   |
          | TOTAL ENTHALPY           -159.713106582578 Eh   |
          | TOTAL FREE ENERGY        -159.835678966050 Eh   |
          | GRADIENT NORM               0.000100641251 Eh/α |
           -------------------------------------------------

 * finished run on 2025/09/04 at 19:54:36.854
