   * xtb version 6.7.1 (edcfbbe) compiled by 'albert@albert-system' on 2024-07-22

   ID    Z sym.   atoms
    1    6 C      1-5, 7, 9-24, 26-33, 35, 37-52, 54-61, 63, 64
    2    7 N      6, 8, 25, 34, 36, 53, 62
    3    1 H      65-99

          program call               : xtb data2507/gas/PBICT/PBICT_gas_S0_crest.xyz --gfn 2 --ohess vtight --parallel 40 --molden --ceasefiles --namespace data2507/gas/PBICT/PBICT_gas_S0_finalOpt
          :  Hamiltonian                  GFN2-xTB          :
 * total energy  :  -160.5653254 Eh     change       -0.4265928E-08 Eh
 * total energy  :  -160.5653392 Eh     change       -0.1377259E-04 Eh
 * total energy  :  -160.5653558 Eh     change       -0.1657712E-04 Eh
 * total energy  :  -160.5653779 Eh     change       -0.2214342E-04 Eh
 * total energy  :  -160.5654077 Eh     change       -0.2973572E-04 Eh
 * total energy  :  -160.5654445 Eh     change       -0.3685812E-04 Eh
 * total energy  :  -160.5654860 Eh     change       -0.4153613E-04 Eh
 * total energy  :  -160.5655284 Eh     change       -0.4233854E-04 Eh
 * total energy  :  -160.5655684 Eh     change       -0.3997895E-04 Eh
 * total energy  :  -160.5656039 Eh     change       -0.3557409E-04 Eh
 * total energy  :  -160.5660478 Eh     change       -0.8795310E-06 Eh
 * total energy  :  -160.5660487 Eh     change       -0.8617692E-06 Eh
 * total energy  :  -160.5660495 Eh     change       -0.8565104E-06 Eh
 * total energy  :  -160.5660504 Eh     change       -0.8498366E-06 Eh
 * total energy  :  -160.5660512 Eh     change       -0.8544200E-06 Eh
 * total energy  :  -160.5660521 Eh     change       -0.8563197E-06 Eh
 * total energy  :  -160.5660530 Eh     change       -0.8658548E-06 Eh
 * total energy  :  -160.5660538 Eh     change       -0.8691725E-06 Eh
 * total energy  :  -160.5660538 Eh     change       -0.8349900E-08 Eh
   *** GEOMETRY OPTIMIZATION CONVERGED AFTER 94 ITERATIONS ***

 final structure:
================
99
 xtb: 6.7.1 (edcfbbe)
C           -3.80342806413379       -4.91707431218622       -2.51750572980570
C           -2.64106078402728       -5.34204083403732       -1.89281454039924
C           -1.74012695861635       -4.41779425363388       -1.40058579854323
C           -2.00242025282200       -3.05545202472875       -1.52588942495803
C           -1.06333301169777       -2.07071555229015       -0.99492893344764
N           -1.38404798126055       -0.78413356579527       -1.10529220276484
C           -0.44619051171965        0.06352525924598       -0.71062805700114
N           -0.69211380570330        1.40756349147030       -0.84383363312585
C            0.26000127984330        2.26665544996134       -1.39034122002015
C            1.55510894748098        2.00892334208870       -1.80985324603964
C            2.28556006722302        3.05705119944357       -2.33840769935148
C            1.73862319007582        4.33018689565526       -2.46891335173533
C            0.42833435462737        4.57559499592756       -2.11121804090900
C           -0.32102344223899        3.53318940938019       -1.57979793370931
C           -1.68938034608225        3.42953417800587       -1.15916696712334
C           -2.69443130056479        4.39451419004097       -1.19764928870694
C           -3.95205654938488        4.05125037792491       -0.77252585651618
C           -4.16225740819645        2.77584430340825       -0.25250753698040
C           -5.35064937104671        2.21724770829474        0.31560501661061
C           -6.63556887753010        2.71509961248760        0.49841386305065
C           -7.56007479419548        1.92857247682953        1.15186210217787
C           -7.20400083061357        0.67432795193863        1.64409920999564
C           -5.93331937922469        0.16182871660965        1.47074068622939
C           -5.00937575167296        0.92888549275347        0.77171325558955
N           -3.68110542966561        0.67172613310316        0.47264191458234
C           -3.04357439828151       -0.47062745962421        0.97912609095189
C           -3.63044371755544       -1.72041057034737        0.79970466841131
C           -3.05497683136091       -2.84375817974656        1.36238681529254
C           -1.88848924828789       -2.73499701334206        2.09950693368383
C           -1.29876510898780       -1.49410881594838        2.27260295956042
C           -1.87782026158376       -0.36215544961669        1.73038173959095
C           -3.14317558447343        1.78899547311485       -0.15151321483558
C           -1.89429468987369        2.10590582600174       -0.69876172546573
N            0.76005684094865       -0.27296781953388       -0.26770675248788
C            0.95784344351513       -1.57814462927605       -0.13238851149302
N            2.18412114448982       -2.00839899601987        0.29503689296570
C            2.51495138896923       -3.37229050866635        0.25319702802193
C            1.73585710466300       -4.46775750882197        0.57364780462063
C            2.31040741359813       -5.72296058097512        0.45575406512938
C            3.62544780958799       -5.88140033784180        0.03348725886539
C            4.41231998180309       -4.78469647816037       -0.26532431363490
C            3.85536608284707       -3.52005092608355       -0.14541976165954
C            4.38917825067088       -2.19279687432781       -0.32436417362487
C            5.62893660889801       -1.76910299275111       -0.79950294735193
C            5.87504882443253       -0.41933236612432       -0.90436724844301
C            4.93079120395745        0.48069994228833       -0.41657508549757
C            4.97636995062681        1.90563697680189       -0.27279128439793
C            5.90719898657709        2.85968665676004       -0.66441291794200
C            5.68057676818226        4.17835561121224       -0.33084117553384
C            4.55887213886233        4.53821655800925        0.41184472544387
C            3.62439969337135        3.60398835666717        0.81462672870407
C            3.81739171391872        2.28085945767711        0.44181063173232
N            3.05059550823441        1.15450431551332        0.69769124417891
C            2.08332968258808        1.10576405216922        1.71145243507349
C            1.08915124841786        2.07619502034776        1.79571736614144
C            0.23727282483609        2.10205972971590        2.88476416636648
C            0.35999317794749        1.16259247982997        3.89588861329783
C            1.32730938383519        0.17604930313605        3.79694765058896
C            2.18680640610134        0.14520540656618        2.71454528356916
C            3.69895312230667        0.06134172588559        0.15175025065692
C            3.37567677882070       -1.28881695642042        0.05794653853661
N            0.06761577581723       -2.50998606749656       -0.46328034892936
C           -3.16426009680906       -2.63212031760022       -2.16866941928114
C           -4.05985539240871       -3.56198506565641       -2.65945275207478
H           -4.50750963142380       -5.64235397677990       -2.89870610452387
H           -2.43895312001727       -6.39839380698732       -1.79170936942740
H           -0.82739823458384       -4.72987844845259       -0.91883669620204
H            1.98305866195165        1.02401483814936       -1.72850029955103
H            3.30246035259709        2.88202669907815       -2.65558871355179
H            2.34490325413488        5.12687763967856       -2.87292553719639
H           -0.01152942896842        5.55202058293708       -2.24551564378744
H           -2.47416345844232        5.38195700427652       -1.57091827580964
H           -4.77098836784438        4.75197505389769       -0.81328138973192
H           -6.89673413736870        3.69906693741545        0.13974378911877
H           -8.56658927803941        2.28971267823267        1.30153099964023
H           -7.93765017929443        0.08977546162836        2.17947722261191
H           -5.67278782812972       -0.79910060490419        1.88627692775111
H           -4.51623176722081       -1.81237708653931        0.19078300820930
H           -3.51365025476282       -3.80974994131271        1.21054778609222
H           -1.43672006980254       -3.61388928724091        2.53447684426696
H           -0.38408542889652       -1.39995225636067        2.83846893836490
H           -1.42585887294536        0.60662604877298        1.88152102119128
H            0.72017688853644       -4.34473490348282        0.90968473895058
H            1.72543906708714       -6.59650205334875        0.70304153052352
H            4.03936839419142       -6.87537048061045       -0.04997293089145
H            5.43917471650387       -4.90530621244802       -0.57492411765033
H            6.36549376862419       -2.49714058234658       -1.10041245491618
H            6.80156887225847       -0.05301956241483       -1.31803258838937
H            6.78681327935955        2.56861373656618       -1.21860548356159
H            6.38358281072166        4.94005287474456       -0.63332615063030
H            4.41591752624269        5.57361822054740        0.68347947635722
H            2.78067036922579        3.90950467396171        1.41117786318712
H            0.97556724478129        2.79653602333561        1.00189430289289
H           -0.52609960995731        2.86538855196071        2.94516610493738
H           -0.30145406894209        1.19186716675499        4.74868989917106
H            1.42879883150461       -0.56205003556420        4.58002839347439
H            2.95950317043316       -0.60748751319568        2.65713746797745
H           -3.34289161606100       -1.57332900321295       -2.27243006549233
H           -4.96176366519161       -3.23299861245422       -3.15475894438952

          :  Hamiltonian                  GFN2-xTB          :
         :: gradient norm              0.000069965920 Eh/a0 ::
         :: HOMO-LUMO gap              1.975906991210 eV    ::
         :: SCC energy              -163.516145069778 Eh    ::
         :: -> dispersion             -0.181762985827 Eh    ::
         :: repulsion energy           2.950091231822 Eh    ::

    * Orbital Energies and Occupations

         #    Occupation            Energy/Eh            Energy/eV
      -------------------------------------------------------------
         1        2.0000           -0.6958466             -18.9350
       ...           ...                  ...                  ...
       137        2.0000           -0.4065176             -11.0619
       138        2.0000           -0.4048198             -11.0157
       139        2.0000           -0.4038157             -10.9884
       140        2.0000           -0.4022185             -10.9449
       141        2.0000           -0.4002774             -10.8921
       142        2.0000           -0.3871632             -10.5352
       143        2.0000           -0.3844459             -10.4613
       144        2.0000           -0.3812575             -10.3745
       145        2.0000           -0.3772081             -10.2644
       146        2.0000           -0.3715829             -10.1113
       147        2.0000           -0.3678885             -10.0108
       148        2.0000           -0.3591645              -9.7734
       149        2.0000           -0.3548752              -9.6566 (HOMO)
       150                         -0.2822620              -7.6807 (LUMO)
       151                         -0.2665342              -7.2528
       152                         -0.2553959              -6.9497
       153                         -0.2465839              -6.7099
       154                         -0.2329483              -6.3388
       155                         -0.2322421              -6.3196
       156                         -0.2304663              -6.2713
       157                         -0.2295004              -6.2450
       158                         -0.2262652              -6.1570
       159                         -0.2257427              -6.1428
       160                         -0.2229920              -6.0679
       ...                                ...                  ...
       291                          0.7595535              20.6685
      -------------------------------------------------------------
                  HL-Gap            0.0726132 Eh            1.9759 eV

     #   Z          covCN         q      C6AA      α(0)
     1   6 C        2.920    -0.024    28.600     8.770
     2   6 C        2.919    -0.027    28.686     8.783
     3   6 C        2.924    -0.024    28.601     8.770
     4   6 C        2.986     0.001    28.001     8.680
     5   6 C        3.000     0.207    23.613     7.971
     6   7 N        1.847    -0.327    29.323     8.025
     7   6 C        2.951     0.268    22.486     7.778
     8   7 N        2.815    -0.050    22.200     6.998
     9   6 C        3.062     0.055    26.697     8.473
    10   6 C        2.911    -0.042    29.035     8.836
    11   6 C        2.925    -0.031    28.770     8.796
    12   6 C        2.920    -0.037    28.928     8.820
    13   6 C        2.914    -0.034    28.841     8.806
    14   6 C        3.061    -0.013    28.268     8.719
    15   6 C        3.076    -0.016    28.331     8.727
    16   6 C        2.915    -0.043    29.075     8.842
    17   6 C        2.915    -0.041    29.008     8.832
    18   6 C        3.081    -0.019    28.394     8.736
    19   6 C        3.063    -0.015    28.331     8.728
    20   6 C        2.913    -0.033    28.829     8.804
    21   6 C        2.920    -0.040    29.005     8.832
    22   6 C        2.924    -0.034    28.847     8.808
    23   6 C        2.911    -0.051    29.262     8.870
    24   6 C        3.075     0.047    26.875     8.500
    25   7 N        2.802    -0.038    21.981     6.963
    26   6 C        2.917     0.071    26.403     8.426
    27   6 C        2.924    -0.041    29.020     8.834
    28   6 C        2.920    -0.028    28.708     8.786
    29   6 C        2.920    -0.032    28.786     8.798
    30   6 C        2.921    -0.029    28.723     8.789
    31   6 C        2.922    -0.044    29.105     8.847
    32   6 C        3.037     0.038    27.122     8.542
    33   6 C        3.025     0.038    27.124     8.543
    34   7 N        1.851    -0.340    29.694     8.076
    35   6 C        2.947     0.266    22.535     7.786
    36   7 N        2.800    -0.059    22.377     7.026
    37   6 C        3.064     0.056    26.680     8.470
    38   6 C        2.911    -0.038    28.944     8.822
    39   6 C        2.925    -0.032    28.805     8.802
    40   6 C        2.921    -0.035    28.882     8.813
    41   6 C        2.914    -0.033    28.822     8.803
    42   6 C        3.059    -0.008    28.161     8.702
    43   6 C        3.063    -0.015    28.324     8.727
    44   6 C        2.915    -0.044    29.084     8.843
    45   6 C        2.914    -0.039    28.977     8.827
    46   6 C        3.070    -0.019    28.397     8.738
    47   6 C        3.069    -0.014    28.294     8.722
    48   6 C        2.913    -0.033    28.825     8.804
    49   6 C        2.920    -0.040    28.986     8.829
    50   6 C        2.924    -0.032    28.803     8.801
    51   6 C        2.911    -0.049    29.214     8.863
    52   6 C        3.074     0.049    26.822     8.491
    53   7 N        2.797    -0.029    21.808     6.936
    54   6 C        2.915     0.075    26.316     8.412
    55   6 C        2.922    -0.040    28.996     8.831
    56   6 C        2.920    -0.027    28.678     8.782
    57   6 C        2.918    -0.034    28.835     8.806
    58   6 C        2.920    -0.027    28.682     8.782
    59   6 C        2.923    -0.042    29.038     8.837
    60   6 C        3.061     0.043    26.988     8.519
    61   6 C        3.043     0.039    27.086     8.536
    62   7 N        1.849    -0.324    29.263     8.017
    63   6 C        2.924    -0.022    28.555     8.763
    64   6 C        2.918    -0.027    28.680     8.782
    65   1 H        0.926     0.038     2.475     2.460
    66   1 H        0.926     0.038     2.476     2.461
    67   1 H        0.926     0.057     2.237     2.339
    68   1 H        0.926     0.039     2.464     2.455
    69   1 H        0.926     0.033     2.545     2.495
    70   1 H        0.926     0.032     2.556     2.500
    71   1 H        0.926     0.035     2.517     2.481
    72   1 H        0.926     0.035     2.514     2.479
    73   1 H        0.926     0.036     2.507     2.476
    74   1 H        0.926     0.032     2.558     2.501
    75   1 H        0.926     0.029     2.603     2.523
    76   1 H        0.926     0.029     2.595     2.519
    77   1 H        0.926     0.030     2.593     2.518
    78   1 H        0.926     0.044     2.396     2.421
    79   1 H        0.926     0.033     2.538     2.491
    80   1 H        0.926     0.033     2.539     2.492
    81   1 H        0.926     0.032     2.558     2.501
    82   1 H        0.926     0.032     2.554     2.499
    83   1 H        0.926     0.050     2.319     2.381
    84   1 H        0.926     0.035     2.514     2.480
    85   1 H        0.926     0.034     2.525     2.485
    86   1 H        0.926     0.037     2.495     2.470
    87   1 H        0.926     0.037     2.495     2.470
    88   1 H        0.926     0.037     2.484     2.465
    89   1 H        0.926     0.032     2.556     2.500
    90   1 H        0.926     0.030     2.587     2.515
    91   1 H        0.926     0.031     2.569     2.506
    92   1 H        0.926     0.032     2.557     2.501
    93   1 H        0.926     0.044     2.395     2.420
    94   1 H        0.925     0.032     2.558     2.501
    95   1 H        0.926     0.033     2.538     2.491
    96   1 H        0.926     0.033     2.548     2.496
    97   1 H        0.926     0.034     2.530     2.488
    98   1 H        0.926     0.057     2.239     2.340
    99   1 H        0.926     0.038     2.472     2.459

molecular dipole:
                 x           y           z       tot (Debye)
 q only:       -0.044      -0.520       0.292
   full:       -0.068      -0.684       0.367       1.981

 projected vibrational frequencies (cm⁻¹)
eigval :       -0.00    -0.00     0.00     0.00     0.00     0.00
eigval :       15.43    17.24    27.08    30.85    35.47    42.04
eigval :       47.22    49.24    53.76    57.47    63.36    75.91
eigval :       82.33    91.00    96.11   103.54   110.35   116.52
eigval :      119.98   122.90   128.95   131.85   139.52   148.65
eigval :      160.35   161.93   178.94   187.36   205.24   211.06
eigval :      222.33   229.28   231.56   242.23   250.61   260.46
eigval :      275.70   278.85   282.78   297.96   301.35   315.33
eigval :      321.58   326.22   331.55   336.19   361.22   369.10
eigval :      385.42   391.47   393.55   397.39   398.14   412.27
eigval :      416.67   418.14   425.57   443.36   453.19   472.27
eigval :      477.73   478.61   479.96   489.66   497.48   498.29
eigval :      528.43   536.04   540.38   543.22   551.29   555.25
eigval :      557.57   558.76   580.45   585.27   587.32   588.28
eigval :      591.41   595.57   606.56   609.65   614.85   620.24
eigval :      626.33   628.57   636.56   638.75   648.69   663.20
eigval :      667.27   668.76   673.55   674.48   683.27   691.82
eigval :      692.62   697.88   702.24   709.49   710.89   730.47
eigval :      749.90   764.69   767.17   769.58   772.36   775.38
eigval :      778.36   779.72   781.17   793.66   795.76   820.52
eigval :      820.82   821.59   837.47   864.68   868.33   875.45
eigval :      878.18   881.93   884.70   886.62   892.87   893.01
eigval :      899.61   900.12   906.12   907.61   908.08   909.34
eigval :      912.07   912.80   915.74   917.91   920.70   920.84
eigval :      921.85   924.26   926.79   933.24   933.35   935.45
eigval :      936.94   939.30   944.44   949.53   952.61   964.33
eigval :      996.64   998.37  1002.94  1047.29  1051.77  1071.20
eigval :     1075.00  1076.07  1077.09  1077.22  1082.55  1083.57
eigval :     1096.30  1099.28  1101.83  1111.45  1118.71  1120.99
eigval :     1131.14  1144.59  1151.12  1153.65  1155.75  1163.34
eigval :     1170.05  1173.28  1178.99  1179.26  1179.97  1180.79
eigval :     1181.24  1183.27  1185.60  1188.01  1196.87  1200.35
eigval :     1212.89  1214.56  1227.06  1230.07  1235.00  1243.66
eigval :     1252.53  1267.69  1270.46  1272.02  1275.30  1281.82
eigval :     1285.25  1288.24  1299.62  1303.78  1306.00  1312.33
eigval :     1320.05  1321.40  1330.29  1349.51  1355.13  1355.84
eigval :     1359.88  1361.62  1364.31  1373.46  1381.86  1386.44
eigval :     1391.37  1393.12  1403.60  1420.55  1421.91  1427.32
eigval :     1431.08  1434.03  1436.62  1437.02  1456.23  1467.24
eigval :     1474.83  1475.24  1476.99  1480.44  1480.98  1481.36
eigval :     1484.41  1489.39  1527.61  1535.40  1570.63  1572.01
eigval :     1580.24  1582.03  1585.82  1586.85  1587.07  1590.16
eigval :     1592.62  1593.24  1594.92  1595.21  1596.14  1597.51
eigval :     1602.86  1603.23  1611.11  1612.02  3070.67  3072.00
eigval :     3074.31  3077.36  3078.23  3078.66  3078.87  3080.57
eigval :     3082.11  3083.97  3084.45  3086.69  3086.94  3088.10
eigval :     3089.59  3089.89  3092.69  3092.95  3094.12  3094.93
eigval :     3095.00  3095.51  3096.42  3098.38  3098.51  3102.43
eigval :     3104.13  3104.94  3106.00  3106.80  3110.81  3114.19
eigval :     3115.45  3120.58  3121.76

   temp. (K)  partition function   enthalpy   heat capacity  entropy
                                   cal/mol     cal/K/mol   cal/K/mol   J/K/mol
 298.15  VIB  0.504E+20            28008.651    183.724    170.814
         ROT  0.101E+09              888.752      2.981     39.600
         INT  0.507E+28            28897.403    186.705    210.414
         TR   0.226E+29             1481.254      4.968     45.962
         TOT                       30378.6573   191.6735   256.3758  1072.6765

       T/K    H(0)-H(T)+PV         H(T)/Eh          T*S/Eh         G(T)/Eh
   ------------------------------------------------------------------------
    298.15    0.484115E-01    0.797905E+00    0.121812E+00    0.676092E+00
   ------------------------------------------------------------------------

         :::::::::::::::::::::::::::::::::::::::::::::::::::::
         ::                  THERMODYNAMIC                  ::
         :::::::::::::::::::::::::::::::::::::::::::::::::::::
         :: total free energy        -159.889961615770 Eh   ::
         ::.................................................::
         :: total energy             -160.566053837951 Eh   ::
         :: zero point energy           0.749493185767 Eh   ::
         :: G(RRHO) w/o ZPVE           -0.073400963586 Eh   ::
         :: G(RRHO) contrib.            0.676092222181 Eh   ::
         :::::::::::::::::::::::::::::::::::::::::::::::::::::

           -------------------------------------------------
          | TOTAL ENERGY             -160.566053837951 Eh   |
          | TOTAL ENTHALPY           -159.768149180320 Eh   |
          | TOTAL FREE ENERGY        -159.889961615770 Eh   |
          | GRADIENT NORM               0.000069971369 Eh/α |
          | HOMO-LUMO GAP               1.975906835779 eV   |
           -------------------------------------------------

 * finished run on 2025/09/04 at 19:44:07.221
