   * xtb version 6.7.1 (edcfbbe) compiled by 'albert@albert-system' on 2024-07-22

   ID    Z sym.   atoms
    1    6 C      1-5, 7, 9-24, 26-33, 35, 37-52, 54-61, 63, 64
    2    7 N      6, 8, 25, 34, 36, 53, 62
    3    1 H      65-99

          program call               : xtb data2507/gas/PBICT/PBICT.xyz --gfn 2 --ohess vtight --parallel 40 --molden --ceasefiles --namespace data2507/gas/PBICT/PBICT_gas_S0_preOpt
          :  Hamiltonian                  GFN2-xTB          :
 * total energy  :  -160.4596896 Eh     change       -0.9734293E-08 Eh
 * total energy  :  -160.5141719 Eh     change       -0.5448231E-01 Eh
 * total energy  :  -160.5380153 Eh     change       -0.2384334E-01 Eh
 * total energy  :  -160.5464684 Eh     change       -0.8453187E-02 Eh
 * total energy  :  -160.5515365 Eh     change       -0.5068086E-02 Eh
 * total energy  :  -160.5537422 Eh     change       -0.2205650E-02 Eh
 * total energy  :  -160.5554245 Eh     change       -0.1682356E-02 Eh
 * total energy  :  -160.5566655 Eh     change       -0.1240935E-02 Eh
 * total energy  :  -160.5573729 Eh     change       -0.7073788E-03 Eh
 * total energy  :  -160.5577652 Eh     change       -0.3923857E-03 Eh
 * total energy  :  -160.5603041 Eh     change       -0.1767924E-05 Eh
 * total energy  :  -160.5603063 Eh     change       -0.2237171E-05 Eh
 * total energy  :  -160.5603085 Eh     change       -0.2210308E-05 Eh
 * total energy  :  -160.5603102 Eh     change       -0.1627684E-05 Eh
 * total energy  :  -160.5603112 Eh     change       -0.1078633E-05 Eh
 * total energy  :  -160.5603122 Eh     change       -0.9503164E-06 Eh
 * total energy  :  -160.5603132 Eh     change       -0.1017254E-05 Eh
 * total energy  :  -160.5603142 Eh     change       -0.1005994E-05 Eh
 * total energy  :  -160.5603142 Eh     change       -0.6945839E-08 Eh
   *** GEOMETRY OPTIMIZATION CONVERGED AFTER 68 ITERATIONS ***

 final structure:
================
99
 xtb: 6.7.1 (edcfbbe)
C           -4.36881630368271       -4.32274905097417        0.68399018882779
C           -3.10938310581503       -4.65176940550101        1.16139483364358
C           -2.03470305880509       -3.81749447727192        0.91726182942322
C           -2.22052690416321       -2.63846835520298        0.20173852371658
C           -1.08661982603228       -1.74754267547027       -0.04643290426780
N           -1.32774456023229       -0.45270631203973       -0.18517728993721
C           -0.25587365637901        0.31122535290374       -0.37971112108842
N           -0.46862900774279        1.63510808947206       -0.65486341360669
C            0.54209307353966        2.44722866842344       -1.19597854608769
C            1.88821243816699        2.48700978809852       -0.89094312903826
C            2.68293161339359        3.39452967394022       -1.57161312849741
C            2.14798154867364        4.24269571144243       -2.53393516023150
C            0.79869807275296        4.21183624804176       -2.83543648861951
C           -0.01124708965281        3.31237121757414       -2.15806462192774
C           -1.42577986987000        3.03853461431239       -2.20731528002072
C           -2.41992444927941        3.51692429333202       -3.05995073746369
C           -3.70010329817683        3.02735414176349       -2.93390798683741
C           -3.99555938304542        2.16788243913234       -1.87798684183619
C           -5.23726463674660        1.60656222002557       -1.43040218167281
C           -6.52635092357552        1.63611885207304       -1.94701583138420
C           -7.53670470165257        1.01936366149502       -1.23845541563290
C           -7.27380132068579        0.40209998903206       -0.01800115827959
C           -5.99941204645931        0.36416744214868        0.51537462170022
C           -4.97006664323926        0.94979992094955       -0.20814407349061
N           -3.61763381871912        1.05023118787958        0.08560069809625
C           -3.14029417104884        1.00382899276075        1.40687664973320
C           -3.39346059786327       -0.09184354661506        2.22518557266402
C           -3.08633131438930       -0.03534186076085        3.57220493320308
C           -2.52259230512429        1.10619893320498        4.11688566765449
C           -2.22036003171240        2.17938432508294        3.29279298595732
C           -2.52161195845107        2.12978902845800        1.94550018822145
C           -3.01342546608958        1.75226475238360       -0.94281184052501
C           -1.68884318178020        2.08199386783366       -1.20612052603345
N            0.99334141095054       -0.14299739227432       -0.43977164511648
C            1.10728969343545       -1.46628170174764       -0.41290481438172
N            2.32177301038414       -2.00673954617457       -0.75834605708940
C            2.42619162531391       -3.08009760867041       -1.65235235320729
C            1.53208325331505       -4.10381484849625       -1.90753864567068
C            1.87950597570810       -5.03778232180104       -2.86936624129814
C            3.08207619071059       -4.95424557226426       -3.56269030517464
C            3.97359261260065       -3.92811191966907       -3.31410138830981
C            3.64744680401365       -2.98326119897623       -2.35158663472505
C            4.33903186887798       -1.82573064227803       -1.84424671016887
C            5.56738054474648       -1.25125073543268       -2.17485008274760
C            5.99997444465763       -0.13951442319310       -1.48679421347175
C            5.25041784250864        0.33201321031454       -0.40905838862309
C            5.49086840359639        1.36376898820160        0.55958235728634
C            6.50332510149319        2.30169233776530        0.71801408971339
C            6.45954376972066        3.14515916506914        1.80945528778082
C            5.43464743368578        3.04854106909864        2.74808740577794
C            4.41735642991244        2.12319593502406        2.61364624795195
C            4.43869763198687        1.29367654555480        1.50235289114073
N            3.56203235243757        0.29135434595817        1.13160117509703
C            2.54072941431097       -0.25652074943568        1.91984234861057
C            1.55305829028308        0.54947508736771        2.47387970127577
C            0.53404088804119       -0.02557922862298        3.20796376137993
C            0.47821682525295       -1.39790401604959        3.38410401226236
C            1.47244805670016       -2.19943488840376        2.85098899126566
C            2.50828774976648       -1.63254963425743        2.13280964002050
C            4.03186652223656       -0.28021036698695       -0.03265907814330
C            3.51752685967898       -1.28790189186102       -0.83535920426586
N            0.10865034307107       -2.30868117409415       -0.17612068075744
C           -3.48411468621336       -2.31636678171161       -0.28659581613902
C           -4.55352502676384       -3.15861344680386       -0.04553098382788
H           -5.20636975327817       -4.97711248179245        0.87695309129409
H           -2.96764162964029       -5.56261864476635        1.72453409555457
H           -1.04700772126067       -4.05605604501792        1.28074845396451
H            2.30524755792379        1.83396537519200       -0.14918804629617
H            3.73716079237377        3.44195907392614       -1.34212844090112
H            2.79467781870896        4.93873339479121       -3.04734758940446
H            0.37939549694301        4.87649045860937       -3.57544315658675
H           -2.17003130904049        4.23554459373618       -3.82443671666920
H           -4.48015767215125        3.32859881225939       -3.61555888866658
H           -6.72726359192333        2.13276576942904       -2.88416180742530
H           -8.54506152566416        1.02213182876053       -1.62461957898771
H           -8.08570726446077       -0.05630338333059        0.52738293705042
H           -5.82401684942001       -0.10111879649165        1.47188342965461
H           -3.82060704858598       -0.98757426573219        1.80493484215098
H           -3.29936112719903       -0.88671710930598        4.20221871144867
H           -2.31055978022298        1.15669171651384        5.17500638251108
H           -1.76264008945768        3.06704278586833        3.70525411019902
H           -2.31347557175219        2.97966019564792        1.31186786769931
H            0.59994085754785       -4.16815555038773       -1.37097070268054
H            1.20106891587567       -5.85077905451458       -3.08136672244768
H            3.32000923741432       -5.70277337635503       -4.30390608239082
H            4.90642315142342       -3.85931511678051       -3.85274874678243
H            6.16188642630516       -1.67724304945647       -2.96785431534839
H            6.92908423474754        0.34391824348675       -1.74629199288720
H            7.30695043061022        2.36373626983278       -0.00018180683300
H            7.23394372495026        3.88485306728066        1.94801756239323
H            5.43660658799169        3.70989152524769        3.60193095983156
H            3.63963928538024        2.04475898142834        3.35770486869175
H            1.56387819304742        1.61491059859353        2.29907753454743
H           -0.23476351714252        0.60133438617107        3.62844531599474
H           -0.34016132003032       -1.83596526179692        3.93537072057173
H            1.44601464780579       -3.26956577288679        2.99331089324287
H            3.29499209919988       -2.25324761130954        1.72983381955440
H           -3.61019160382410       -1.41120471298392       -0.85909915285012
H           -5.53251783575643       -2.90310616700395       -0.42416453197103

          :  Hamiltonian                  GFN2-xTB          :
         :: gradient norm              0.000054112865 Eh/a0 ::
         :: HOMO-LUMO gap              2.140647546813 eV    ::
         :: SCC energy              -163.511229642205 Eh    ::
         :: -> dispersion             -0.174309305407 Eh    ::
         :: repulsion energy           2.950915414011 Eh    ::

    * Orbital Energies and Occupations

         #    Occupation            Energy/Eh            Energy/eV
      -------------------------------------------------------------
         1        2.0000           -0.6938104             -18.8795
       ...           ...                  ...                  ...
       137        2.0000           -0.4068019             -11.0696
       138        2.0000           -0.4052661             -11.0279
       139        2.0000           -0.4049868             -11.0203
       140        2.0000           -0.4025782             -10.9547
       141        2.0000           -0.4015433             -10.9265
       142        2.0000           -0.3851425             -10.4803
       143        2.0000           -0.3829198             -10.4198
       144        2.0000           -0.3789900             -10.3128
       145        2.0000           -0.3783844             -10.2964
       146        2.0000           -0.3705952             -10.0844
       147        2.0000           -0.3690765             -10.0431
       148        2.0000           -0.3591077              -9.7718
       149        2.0000           -0.3572320              -9.7208 (HOMO)
       150                         -0.2785646              -7.5801 (LUMO)
       151                         -0.2645080              -7.1976
       152                         -0.2543091              -6.9201
       153                         -0.2453406              -6.6761
       154                         -0.2327060              -6.3323
       155                         -0.2315448              -6.3007
       156                         -0.2310802              -6.2880
       157                         -0.2296807              -6.2499
       158                         -0.2284774              -6.2172
       159                         -0.2253785              -6.1329
       160                         -0.2244615              -6.1079
       ...                                ...                  ...
       291                          0.7605741              20.6963
      -------------------------------------------------------------
                  HL-Gap            0.0786674 Eh            2.1406 eV

     #   Z          covCN         q      C6AA      α(0)
     1   6 C        2.920    -0.025    28.627     8.774
     2   6 C        2.919    -0.027    28.684     8.783
     3   6 C        2.924    -0.023    28.570     8.765
     4   6 C        2.986     0.004    27.932     8.669
     5   6 C        3.004     0.208    23.601     7.969
     6   7 N        1.848    -0.329    29.374     8.033
     7   6 C        2.949     0.266    22.532     7.785
     8   7 N        2.798    -0.059    22.380     7.026
     9   6 C        3.061     0.056    26.695     8.473
    10   6 C        2.912    -0.041    29.026     8.835
    11   6 C        2.925    -0.031    28.762     8.795
    12   6 C        2.920    -0.035    28.869     8.811
    13   6 C        2.914    -0.033    28.831     8.805
    14   6 C        3.061    -0.009    28.181     8.705
    15   6 C        3.061    -0.015    28.318     8.726
    16   6 C        2.915    -0.044    29.081     8.843
    17   6 C        2.914    -0.040    28.984     8.828
    18   6 C        3.068    -0.019    28.417     8.741
    19   6 C        3.069    -0.015    28.306     8.724
    20   6 C        2.913    -0.033    28.825     8.804
    21   6 C        2.920    -0.040    29.003     8.831
    22   6 C        2.924    -0.034    28.839     8.807
    23   6 C        2.911    -0.050    29.242     8.867
    24   6 C        3.077     0.048    26.837     8.493
    25   7 N        2.795    -0.034    21.892     6.949
    26   6 C        2.917     0.075    26.328     8.414
    27   6 C        2.922    -0.041    29.009     8.832
    28   6 C        2.920    -0.028    28.703     8.786
    29   6 C        2.919    -0.034    28.837     8.806
    30   6 C        2.920    -0.028    28.700     8.785
    31   6 C        2.924    -0.041    29.030     8.836
    32   6 C        3.067     0.043    26.968     8.515
    33   6 C        3.049     0.040    27.055     8.531
    34   7 N        1.849    -0.344    29.778     8.088
    35   6 C        2.947     0.268    22.489     7.778
    36   7 N        2.802    -0.056    22.321     7.017
    37   6 C        3.065     0.055    26.707     8.474
    38   6 C        2.910    -0.046    29.147     8.853
    39   6 C        2.925    -0.032    28.799     8.801
    40   6 C        2.920    -0.037    28.924     8.819
    41   6 C        2.914    -0.033    28.826     8.804
    42   6 C        3.068    -0.010    28.188     8.706
    43   6 C        3.058    -0.015    28.329     8.729
    44   6 C        2.914    -0.043    29.075     8.842
    45   6 C        2.913    -0.040    28.982     8.828
    46   6 C        3.064    -0.019    28.418     8.742
    47   6 C        3.073    -0.015    28.301     8.722
    48   6 C        2.913    -0.033    28.824     8.804
    49   6 C        2.920    -0.040    29.001     8.831
    50   6 C        2.924    -0.033    28.828     8.805
    51   6 C        2.910    -0.050    29.234     8.866
    52   6 C        3.075     0.048    26.834     8.493
    53   7 N        2.800    -0.039    21.986     6.964
    54   6 C        2.915     0.068    26.488     8.440
    55   6 C        2.921    -0.041    29.007     8.832
    56   6 C        2.922    -0.033    28.832     8.805
    57   6 C        2.920    -0.033    28.821     8.804
    58   6 C        2.920    -0.025    28.633     8.775
    59   6 C        2.924    -0.043    29.070     8.842
    60   6 C        3.076     0.042    26.989     8.517
    61   6 C        3.059     0.040    27.058     8.530
    62   7 N        1.848    -0.326    29.309     8.024
    63   6 C        2.924    -0.021    28.540     8.761
    64   6 C        2.918    -0.027    28.682     8.782
    65   1 H        0.926     0.037     2.484     2.465
    66   1 H        0.926     0.038     2.477     2.461
    67   1 H        0.926     0.050     2.326     2.385
    68   1 H        0.926     0.054     2.265     2.353
    69   1 H        0.926     0.036     2.497     2.471
    70   1 H        0.926     0.034     2.525     2.485
    71   1 H        0.926     0.036     2.502     2.474
    72   1 H        0.926     0.037     2.495     2.470
    73   1 H        0.926     0.037     2.489     2.467
    74   1 H        0.926     0.032     2.553     2.499
    75   1 H        0.926     0.029     2.596     2.520
    76   1 H        0.926     0.030     2.591     2.517
    77   1 H        0.926     0.031     2.568     2.506
    78   1 H        0.926     0.044     2.394     2.419
    79   1 H        0.926     0.033     2.549     2.497
    80   1 H        0.926     0.033     2.541     2.493
    81   1 H        0.926     0.034     2.525     2.485
    82   1 H        0.926     0.035     2.515     2.480
    83   1 H        0.926     0.055     2.260     2.351
    84   1 H        0.926     0.034     2.525     2.485
    85   1 H        0.926     0.033     2.546     2.495
    86   1 H        0.926     0.036     2.506     2.475
    87   1 H        0.926     0.035     2.510     2.477
    88   1 H        0.926     0.036     2.503     2.474
    89   1 H        0.926     0.032     2.561     2.503
    90   1 H        0.926     0.029     2.602     2.523
    91   1 H        0.926     0.030     2.591     2.517
    92   1 H        0.926     0.029     2.605     2.524
    93   1 H        0.926     0.040     2.455     2.450
    94   1 H        0.926     0.038     2.475     2.460
    95   1 H        0.926     0.032     2.564     2.504
    96   1 H        0.926     0.036     2.497     2.471
    97   1 H        0.926     0.037     2.491     2.468
    98   1 H        0.926     0.051     2.307     2.375
    99   1 H        0.926     0.038     2.475     2.460

molecular dipole:
                 x           y           z       tot (Debye)
 q only:       -0.476      -0.147       0.481
   full:       -0.526      -0.219       0.642       2.182

 projected vibrational frequencies (cm⁻¹)
eigval :       -0.00    -0.00    -0.00    -0.00     0.00     0.00
eigval :        8.83    18.75    21.41    26.90    30.56    35.10
eigval :       37.09    43.96    48.30    50.76    58.67    66.96
eigval :       75.96    76.91    84.50    92.97    99.84   103.77
eigval :      108.82   113.36   117.70   130.94   133.17   147.57
eigval :      150.72   167.36   175.85   187.57   198.72   204.56
eigval :      222.80   227.04   230.26   231.58   238.17   263.61
eigval :      271.44   276.67   284.21   294.30   297.13   317.17
eigval :      321.31   325.04   331.07   335.04   362.83   372.30
eigval :      380.90   387.37   388.36   396.83   401.02   404.33
eigval :      409.55   414.52   426.62   442.15   452.87   472.12
eigval :      473.95   475.74   478.12   496.12   499.51   502.01
eigval :      531.98   535.45   541.02   543.12   551.37   556.80
eigval :      558.25   560.23   579.89   583.93   587.02   589.97
eigval :      591.63   597.86   606.69   610.76   618.40   620.57
eigval :      629.08   630.15   637.61   642.92   652.07   661.10
eigval :      667.07   668.82   677.64   679.11   684.38   689.81
eigval :      693.78   699.62   702.83   709.67   711.55   733.16
eigval :      749.66   760.79   767.41   768.64   772.58   773.69
eigval :      775.60   776.65   779.86   793.40   795.39   820.15
eigval :      820.65   821.81   833.30   865.16   866.17   868.69
eigval :      876.23   878.96   882.21   882.92   892.91   894.12
eigval :      899.83   900.26   902.45   904.99   906.54   906.65
eigval :      911.17   912.45   914.19   918.51   920.36   920.98
eigval :      921.39   923.82   924.45   930.64   931.64   932.38
eigval :      934.24   936.83   938.22   939.56   955.55   967.39
eigval :      997.21   998.18  1003.02  1045.87  1049.49  1069.99
eigval :     1070.82  1072.08  1075.45  1076.04  1082.24  1083.36
eigval :     1093.73  1097.77  1099.77  1111.56  1121.11  1121.77
eigval :     1130.12  1143.33  1148.34  1151.59  1154.19  1167.40
eigval :     1173.08  1176.03  1177.76  1178.32  1178.64  1180.38
eigval :     1181.81  1183.23  1185.60  1190.25  1199.08  1201.21
eigval :     1211.14  1216.44  1224.93  1234.67  1235.07  1244.81
eigval :     1249.99  1265.49  1268.83  1270.37  1273.38  1277.60
eigval :     1284.32  1286.35  1298.75  1305.13  1305.92  1311.64
eigval :     1320.03  1322.74  1324.42  1346.12  1351.66  1354.85
eigval :     1360.42  1360.57  1364.04  1378.14  1385.37  1390.79
eigval :     1392.94  1397.73  1401.90  1418.27  1420.28  1425.74
eigval :     1427.85  1431.47  1437.36  1438.45  1453.89  1466.63
eigval :     1468.11  1475.09  1477.27  1478.39  1482.25  1482.83
eigval :     1483.42  1487.81  1525.83  1532.76  1568.74  1569.71
eigval :     1580.30  1583.16  1584.60  1586.14  1586.67  1589.87
eigval :     1593.27  1594.94  1596.00  1598.39  1600.23  1603.27
eigval :     1604.15  1608.93  1611.63  1616.67  3072.74  3075.13
eigval :     3077.02  3077.33  3077.44  3078.50  3079.20  3079.86
eigval :     3081.16  3083.28  3084.21  3085.93  3086.73  3087.24
eigval :     3088.51  3089.77  3090.34  3090.58  3091.81  3092.28
eigval :     3092.53  3095.02  3095.56  3095.79  3096.43  3097.59
eigval :     3101.30  3102.10  3104.13  3107.11  3113.69  3118.28
eigval :     3119.03  3127.88  3187.57

   temp. (K)  partition function   enthalpy   heat capacity  entropy
                                   cal/mol     cal/K/mol   cal/K/mol   J/K/mol
 298.15  VIB  0.797E+21            28291.167    182.770    174.164
         ROT  0.103E+09              888.752      2.981     39.643
         INT  0.819E+29            29179.919    185.751    213.807
         TR   0.226E+29             1481.254      4.968     45.962
         TOT                       30661.1732   190.7188   259.7691  1086.8737

       T/K    H(0)-H(T)+PV         H(T)/Eh          T*S/Eh         G(T)/Eh
   ------------------------------------------------------------------------
    298.15    0.488617E-01    0.797760E+00    0.123425E+00    0.674335E+00
   ------------------------------------------------------------------------

         :::::::::::::::::::::::::::::::::::::::::::::::::::::
         ::                  THERMODYNAMIC                  ::
         :::::::::::::::::::::::::::::::::::::::::::::::::::::
         :: total free energy        -159.885979186911 Eh   ::
         ::.................................................::
         :: total energy             -160.560314228193 Eh   ::
         :: zero point energy           0.748898012010 Eh   ::
         :: G(RRHO) w/o ZPVE           -0.074562970727 Eh   ::
         :: G(RRHO) contrib.            0.674335041282 Eh   ::
         :::::::::::::::::::::::::::::::::::::::::::::::::::::

           -------------------------------------------------
          | TOTAL ENERGY             -160.560314228193 Eh   |
          | TOTAL ENTHALPY           -159.762554526530 Eh   |
          | TOTAL FREE ENERGY        -159.885979186911 Eh   |
          | GRADIENT NORM               0.000054111022 Eh/α |
          | HOMO-LUMO GAP               2.140647949709 eV   |
           -------------------------------------------------

 * finished run on 2025/09/04 at 19:38:09.857
