   * xtb version 6.7.1 (edcfbbe) compiled by 'albert@albert-system' on 2024-07-22

   ID    Z sym.   atoms
    1    6 C      1-5, 7, 9-24, 26-33, 35, 37-52, 54-61, 63, 64
    2    7 N      6, 8, 25, 34, 36, 53, 62
    3    1 H      65-99

          program call               : xtb data2507/gas/PBICT/PBICT_gas_S0_finalOpt.xtbopt.xyz --gfn 2 --spinpol --tblite --uhf 2 --ohess vtight --parallel 40 --molden --ceasefiles --namespace data2507/gas/PBICT/PBICT_gas_T1_preOpt
 * total energy  :  -160.4776633 Eh     change       -0.8103035E-07 Eh
 * total energy  :  -160.4801119 Eh     change       -0.2448515E-02 Eh
 * total energy  :  -160.4817462 Eh     change       -0.1634292E-02 Eh
 * total energy  :  -160.4819169 Eh     change       -0.1707457E-03 Eh
 * total energy  :  -160.4820463 Eh     change       -0.1294386E-03 Eh
 * total energy  :  -160.4820570 Eh     change       -0.1068257E-04 Eh
 * total energy  :  -160.4820734 Eh     change       -0.1635234E-04 Eh
 * total energy  :  -160.4820798 Eh     change       -0.6404235E-05 Eh
 * total energy  :  -160.4820973 Eh     change       -0.1752076E-04 Eh
 * total energy  :  -160.4821032 Eh     change       -0.5911123E-05 Eh
 * total energy  :  -160.4821982 Eh     change       -0.7365100E-06 Eh
 * total energy  :  -160.4821989 Eh     change       -0.7377863E-06 Eh
 * total energy  :  -160.4821997 Eh     change       -0.7942852E-06 Eh
 * total energy  :  -160.4822006 Eh     change       -0.8975665E-06 Eh
 * total energy  :  -160.4822016 Eh     change       -0.9719285E-06 Eh
 * total energy  :  -160.4822026 Eh     change       -0.1020156E-05 Eh
 * total energy  :  -160.4822036 Eh     change       -0.1001183E-05 Eh
 * total energy  :  -160.4822036 Eh     change        0.1717510E-07 Eh
 * total energy  :  -160.4822036 Eh     change       -0.2858073E-07 Eh
   *** GEOMETRY OPTIMIZATION CONVERGED AFTER 45 ITERATIONS ***

 final structure:
================
99
 xtb: 6.7.1 (edcfbbe)
C           -3.79298242907745       -4.93645289758828       -2.57634156887520
C           -2.62336307549208       -5.34977596550940       -1.94976267992448
C           -1.72806296565996       -4.42787232718471       -1.45900686328588
C           -1.98561462424072       -3.04987381228763       -1.57994969425033
C           -1.08372406129349       -2.08872823551803       -1.04756619922285
N           -1.36933204414370       -0.76659367418088       -1.15229242671934
C           -0.46108258595645        0.05845128810175       -0.73074164353138
N           -0.70121445155349        1.42005452176474       -0.85788997509587
C            0.24988367168669        2.25888964422993       -1.42121649430255
C            1.52820569791099        1.96991021067098       -1.87136034217440
C            2.28444047469098        3.01069708703345       -2.38113527482635
C            1.77445875108895        4.30358960916522       -2.46238395080275
C            0.48129085332728        4.58551237830566       -2.06406983174372
C           -0.29452434450119        3.55358709145603       -1.55088523389794
C           -1.64911116198123        3.47303744686436       -1.09169483419008
C           -2.64062127056819        4.44608683420994       -1.08439821035873
C           -3.90056274282157        4.11085714975505       -0.63803913045014
C           -4.12425866173478        2.82718941870520       -0.15131863758226
C           -5.31323304319164        2.26690581206570        0.41677354246231
C           -6.58880496468080        2.77156320264979        0.63403290638300
C           -7.51459205429263        1.96899819307593        1.27248215953817
C           -7.16944608795025        0.69477447764297        1.71391638732486
C           -5.90348332357631        0.17536252214532        1.50698478745781
C           -4.98287432200802        0.95864257672188        0.82472854590729
N           -3.65839201234909        0.69926051950234        0.50217541069220
C           -3.03782165705527       -0.47414199847913        0.95756122843694
C           -3.64787176025846       -1.70577351575719        0.73340138430002
C           -3.10058454120113       -2.85501701242634        1.27125935575008
C           -1.94351460795219       -2.78756394627308        2.02805759706676
C           -1.33047382017002       -1.56365442418760        2.24342306441818
C           -1.87725836361234       -0.40743732439963        1.72266325730215
C           -3.11641366546346        1.81963900128145       -0.09529234208394
C           -1.86606418440368        2.13067491087470       -0.65190310833247
N            0.76011667034668       -0.27258574556236       -0.23859177875710
C            0.95066279098728       -1.59249172030907       -0.12726681330213
N            2.19232619653935       -2.02163467456826        0.30844199685123
C            2.52271944858883       -3.38168393064752        0.29078501193882
C            1.73036804749818       -4.47363240929000        0.59343376698307
C            2.30682341367481       -5.73045065510116        0.51029300614188
C            3.63732407786426       -5.89456734300305        0.13815309730191
C            4.43611068578556       -4.80337262231337       -0.14698571817627
C            3.87764520156568       -3.53529330635077       -0.06239413283845
C            4.40914896999220       -2.21315199014762       -0.25482844173042
C            5.65007299726522       -1.78632423271579       -0.71951794499889
C            5.88466446189593       -0.43530546296816       -0.86298231994793
C            4.92191976238134        0.46877073299951       -0.42088034037733
C            4.95459046931403        1.89749791402898       -0.31016104224394
C            5.88066624940665        2.84955522841099       -0.71424819632049
C            5.64110184599754        4.17498712407266       -0.40994537741455
C            4.51329882709827        4.54266451989726        0.31759036780857
C            3.58228181888302        3.60838922554210        0.73384458780314
C            3.78586095764818        2.28023266177430        0.38706409818599
N            3.02829210986768        1.15095863702336        0.66147434780241
C            2.04813704175066        1.11065674837986        1.66052989194502
C            1.06254196769232        2.09247831585948        1.73909885184940
C            0.20395510856478        2.12790199165728        2.82176476194126
C            0.31204236534240        1.19011864375372        3.83697167432423
C            1.27339595646574        0.19629416532319        3.74748361761117
C            2.13879743416086        0.15441422618977        2.67133673610616
C            3.68620909794419        0.05163782984626        0.14072696000678
C            3.37116780607120       -1.30526149695672        0.07890711798160
N            0.07706550412201       -2.49888952395633       -0.45736619999637
C           -3.16363104831965       -2.64394733103563       -2.23479472963893
C           -4.04914994686415       -3.57737884259988       -2.71992112011188
H           -4.49366744841468       -5.66511971569489       -2.95656552863416
H           -2.41549953468852       -6.40619410155406       -1.84849942054233
H           -0.81408484866327       -4.74198504415961       -0.97965609613396
H            1.92006090603438        0.96723961055748       -1.82753874419851
H            3.28799714903257        2.81440991762701       -2.72629421504703
H            2.39730080547400        5.09174480741633       -2.85781227208645
H            0.07890789266319        5.58329950090560       -2.15067393822921
H           -2.41918912119131        5.43973053426093       -1.44064624293449
H           -4.70564078652837        4.82828763017753       -0.64427465808213
H           -6.84553799600638        3.76983276667655        0.31472076300594
H           -8.51437821719077        2.33700628350925        1.44737336601287
H           -7.90305214223169        0.09828423904025        2.23494970546953
H           -5.64735474317693       -0.80298866413742        1.88183155296877
H           -4.52148851511663       -1.76398616466774        0.10362233096765
H           -3.57022882177621       -3.80756409463418        1.07918175429218
H           -1.51430435222619       -3.68698887266857        2.44289613495712
H           -0.42150402527224       -1.50286143732029        2.82297970164538
H           -1.41097036137989        0.54880281440008        1.90460689931387
H            0.70125403788945       -4.34522401409453        0.88410280561231
H            1.71132030410262       -6.60077586011503        0.74243340304199
H            4.05189498133305       -6.89013178094471        0.08059906780956
H            5.47236099271487       -4.92961376267802       -0.42147561074241
H            6.40078992865263       -2.51305153578991       -0.98721768606018
H            6.81568686501830       -0.07272947641443       -1.26942265901269
H            6.76740897753513        2.55435263054908       -1.25428751284339
H            6.34164324473743        4.93443889588924       -0.72335072579606
H            4.36124575953035        5.58171783235401        0.56853199137460
H            2.73558888612484        3.92135329993594        1.32190794483767
H            0.95697638932626        2.81045678703045        0.94243827642620
H           -0.55425338963610        2.89706199064942        2.87378432646843
H           -0.35508783109108        1.22700718586645        4.68493979936000
H            1.36611512940397       -0.53789423176594        4.53502154196625
H            2.90856508953845       -0.60156667293408        2.62453496597928
H           -3.34914609571634       -1.58683048367243       -2.34903397910242
H           -4.95196489165858       -3.25336539941158       -3.21956396899749

 projected vibrational frequencies (cm⁻¹)
eigval :       -0.00    -0.00    -0.00    -0.00     0.00     0.00
eigval :       14.01    16.34    27.43    30.37    35.02    42.20
eigval :       47.55    48.62    53.13    60.53    64.49    75.90
eigval :       83.33    88.12    94.37   102.01   106.25   116.48
eigval :      119.82   122.23   128.27   130.56   135.37   146.39
eigval :      156.82   158.00   176.87   182.43   188.55   205.55
eigval :      227.18   228.50   229.10   240.87   246.84   257.22
eigval :      272.60   277.20   277.44   294.96   298.06   309.52
eigval :      317.52   324.68   326.55   332.11   356.25   370.57
eigval :      374.77   387.70   391.49   393.71   395.72   400.61
eigval :      411.48   412.64   418.38   439.95   447.33   469.06
eigval :      472.36   474.38   476.24   482.25   486.38   488.76
eigval :      517.37   529.24   534.54   540.51   546.77   550.58
eigval :      551.04   554.25   561.55   578.04   579.15   583.56
eigval :      584.34   585.96   588.70   591.64   598.55   604.22
eigval :      610.44   619.94   624.33   629.74   640.79   645.26
eigval :      649.64   662.57   664.09   668.54   670.76   675.68
eigval :      688.20   690.94   694.12   699.19   703.43   706.84
eigval :      708.91   744.43   747.56   762.73   766.14   769.62
eigval :      772.22   773.99   774.70   790.52   792.05   805.09
eigval :      814.59   816.05   820.88   857.53   861.50   864.47
eigval :      870.04   871.05   872.37   879.67   882.42   885.68
eigval :      886.85   891.57   897.15   898.68   903.33   903.95
eigval :      907.97   908.34   910.38   912.75   917.42   917.56
eigval :      918.00   919.43   920.36   920.71   921.18   922.26
eigval :      931.37   934.09   938.89   939.78   949.35   951.22
eigval :      957.69   976.93   993.46   995.75   998.59  1026.73
eigval :     1068.27  1069.85  1071.46  1074.83  1075.26  1081.16
eigval :     1081.50  1085.33  1097.06  1100.44  1112.60  1118.01
eigval :     1119.84  1122.17  1128.32  1139.77  1143.83  1145.28
eigval :     1149.02  1157.90  1166.75  1176.28  1177.35  1178.15
eigval :     1179.17  1179.93  1181.26  1181.71  1183.48  1190.98
eigval :     1195.99  1202.15  1205.70  1212.71  1216.52  1220.74
eigval :     1231.09  1255.70  1259.50  1264.10  1266.24  1267.95
eigval :     1273.93  1278.67  1280.33  1285.95  1293.44  1294.08
eigval :     1301.36  1317.67  1320.59  1322.10  1338.44  1339.20
eigval :     1342.93  1343.91  1352.35  1357.53  1362.28  1364.70
eigval :     1369.54  1373.02  1393.06  1395.36  1416.67  1417.34
eigval :     1421.31  1424.25  1430.00  1435.01  1435.64  1439.68
eigval :     1444.35  1452.27  1456.08  1467.37  1469.16  1470.13
eigval :     1471.70  1476.03  1476.70  1493.45  1538.13  1542.89
eigval :     1549.30  1550.28  1567.37  1572.30  1574.70  1575.96
eigval :     1577.82  1579.02  1580.02  1580.65  1584.35  1587.70
eigval :     1588.47  1592.55  1595.68  1598.60  3059.93  3062.21
eigval :     3070.57  3074.61  3079.14  3080.76  3082.45  3082.62
eigval :     3083.02  3084.89  3087.17  3087.67  3089.20  3090.47
eigval :     3090.82  3091.84  3093.53  3093.80  3095.69  3095.71
eigval :     3095.85  3096.86  3097.47  3098.63  3099.33  3101.62
eigval :     3102.83  3104.85  3105.53  3106.76  3107.90  3112.90
eigval :     3114.36  3118.28  3119.17

   temp. (K)  partition function   enthalpy   heat capacity  entropy
                                   cal/mol     cal/K/mol   cal/K/mol   J/K/mol
 298.15  VIB  0.959E+20            28402.810    186.375    173.269
         ROT  0.100E+09              888.752      2.981     39.596
         INT  0.963E+28            29291.562    189.356    212.866
         TR   0.226E+29             1481.254      4.968     45.962
         TOT                       30772.8160   194.3243   258.8276  1082.9347

       T/K    H(0)-H(T)+PV         H(T)/Eh          T*S/Eh         G(T)/Eh
   ------------------------------------------------------------------------
    298.15    0.490396E-01    0.792394E+00    0.122977E+00    0.669417E+00
   ------------------------------------------------------------------------

         :::::::::::::::::::::::::::::::::::::::::::::::::::::
         ::                  THERMODYNAMIC                  ::
         :::::::::::::::::::::::::::::::::::::::::::::::::::::
         :: total free energy        -159.812786749877 Eh   ::
         ::.................................................::
         :: total energy             -160.482203607616 Eh   ::
         :: zero point energy           0.743354596473 Eh   ::
         :: G(RRHO) w/o ZPVE           -0.073937738734 Eh   ::
         :: G(RRHO) contrib.            0.669416857739 Eh   ::
         :::::::::::::::::::::::::::::::::::::::::::::::::::::

           -------------------------------------------------
          | TOTAL ENERGY             -160.482203607616 Eh   |
          | TOTAL ENTHALPY           -159.689809407380 Eh   |
          | TOTAL FREE ENERGY        -159.812786749877 Eh   |
          | GRADIENT NORM               0.000073541877 Eh/α |
           -------------------------------------------------

 * finished run on 2025/09/04 at 19:44:31.757
