   * xtb version 6.7.1 (edcfbbe) compiled by 'albert@albert-system' on 2024-07-22

   ID    Z sym.   atoms
    1    6 C      1-26, 28-39, 41-46
    2   16 S      27, 40
    3    1 H      47-72

          program call               : xtb data2507/toluene/thio-ether/thio-ether_toluene_S0_crest.xyz --gfn 2 --gbsa toluene --ohess vtight --parallel 40 --molden --ceasefiles --namespace data2507/toluene/thio-ether/thio-ether_toluene_S0_finalOpt
      * Solvation model:               GBSA
        Solvent                        toluene
        Solvent mass                       9.2140E+01 g/mol
          :  Hamiltonian                  GFN2-xTB          :
 * total energy  :  -113.9563261 Eh     change       -0.2892392E-08 Eh
 * total energy  :  -113.9563886 Eh     change       -0.6247817E-04 Eh
 * total energy  :  -113.9564552 Eh     change       -0.6657752E-04 Eh
 * total energy  :  -113.9564873 Eh     change       -0.3214959E-04 Eh
 * total energy  :  -113.9565472 Eh     change       -0.5986085E-04 Eh
 * total energy  :  -113.9566011 Eh     change       -0.5388351E-04 Eh
 * total energy  :  -113.9566310 Eh     change       -0.2993237E-04 Eh
 * total energy  :  -113.9566581 Eh     change       -0.2707907E-04 Eh
 * total energy  :  -113.9566784 Eh     change       -0.2026917E-04 Eh
 * total energy  :  -113.9566893 Eh     change       -0.1089963E-04 Eh
 * total energy  :  -113.9567051 Eh     change       -0.3673656E-05 Eh
 * total energy  :  -113.9567092 Eh     change       -0.4133674E-05 Eh
 * total energy  :  -113.9567121 Eh     change       -0.2929907E-05 Eh
 * total energy  :  -113.9567132 Eh     change       -0.1062085E-05 Eh
 * total energy  :  -113.9567141 Eh     change       -0.9174156E-06 Eh
 * total energy  :  -113.9567145 Eh     change       -0.3914333E-06 Eh
 * total energy  :  -113.9567147 Eh     change       -0.2373269E-06 Eh
 * total energy  :  -113.9567150 Eh     change       -0.2777291E-06 Eh
 * total energy  :  -113.9567150 Eh     change       -0.3238142E-08 Eh
   *** GEOMETRY OPTIMIZATION CONVERGED AFTER 22 ITERATIONS ***

 final structure:
================
72
 xtb: 6.7.1 (edcfbbe)
C           -2.25192471838447       -0.01969755610159       -3.19312805341946
C           -3.16322526316795       -0.01051054811142       -2.21412802246486
C           -2.82010512273247       -0.00018154282277       -0.74334853158992
C           -1.34988918323706       -0.00150423769573       -0.47765454957282
C           -0.44883233197389       -0.01020978504685       -1.47215148348116
C           -0.85627453883671       -0.01964020218592       -2.88545893890300
C            0.26240119762307       -0.02680575644869       -3.65332021301894
C            1.41979762214756       -0.02187457569795       -2.77957903027550
C            0.99051740916218       -0.01193050097652       -1.46193359280309
C            1.89800397071462       -0.00624580904104       -0.27099174064456
C            3.33128213659323       -0.00445825605298       -0.71969525646163
C            4.48087116943595        0.00567524298308        0.02700269801858
C            4.71687361727925        0.01997833423288        1.42648035780626
C            5.99473947053271        0.02853914409710        1.88225310981501
C            7.10470061034859        0.02317871326808        0.98633776677952
C            6.93383339253641        0.00947660847315       -0.36096155341569
C            5.62028404601340        0.00046371972829       -0.89419844274962
C            5.15085138652234       -0.01266502419881       -2.18639303873543
C            3.72402538549651       -0.01566823751925       -2.12721003726573
C            2.79167279236475       -0.02459449047606       -3.12790534589302
C            1.64787181795801       -1.29987333146325        0.49033295732271
C            1.98308817855801       -2.48373117313612       -0.16401956032720
C            1.80247166438205       -3.71730793910734        0.42815006371886
C            1.27821782216499       -3.79480483876184        1.70987813431827
C            0.93551585503890       -2.63642702068803        2.37296528648903
C            1.11370638817035       -1.39383503842336        1.76662202849801
S            0.60079499600718       -0.00493252222347        2.72994927230905
C            1.10831509706396        1.38350323670643        1.76289903954543
C            0.92559482575452        2.62702698309671        2.36588698841970
C            1.26384631984273        3.78480229204732        1.69943162198456
C            1.78769495533322        3.70574335025433        0.41764360531872
C            1.97278117006264        2.47121547921023       -0.17120881676232
C            1.64235564712333        1.28797728484844        0.48663963129583
C           -3.43590857518962       -1.25379059719192       -0.13004036976475
C           -2.64675514131951       -2.37170114998000        0.11726957556060
C           -3.19670000824470       -3.54319303348663        0.60519387038513
C           -4.55758775538402       -3.62086683305017        0.85241262300717
C           -5.35718676149255       -2.52055389993048        0.61600606907514
C           -4.79910822171183       -1.34515758399646        0.12721213862239
S           -5.89947444058213        0.01063596165771       -0.15877094539862
C           -4.79305293339738        1.36517202059595        0.10922612111373
C           -5.34594881082516        2.54920008001999        0.58283789583622
C           -4.54146721721276        3.64881546423726        0.80547370946426
C           -3.18092454367847        3.56182932840289        0.55946520164196
C           -2.63612595513661        2.38176829385036        0.08660928365477
C           -3.43026592702464        1.26434128879038       -0.14684546049966
H           -2.55496408927771       -0.02705647929398       -4.23062050235803
H           -4.21895811377005       -0.01078711672193       -2.44124884983158
H           -1.06212259230810        0.00514794295313        0.56390590363055
H            0.31609872564849       -0.03452197056812       -4.72656149481828
H            3.87968359292254        0.02410251718320        2.11032534373116
H            6.19594196070444        0.03959421662306        2.94444611269329
H            8.09991231884645        0.03036487597067        1.40925640885044
H            7.77987225817999        0.00562028827046       -1.03448044264768
H            5.73247370642648       -0.01898517750249       -3.08933622195487
H            3.08354357538640       -0.03225626591731       -4.16929877634016
H            2.39803473808028       -2.42181982466921       -1.15938812921594
H            2.07171666992070       -4.61511139037035       -0.10720551191946
H            1.13584289483164       -4.75178696956185        2.18848558924766
H            0.52168817891340       -2.67083303096270        3.37008116198985
H            0.51208114919428        2.66266639401135        3.36308619745010
H            1.11817082745240        4.74255291410043        2.17550378853262
H            2.05333712792621        4.60309789091384       -0.12026399702202
H            2.38765835674824        2.40795423826097       -1.16656573746377
H           -1.58773489121378       -2.32767135627642       -0.09067793242791
H           -2.56078955918533       -4.39671229966890        0.78352743383621
H           -4.99518665055755       -4.53284359252461        1.22895345511732
H           -6.42003981520946       -2.55660150611043        0.80221323212474
H           -6.40863837600932        2.59226848057463        0.76849830026135
H           -4.97499462677374        4.56747470854243        1.17032515430217
H           -2.54118553331224        4.41462702208404        0.72717846857171
H           -1.57718373085750        2.33040377947243       -0.12012782099746

          :  Hamiltonian                  GFN2-xTB          :
         :: gradient norm              0.000039725756 Eh/a0 ::
         :: HOMO-LUMO gap              0.583064517233 eV    ::
         :: SCC energy              -116.054342094353 Eh    ::
         :: -> dispersion             -0.124190567726 Eh    ::
         :: -> Gsolv                  -0.043910596681 Eh    ::
         :: repulsion energy           2.097627067869 Eh    ::

    * Orbital Energies and Occupations

         #    Occupation            Energy/Eh            Energy/eV
      -------------------------------------------------------------
         1        2.0000           -0.7259670             -19.7546
       ...           ...                  ...                  ...
        95        2.0000           -0.4173034             -11.3554
        96        2.0000           -0.4165851             -11.3359
        97        2.0000           -0.4137819             -11.2596
        98        2.0000           -0.4119286             -11.2091
        99        2.0000           -0.4107371             -11.1767
       100        2.0000           -0.4088792             -11.1262
       101        2.0000           -0.4072665             -11.0823
       102        2.0000           -0.4009708             -10.9110
       103        2.0000           -0.3886887             -10.5768
       104        2.0000           -0.3663387              -9.9686
       105        2.0000           -0.3660685              -9.9612
       106        2.0000           -0.3641862              -9.9100
       107        2.0000           -0.3400093              -9.2521 (HOMO)
       108        0.0000           -0.3185821              -8.6691 (LUMO)
       109                         -0.2856782              -7.7737
       110                         -0.2456425              -6.6843
       111                         -0.2436994              -6.6314
       112                         -0.2374780              -6.4621
       113                         -0.2371285              -6.4526
       114                         -0.2352079              -6.4003
       115                         -0.2342637              -6.3746
       116                         -0.2337423              -6.3605
       117                         -0.2249558              -6.1214
       118                         -0.2209027              -6.0111
       ...                                ...                  ...
       220                          0.7378862              20.0789
      -------------------------------------------------------------
                  HL-Gap            0.0214272 Eh            0.5831 eV

     #   Z          covCN         q      C6AA      α(0)
     1   6 C        2.895    -0.035    28.862     8.808
     2   6 C        2.920    -0.032    28.792     8.799
     3   6 C        3.921     0.030    20.002     6.356
     4   6 C        2.911    -0.004    28.133     8.697
     5   6 C        3.074     0.002    27.893     8.659
     6   6 C        3.069    -0.001    27.979     8.673
     7   6 C        2.996    -0.055    29.363     8.889
     8   6 C        3.094     0.005    27.792     8.640
     9   6 C        3.065    -0.003    28.027     8.681
    10   6 C        3.920     0.029    20.023     6.360
    11   6 C        3.063    -0.030    28.693     8.784
    12   6 C        3.075    -0.014    28.272     8.718
    13   6 C        2.903    -0.035    28.869     8.810
    14   6 C        2.914    -0.037    28.932     8.820
    15   6 C        2.915    -0.033    28.820     8.803
    16   6 C        2.903    -0.040    28.990     8.828
    17   6 C        3.099     0.000    27.901     8.656
    18   6 C        2.974    -0.083    30.067     8.994
    19   6 C        3.103     0.006    27.760     8.633
    20   6 C        2.903    -0.011    28.297     8.722
    21   6 C        3.008     0.008    27.820     8.652
    22   6 C        2.931    -0.034    28.837     8.807
    23   6 C        2.918    -0.035    28.865     8.810
    24   6 C        2.920    -0.030    28.750     8.793
    25   6 C        2.995    -0.039    28.959     8.827
    26   6 C        2.970     0.046    26.969     8.518
    27  16 S        2.148    -0.155   147.599    20.448
    28   6 C        2.970     0.046    26.970     8.518
    29   6 C        2.994    -0.039    28.959     8.827
    30   6 C        2.920    -0.030    28.749     8.793
    31   6 C        2.918    -0.035    28.864     8.810
    32   6 C        2.931    -0.034    28.836     8.807
    33   6 C        3.008     0.008    27.822     8.652
    34   6 C        3.014     0.007    27.846     8.656
    35   6 C        2.926    -0.034    28.843     8.807
    36   6 C        2.919    -0.032    28.802     8.801
    37   6 C        2.920    -0.029    28.719     8.788
    38   6 C        2.979    -0.037    28.922     8.822
    39   6 C        2.972     0.047    26.935     8.513
    40  16 S        2.131    -0.154   147.534    20.443
    41   6 C        2.972     0.047    26.935     8.513
    42   6 C        2.979    -0.037    28.922     8.822
    43   6 C        2.920    -0.029    28.719     8.788
    44   6 C        2.919    -0.032    28.802     8.801
    45   6 C        2.926    -0.034    28.844     8.807
    46   6 C        3.013     0.007    27.847     8.656
    47   1 H        0.926     0.040     2.445     2.445
    48   1 H        0.926     0.040     2.453     2.449
    49   1 H        0.926     0.052     2.289     2.366
    50   1 H        0.926     0.034     2.533     2.489
    51   1 H        0.926     0.012     2.860     2.645
    52   1 H        0.926     0.019     2.754     2.595
    53   1 H        0.925     0.021     2.718     2.578
    54   1 H        0.925     0.021     2.717     2.578
    55   1 H        0.926     0.015     2.816     2.624
    56   1 H        0.925     0.046     2.366     2.406
    57   1 H        0.926     0.037     2.492     2.468
    58   1 H        0.926     0.040     2.450     2.448
    59   1 H        0.926     0.043     2.411     2.428
    60   1 H        0.926     0.043     2.408     2.426
    61   1 H        0.926     0.043     2.408     2.427
    62   1 H        0.926     0.043     2.411     2.428
    63   1 H        0.926     0.040     2.450     2.448
    64   1 H        0.926     0.037     2.493     2.469
    65   1 H        0.926     0.036     2.499     2.472
    66   1 H        0.926     0.043     2.406     2.426
    67   1 H        0.926     0.046     2.367     2.406
    68   1 H        0.926     0.048     2.350     2.397
    69   1 H        0.926     0.048     2.350     2.397
    70   1 H        0.926     0.046     2.367     2.406
    71   1 H        0.926     0.043     2.406     2.426
    72   1 H        0.926     0.036     2.499     2.472

molecular dipole:
                 x           y           z       tot (Debye)
 q only:       -1.499      -0.003      -0.292
   full:       -1.013      -0.003      -0.398       2.766

 projected vibrational frequencies (cm⁻¹)
eigval :       -0.00    -0.00    -0.00    -0.00     0.00     0.00
eigval :        4.90    20.10    32.45    34.64    37.32    39.82
eigval :       48.47    58.75    59.96    71.01    93.19   105.36
eigval :      112.85   113.26   137.02   145.63   150.16   166.43
eigval :      187.50   193.39   208.54   232.13   235.32   245.65
eigval :      261.94   269.75   276.89   299.56   307.42   325.89
eigval :      327.80   341.52   350.37   361.30   362.18   363.50
eigval :      402.34   415.15   418.21   420.17   421.93   426.69
eigval :      433.60   443.38   451.97   470.85   472.46   484.94
eigval :      487.95   490.30   495.66   503.42   513.77   517.95
eigval :      530.70   561.89   581.85   588.90   589.42   612.01
eigval :      630.15   637.89   646.90   648.23   658.56   662.55
eigval :      669.77   680.97   682.62   683.20   695.31   700.07
eigval :      701.81   713.11   713.30   733.77   735.31   766.18
eigval :      772.53   772.77   775.65   778.48   791.68   809.46
eigval :      819.13   829.56   848.73   852.10   855.99   868.32
eigval :      877.44   878.52   878.96   879.71   879.91   900.44
eigval :      901.42   904.61   913.30   914.66   914.70   915.39
eigval :      915.50   919.87   923.94   924.32   924.54   926.04
eigval :      942.93   955.31   999.63  1031.56  1032.19  1033.73
eigval :     1041.89  1046.03  1088.31  1096.51  1097.10  1097.68
eigval :     1098.72  1122.14  1125.00  1134.74  1142.18  1147.03
eigval :     1147.92  1154.95  1158.75  1165.27  1175.72  1175.90
eigval :     1177.23  1177.88  1179.46  1192.32  1193.97  1198.45
eigval :     1207.04  1215.12  1222.02  1222.85  1246.73  1247.69
eigval :     1250.56  1253.61  1254.57  1274.45  1308.62  1315.53
eigval :     1319.95  1321.13  1324.34  1325.58  1342.00  1346.87
eigval :     1355.42  1393.75  1398.78  1405.25  1405.42  1411.05
eigval :     1415.25  1429.22  1445.07  1456.14  1457.72  1462.76
eigval :     1497.77  1540.23  1564.97  1565.67  1568.64  1574.51
eigval :     1576.38  1576.81  1577.90  1582.09  1585.02  1588.52
eigval :     1602.75  1611.31  1625.72  1656.07  3055.26  3059.31
eigval :     3066.46  3066.91  3067.32  3077.81  3078.43  3079.92
eigval :     3080.12  3080.41  3080.61  3082.53  3083.07  3084.50
eigval :     3084.82  3086.48  3089.65  3090.16  3092.34  3092.70
eigval :     3098.49  3099.04  3100.76  3101.22  3134.84  3137.83

   temp. (K)  partition function   enthalpy   heat capacity  entropy
                                   cal/mol     cal/K/mol   cal/K/mol   J/K/mol
 298.15  VIB  0.133E+16            20562.760    134.685    125.697
         ROT  0.471E+08              888.752      2.981     38.091
         INT  0.624E+23            21451.512    137.665    163.787
         TR   0.149E+29             1481.254      4.968     45.130
         TOT                       22932.7661   142.6336   208.9177   874.1116

       T/K    H(0)-H(T)+PV         H(T)/Eh          T*S/Eh         G(T)/Eh
   ------------------------------------------------------------------------
    298.15    0.365457E-01    0.573408E+00    0.992635E-01    0.474144E+00
   ------------------------------------------------------------------------

         :::::::::::::::::::::::::::::::::::::::::::::::::::::
         ::                  THERMODYNAMIC                  ::
         :::::::::::::::::::::::::::::::::::::::::::::::::::::
         :: total free energy        -113.482570764842 Eh   ::
         ::.................................................::
         :: total energy             -113.956715028036 Eh   ::
         :: zero point energy           0.536862108374 Eh   ::
         :: G(RRHO) w/o ZPVE           -0.062717845180 Eh   ::
         :: G(RRHO) contrib.            0.474144263194 Eh   ::
         :::::::::::::::::::::::::::::::::::::::::::::::::::::

           -------------------------------------------------
          | TOTAL ENERGY             -113.956715028036 Eh   |
          | TOTAL ENTHALPY           -113.383307230646 Eh   |
          | TOTAL FREE ENERGY        -113.482570764842 Eh   |
          | GRADIENT NORM               0.000039790990 Eh/α |
          | HOMO-LUMO GAP               0.583062551161 eV   |
           -------------------------------------------------

 * finished run on 2025/09/08 at 22:03:30.607
