   * xtb version 6.7.1 (edcfbbe) compiled by 'albert@albert-system' on 2024-07-22

   ID    Z sym.   atoms
    1    6 C      1-26, 28-39, 41-46
    2   16 S      27, 40
    3    1 H      47-72

          program call               : xtb data2507/toluene/thio-ether/thio-ether_toluene_T1_crest.xyz --gfn 2 --uhf 2 --gbsa toluene --ohess vtight --parallel 40 --molden --ceasefiles --namespace data2507/toluene/thio-ether/thio-ether_toluene_T1_finalOpt
      * Solvation model:               GBSA
        Solvent                        toluene
        Solvent mass                       9.2140E+01 g/mol
          :  Hamiltonian                  GFN2-xTB          :
 * total energy  :  -113.9318290 Eh     change       -0.3230767E-08 Eh
 * total energy  :  -113.9318835 Eh     change       -0.5448564E-04 Eh
 * total energy  :  -113.9319423 Eh     change       -0.5879893E-04 Eh
 * total energy  :  -113.9319727 Eh     change       -0.3044174E-04 Eh
 * total energy  :  -113.9320584 Eh     change       -0.8572088E-04 Eh
 * total energy  :  -113.9320982 Eh     change       -0.3975941E-04 Eh
 * total energy  :  -113.9321283 Eh     change       -0.3010422E-04 Eh
 * total energy  :  -113.9321658 Eh     change       -0.3755783E-04 Eh
 * total energy  :  -113.9321964 Eh     change       -0.3051287E-04 Eh
 * total energy  :  -113.9322078 Eh     change       -0.1145684E-04 Eh
 * total energy  :  -113.9322210 Eh     change       -0.6566642E-05 Eh
 * total energy  :  -113.9322262 Eh     change       -0.5280751E-05 Eh
 * total energy  :  -113.9322322 Eh     change       -0.5991401E-05 Eh
 * total energy  :  -113.9322389 Eh     change       -0.6712954E-05 Eh
 * total energy  :  -113.9322424 Eh     change       -0.3477336E-05 Eh
 * total energy  :  -113.9322435 Eh     change       -0.1091780E-05 Eh
 * total energy  :  -113.9322443 Eh     change       -0.7426940E-06 Eh
 * total energy  :  -113.9322447 Eh     change       -0.4415807E-06 Eh
 * total energy  :  -113.9322448 Eh     change       -0.9360593E-07 Eh
   *** GEOMETRY OPTIMIZATION CONVERGED AFTER 20 ITERATIONS ***

 final structure:
================
72
 xtb: 6.7.1 (edcfbbe)
C           -2.28048999010439        0.02690663944659       -3.18013846190696
C           -3.18443348445753        0.01453551043139       -2.19552588154814
C           -2.83353823781872        0.00244668746021       -0.72541253710365
C           -1.35882978447264       -0.00284668562909       -0.47181579117008
C           -0.45666022873344        0.00950047672150       -1.47779872150272
C           -0.88108236678965        0.02692436315469       -2.88521727274026
C            0.22286741113683        0.04087736530920       -3.67278924705828
C            1.39764557841349        0.03330904971660       -2.82375826812031
C            0.96517634734171        0.01260168863793       -1.48243245737646
C            1.88569738614646       -0.00237880786367       -0.29340981340398
C            3.30513833240800        0.01435556669924       -0.77272910910378
C            4.48929047976207        0.01246917819972        0.02141666235979
C            4.69933345450894       -0.00659283221048        1.38985776986730
C            6.00950628425626       -0.00189644974260        1.86591390939087
C            7.08887409145884        0.02168024627222        0.99607035956326
C            6.89914427816133        0.04090660746874       -0.38465357433079
C            5.60486459776844        0.03611246341774       -0.87906187436122
C            5.09355227303181        0.05090470208363       -2.20636575228447
C            3.68931008044706        0.03766300318421       -2.14136328151562
C            2.73614416366123        0.04597331821569       -3.18177838632603
C            1.66451543154521       -1.30924214355217        0.45455743277146
C            1.98404482580276       -2.47865446916437       -0.23266367235227
C            1.81191135708831       -3.72531560752130        0.33516175370551
C            1.30610887627416       -3.83043111007124        1.62193608957075
C            0.97845915373068       -2.68620121470380        2.31760768433878
C            1.15634898201330       -1.43057492913522        1.73964310243198
S            0.68317723003273       -0.06152560829274        2.75033531496043
C            1.14133096891693        1.34679066811441        1.78771998442633
C            0.95017079094307        2.57977380191596        2.40851432752072
C            1.26522070926266        3.75068842298368        1.75248056307001
C            1.77121512165778        3.69533700460174        0.46270690779802
C            1.95653632757503        2.47084728115739       -0.14764834575871
C            1.65010198847078        1.27518351041756        0.49914438282206
C           -3.45214976774912       -1.25765057351261       -0.13017900356675
C           -2.66479523411939       -2.38182829621463        0.09322718500009
C           -3.21154991498265       -3.55954406620556        0.56915078702362
C           -4.56993933528984       -3.63811865327306        0.82948049686998
C           -5.36925115573821       -2.53283254225151        0.61607196864823
C           -4.81296151414344       -1.35212123348831        0.13855499929550
S           -5.91472291477505        0.00882940096719       -0.11930940571394
C           -4.80478011658902        1.36044074137637        0.15196995816982
C           -5.35431308941452        2.54001766742630        0.64002439542853
C           -4.54864751886861        3.63861851559856        0.86373562453380
C           -3.19051658517947        3.55407178512296        0.60405468070433
C           -2.65030020971423        2.37737680414304        0.11816664950026
C           -3.44433141651109        1.26027801102673       -0.11656762370962
H           -2.59234488319957        0.03648050831672       -4.21575363943704
H           -4.24206508617844        0.01457937757291       -2.41692925639259
H           -1.06221999657560       -0.01420019678037        0.56663793664400
H            0.25481202528412        0.05576604251232       -4.74744082131469
H            3.86962270254748       -0.02459441664360        2.08070563417665
H            6.18476462810133       -0.01647783939312        2.93169041041957
H            8.09306458161519        0.02514121497590        1.39398890905896
H            7.74645236340055        0.05904817921581       -1.05479658780416
H            5.68104472351675        0.06946697306916       -3.10613432536200
H            3.04695264596221        0.06264319946569       -4.21501340609888
H            2.37229040642979       -2.39496579257634       -1.23724219901763
H            2.07014469886584       -4.61152828786206       -0.22448154287676
H            1.16557106227129       -4.79770947604049        2.08009669479373
H            0.57798914272334       -2.74291147549694        3.31920812336025
H            0.54973063362106        2.59779334926553        3.41156327314334
H            1.11444846784685        4.70014665646666        2.24349527735952
H            2.01902250174842        4.60299928769632       -0.06639302390878
H            2.34486407038899        2.42570481278074       -1.15470806016090
H           -1.60802641517472       -2.33324959782590       -0.12573406489249
H           -2.57557156532610       -4.41705833713974        0.72826112580984
H           -5.00592372127564       -4.55437069775658        1.19779687226766
H           -6.43050193968880       -2.56914322075677        0.81197127110652
H           -6.41550132136887        2.58092088305123        0.83540591814824
H           -4.97951451501463        4.55431738620344        1.23941273261127
H           -2.54959860092178        4.40643727261254        0.77086577178502
H           -1.59344685625919        2.32440708692476       -0.09943673433888

          :  Hamiltonian                  GFN2-xTB          :
         :: gradient norm              0.000138888932 Eh/a0 ::
         :: HOMO-LUMO gap              1.033442803606 eV    ::
         :: SCC energy              -116.019732011068 Eh    ::
         :: -> dispersion             -0.124093316930 Eh    ::
         :: -> Gsolv                  -0.043095659464 Eh    ::
         :: repulsion energy           2.087487214684 Eh    ::

    * Orbital Energies and Occupations

         #    Occupation            Energy/Eh            Energy/eV
      -------------------------------------------------------------
         1        2.0000           -0.7249746             -19.7276
       ...           ...                  ...                  ...
        96        2.0000           -0.4169851             -11.3467
        97        2.0000           -0.4137245             -11.2580
        98        2.0000           -0.4124452             -11.2232
        99        2.0000           -0.4121446             -11.2150
       100        2.0000           -0.4076703             -11.0933
       101        2.0000           -0.4050235             -11.0213
       102        2.0000           -0.4004981             -10.8981
       103        2.0000           -0.3881072             -10.5609
       104        1.9997           -0.3632705              -9.8851
       105        1.9997           -0.3631292              -9.8812
       106        1.9985           -0.3616512              -9.8410
       107        1.0020           -0.3495594              -9.5120
       108        1.0000           -0.3172732              -8.6334 (HOMO)
       109                         -0.2792948              -7.6000 (LUMO)
       110                         -0.2432437              -6.6190
       111                         -0.2417123              -6.5773
       112                         -0.2348664              -6.3910
       113                         -0.2344411              -6.3795
       114                         -0.2336524              -6.3580
       115                         -0.2336303              -6.3574
       116                         -0.2302674              -6.2659
       117                         -0.2274698              -6.1898
       118                         -0.2242032              -6.1009
       119                         -0.2044664              -5.5638
       ...                                ...                  ...
       220                          0.7364395              20.0395
      -------------------------------------------------------------
                  HL-Gap            0.0379784 Eh            1.0334 eV

     #   Z          covCN         q      C6AA      α(0)
     1   6 C        2.895    -0.037    28.910     8.816
     2   6 C        2.921    -0.032    28.801     8.801
     3   6 C        3.920     0.029    20.018     6.359
     4   6 C        2.910    -0.030    28.751     8.792
     5   6 C        3.064    -0.004    28.061     8.687
     6   6 C        3.074    -0.002    28.007     8.677
     7   6 C        2.992    -0.058    29.420     8.897
     8   6 C        3.087     0.003    27.865     8.653
     9   6 C        3.065    -0.029    28.658     8.778
    10   6 C        3.920     0.030    20.013     6.358
    11   6 C        3.085     0.003    27.861     8.653
    12   6 C        3.069    -0.008    28.137     8.698
    13   6 C        2.909    -0.024    28.603     8.770
    14   6 C        2.918    -0.029    28.734     8.790
    15   6 C        2.917    -0.030    28.760     8.794
    16   6 C        2.909    -0.026    28.654     8.777
    17   6 C        3.079    -0.001    27.973     8.671
    18   6 C        2.998    -0.038    28.923     8.822
    19   6 C        3.069    -0.002    28.014     8.679
    20   6 C        2.903    -0.045    29.106     8.846
    21   6 C        3.006     0.007    27.858     8.658
    22   6 C        2.931    -0.033    28.833     8.806
    23   6 C        2.918    -0.035    28.865     8.810
    24   6 C        2.920    -0.030    28.741     8.791
    25   6 C        2.995    -0.039    28.952     8.826
    26   6 C        2.970     0.047    26.941     8.514
    27  16 S        2.148    -0.155   147.587    20.447
    28   6 C        2.970     0.047    26.941     8.514
    29   6 C        2.994    -0.039    28.952     8.826
    30   6 C        2.920    -0.030    28.740     8.791
    31   6 C        2.918    -0.035    28.865     8.810
    32   6 C        2.931    -0.033    28.833     8.806
    33   6 C        3.007     0.007    27.857     8.658
    34   6 C        3.013     0.006    27.874     8.660
    35   6 C        2.927    -0.034    28.851     8.809
    36   6 C        2.918    -0.033    28.833     8.805
    37   6 C        2.920    -0.030    28.758     8.794
    38   6 C        2.979    -0.039    28.952     8.826
    39   6 C        2.972     0.047    26.949     8.515
    40  16 S        2.132    -0.163   147.960    20.473
    41   6 C        2.972     0.047    26.949     8.515
    42   6 C        2.979    -0.039    28.952     8.826
    43   6 C        2.920    -0.030    28.758     8.794
    44   6 C        2.918    -0.033    28.834     8.806
    45   6 C        2.927    -0.034    28.853     8.809
    46   6 C        3.013     0.006    27.872     8.660
    47   1 H        0.925     0.032     2.559     2.501
    48   1 H        0.926     0.031     2.572     2.508
    49   1 H        0.926     0.031     2.571     2.508
    50   1 H        0.926     0.024     2.677     2.559
    51   1 H        0.926     0.029     2.601     2.522
    52   1 H        0.926     0.036     2.504     2.474
    53   1 H        0.926     0.037     2.483     2.464
    54   1 H        0.926     0.039     2.462     2.454
    55   1 H        0.926     0.039     2.458     2.452
    56   1 H        0.926     0.031     2.576     2.510
    57   1 H        0.926     0.037     2.485     2.465
    58   1 H        0.926     0.040     2.452     2.449
    59   1 H        0.926     0.043     2.415     2.430
    60   1 H        0.926     0.043     2.414     2.429
    61   1 H        0.926     0.043     2.414     2.430
    62   1 H        0.926     0.043     2.415     2.430
    63   1 H        0.926     0.040     2.452     2.449
    64   1 H        0.926     0.037     2.487     2.466
    65   1 H        0.926     0.036     2.507     2.476
    66   1 H        0.926     0.041     2.440     2.442
    67   1 H        0.926     0.044     2.400     2.423
    68   1 H        0.926     0.045     2.388     2.417
    69   1 H        0.926     0.045     2.388     2.416
    70   1 H        0.926     0.044     2.400     2.422
    71   1 H        0.926     0.041     2.440     2.443
    72   1 H        0.926     0.036     2.508     2.476

molecular dipole:
                 x           y           z       tot (Debye)
 q only:        0.896       0.002       0.204
   full:        1.237       0.007       0.035       3.146

 projected vibrational frequencies (cm⁻¹)
eigval :       -0.00    -0.00    -0.00    -0.00     0.00     0.00
eigval :        2.88    19.05    27.30    32.89    37.61    38.20
eigval :       47.08    55.19    58.21    74.31    92.96   105.07
eigval :      111.54   112.24   134.55   143.68   148.58   166.63
eigval :      186.41   193.63   208.18   232.44   243.49   245.98
eigval :      270.08   273.51   276.78   297.25   306.74   325.33
eigval :      331.34   346.58   348.58   349.73   361.66   363.69
eigval :      397.36   414.64   416.48   417.43   422.19   423.04
eigval :      434.15   443.49   450.21   469.83   471.17   485.90
eigval :      488.69   494.31   498.63   501.93   509.51   519.49
eigval :      531.91   564.08   580.81   588.62   590.58   612.06
eigval :      620.42   635.85   637.39   643.98   657.14   657.59
eigval :      669.93   676.06   680.91   682.82   689.52   699.44
eigval :      699.68   707.97   712.32   735.45   735.79   760.44
eigval :      771.62   773.14   776.05   779.02   784.46   791.57
eigval :      806.26   819.00   819.60   836.12   847.74   850.47
eigval :      878.65   879.35   879.96   880.36   880.56   891.49
eigval :      895.09   898.84   907.89   913.46   913.98   914.28
eigval :      915.88   919.06   922.69   924.13   925.48   925.84
eigval :      952.29   957.01  1010.45  1032.73  1033.34  1039.11
eigval :     1046.58  1063.96  1093.77  1096.02  1096.88  1097.65
eigval :     1098.37  1101.42  1120.64  1129.39  1145.50  1146.23
eigval :     1147.18  1154.50  1159.60  1162.15  1174.93  1175.31
eigval :     1176.06  1177.85  1179.38  1191.10  1194.15  1195.39
eigval :     1208.03  1209.84  1220.55  1221.00  1243.52  1246.04
eigval :     1249.04  1252.85  1253.16  1262.88  1279.92  1298.84
eigval :     1315.93  1319.20  1320.55  1324.19  1327.94  1352.81
eigval :     1360.52  1381.14  1387.74  1398.25  1405.73  1410.06
eigval :     1415.48  1434.08  1445.41  1447.83  1454.51  1456.35
eigval :     1460.97  1469.80  1497.40  1539.00  1562.82  1565.55
eigval :     1573.33  1574.26  1575.58  1578.84  1580.03  1586.11
eigval :     1586.74  1592.36  1606.45  1634.45  3056.68  3071.25
eigval :     3075.98  3076.72  3077.59  3077.85  3078.53  3079.14
eigval :     3080.79  3081.99  3082.06  3082.31  3083.08  3083.86
eigval :     3088.24  3088.54  3089.26  3089.62  3090.08  3091.73
eigval :     3097.50  3098.07  3098.23  3098.73  3127.89  3133.83

   temp. (K)  partition function   enthalpy   heat capacity  entropy
                                   cal/mol     cal/K/mol   cal/K/mol   J/K/mol
 298.15  VIB  0.339E+16            20631.045    134.914    126.614
         ROT  0.472E+08              888.752      2.981     38.096
         INT  0.160E+24            21519.797    137.895    164.710
         TR   0.149E+29             1481.254      4.968     45.130
         TOT                       23001.0509   142.8631   209.8402   877.9715

       T/K    H(0)-H(T)+PV         H(T)/Eh          T*S/Eh         G(T)/Eh
   ------------------------------------------------------------------------
    298.15    0.366545E-01    0.572106E+00    0.997019E-01    0.472404E+00
   ------------------------------------------------------------------------

         :::::::::::::::::::::::::::::::::::::::::::::::::::::
         ::                  THERMODYNAMIC                  ::
         :::::::::::::::::::::::::::::::::::::::::::::::::::::
         :: total free energy        -113.459840428723 Eh   ::
         ::.................................................::
         :: total energy             -113.932244794084 Eh   ::
         :: zero point energy           0.535451724700 Eh   ::
         :: G(RRHO) w/o ZPVE           -0.063047359338 Eh   ::
         :: G(RRHO) contrib.            0.472404365361 Eh   ::
         :::::::::::::::::::::::::::::::::::::::::::::::::::::

           -------------------------------------------------
          | TOTAL ENERGY             -113.932244794084 Eh   |
          | TOTAL ENTHALPY           -113.360138561630 Eh   |
          | TOTAL FREE ENERGY        -113.459840428723 Eh   |
          | GRADIENT NORM               0.000138900114 Eh/α |
          | HOMO-LUMO GAP               1.033444349551 eV   |
           -------------------------------------------------

 * finished run on 2025/09/08 at 22:08:03.134
