   * xtb version 6.7.1 (edcfbbe) compiled by 'albert@albert-system' on 2024-07-22

   ID    Z sym.   atoms
    1    6 C      1-26, 28-39, 41-46
    2   16 S      27, 40
    3    1 H      47-72

          program call               : xtb data2507/toluene/thio-ether/thio-ether_toluene_S0_finalOpt.xtbopt.xyz --gfn 2 --uhf 2 --gbsa toluene --ohess vtight --parallel 40 --molden --ceasefiles --namespace data2507/toluene/thio-ether/thio-ether_toluene_T1_preOpt
      * Solvation model:               GBSA
        Solvent                        toluene
        Solvent mass                       9.2140E+01 g/mol
          :  Hamiltonian                  GFN2-xTB          :
 * total energy  :  -113.9221259 Eh     change       -0.4904645E-07 Eh
 * total energy  :  -113.9293868 Eh     change       -0.7260901E-02 Eh
 * total energy  :  -113.9320894 Eh     change       -0.2702511E-02 Eh
 * total energy  :  -113.9321959 Eh     change       -0.1065376E-03 Eh
 * total energy  :  -113.9322305 Eh     change       -0.3459698E-04 Eh
 * total energy  :  -113.9322361 Eh     change       -0.5605545E-05 Eh
 * total energy  :  -113.9322393 Eh     change       -0.3206616E-05 Eh
 * total energy  :  -113.9322412 Eh     change       -0.1902754E-05 Eh
 * total energy  :  -113.9322425 Eh     change       -0.1251563E-05 Eh
 * total energy  :  -113.9322434 Eh     change       -0.9891936E-06 Eh
 * total energy  :  -113.9322443 Eh     change       -0.8536527E-06 Eh
 * total energy  :  -113.9322449 Eh     change       -0.5938402E-06 Eh
 * total energy  :  -113.9322452 Eh     change       -0.2693024E-06 Eh
 * total energy  :  -113.9322453 Eh     change       -0.1287866E-06 Eh
 * total energy  :  -113.9322454 Eh     change       -0.1094007E-06 Eh
 * total energy  :  -113.9322455 Eh     change       -0.1289961E-06 Eh
 * total energy  :  -113.9322456 Eh     change       -0.1030328E-06 Eh
 * total energy  :  -113.9322457 Eh     change       -0.8771400E-07 Eh
   *** GEOMETRY OPTIMIZATION CONVERGED AFTER 18 ITERATIONS ***

 final structure:
================
72
 xtb: 6.7.1 (edcfbbe)
C           -2.25462563327802       -0.02026508545707       -3.18984602339397
C           -3.16398204773553       -0.01259420650115       -2.21015574673862
C           -2.82125077487652       -0.00149555276605       -0.73811891473275
C           -1.34792063989598       -0.00242097416934       -0.47649139712104
C           -0.44023011374456       -0.00988364861400       -1.47753893463799
C           -0.85681568592454       -0.01872176593575       -2.88734836966595
C            0.25152976429060       -0.02448459654770       -3.66888855428194
C            1.42167285840870       -0.01942104923488       -2.81337213113413
C            0.98160453308381       -0.01074143703773       -1.47439469688234
C            1.89558174060481       -0.00568584482017       -0.28038238822366
C            3.31759820018960       -0.00349833265787       -0.75195332906565
C            4.49678115038604        0.00585216808759        0.04932873213787
C            4.69794096221436        0.01777312086488        1.41917950259090
C            6.00506439795660        0.02513979763005        1.90337400558295
C            7.08992400297336        0.02067029383063        1.04008027122277
C            6.90901326945815        0.00878016694644       -0.34195514405412
C            5.61787119344878        0.00160986699218       -0.84450577402030
C            5.11454655315343       -0.00967296805618       -2.17502888149671
C            3.70983139846912       -0.01251460303450       -2.11839817651312
C            2.76226458831837       -0.02127329250809       -3.16398503575554
C            1.66692818870004       -1.29790029028581        0.49044756739727
C            1.99008301136853       -2.48037804232373       -0.17231839398054
C            1.81270955538579       -3.71584837585160        0.41785189246744
C            1.29785804329580       -3.79582629356837        1.70283625602471
C            0.96623037612589       -2.63830909994461        2.37431086204590
C            1.14940353154794       -1.39403749653942        1.77389438446190
S            0.67011497548327       -0.00495785081396        2.75405022488080
C            1.14380462967166        1.38398959302491        1.77078682814109
C            0.95637935288303        2.62879744711224        2.36870078745200
C            1.28323035238348        3.78608441972871        1.69446769113890
C            1.79723266301881        3.70529278385753        0.40920691748521
C            1.97901312761722        2.46921636098040       -0.17839942052646
C            1.66096250250324        1.28699153424321        0.48723059224222
C           -3.44194584931799       -1.25437290386157       -0.12956075945413
C           -2.65493856217444       -2.37490710136994        0.11224758285230
C           -3.20334727663994       -3.54690892778724        0.60026098698757
C           -4.56296209590672       -3.62321775185510        0.85471621697542
C           -5.36194699807379       -2.52137281726557        0.62312296923158
C           -4.80412120687688       -1.34655213428437        0.13301155224935
S           -5.90558305068999        0.00981935355989       -0.14882150294365
C           -4.79816883534517        1.36542802070652        0.11253834056809
C           -5.35096079995838        2.54979712738183        0.58505117053619
C           -4.54715302843872        3.65129528235941        0.80101003203485
C           -3.18776989342994        3.56506426943781        0.54849603142971
C           -2.64436200076652        2.38361184762078        0.07794878497079
C           -3.43635160796331        1.26327543960076       -0.14835638785954
H           -2.56085902747136       -0.02789699804731       -4.22715433249727
H           -4.22038993761655       -0.01442134585639       -2.43732334072720
H           -1.05719408438529        0.00409263825655        0.56364992506976
H            0.28934543923333       -0.03135864072886       -4.74343776395770
H            3.86376526914387        0.02158677739686        2.10486446232318
H            6.17354105248644        0.03455738651150        2.97030169769216
H            8.09158947779406        0.02650111316607        1.44431240591278
H            7.76073668287689        0.00543193070135       -1.00669485359196
H            5.70767524769878       -0.01485018411593       -3.07128796072190
H            3.07872065377982       -0.02791830747349       -4.19563339616739
H            2.38554195834293       -2.41583390589636       -1.17553162911179
H            2.07401556016885       -4.61283238713018       -0.12289860217648
H            1.15320575717260       -4.75410337480545        2.17827552552596
H            0.55863866984972       -2.67598660961466        3.37392756644642
H            0.54948574677782        2.66710159915425        3.36857572658973
H            1.13540927649692        4.74481190970254        2.16801939167424
H            2.05465451074244        4.60211882643834       -0.13367000481647
H            2.37418556185001        2.40384291200911       -1.18171713685744
H           -1.59700712572068       -2.32826911358924       -0.10147924880851
H           -2.56761951023693       -4.40187416413293        0.77343448047678
H           -5.00016295519249       -4.53497751155278        1.23260395522826
H           -6.42418240172400       -2.55592923748621        0.81396717878147
H           -6.41310961854339        2.59178898218882        0.77489357639696
H           -4.98044215373284        4.57048484743271        1.16517898227580
H           -2.54823631696468        4.41951491430983        0.70971767998037
H           -1.58644811258914        2.32917099228149       -0.13403367504823

          :  Hamiltonian                  GFN2-xTB          :
         :: gradient norm              0.000030808081 Eh/a0 ::
         :: HOMO-LUMO gap              1.033320357579 eV    ::
         :: SCC energy              -116.019693998945 Eh    ::
         :: -> dispersion             -0.124102344465 Eh    ::
         :: -> Gsolv                  -0.043103808850 Eh    ::
         :: repulsion energy           2.087448280503 Eh    ::

    * Orbital Energies and Occupations

         #    Occupation            Energy/Eh            Energy/eV
      -------------------------------------------------------------
         1        2.0000           -0.7249657             -19.7273
       ...           ...                  ...                  ...
        96        2.0000           -0.4169743             -11.3464
        97        2.0000           -0.4136987             -11.2573
        98        2.0000           -0.4124254             -11.2227
        99        2.0000           -0.4121296             -11.2146
       100        2.0000           -0.4076723             -11.0933
       101        2.0000           -0.4050279             -11.0214
       102        2.0000           -0.4004843             -10.8977
       103        2.0000           -0.3881071             -10.5609
       104        1.9997           -0.3632814              -9.8854
       105        1.9997           -0.3631386              -9.8815
       106        1.9985           -0.3616467              -9.8409
       107        1.0020           -0.3495518              -9.5118
       108        1.0000           -0.3172674              -8.6333 (HOMO)
       109                         -0.2792936              -7.6000 (LUMO)
       110                         -0.2432407              -6.6189
       111                         -0.2416987              -6.5770
       112                         -0.2348715              -6.3912
       113                         -0.2344317              -6.3792
       114                         -0.2336508              -6.3580
       115                         -0.2336429              -6.3577
       116                         -0.2303020              -6.2668
       117                         -0.2274755              -6.1899
       118                         -0.2242235              -6.1014
       119                         -0.2044720              -5.5640
       ...                                ...                  ...
       220                          0.7363939              20.0383
      -------------------------------------------------------------
                  HL-Gap            0.0379738 Eh            1.0333 eV

     #   Z          covCN         q      C6AA      α(0)
     1   6 C        2.895    -0.037    28.910     8.816
     2   6 C        2.921    -0.032    28.801     8.801
     3   6 C        3.920     0.029    20.018     6.359
     4   6 C        2.910    -0.030    28.752     8.792
     5   6 C        3.064    -0.004    28.061     8.687
     6   6 C        3.074    -0.002    28.008     8.677
     7   6 C        2.992    -0.058    29.420     8.897
     8   6 C        3.087     0.003    27.866     8.653
     9   6 C        3.065    -0.029    28.657     8.778
    10   6 C        3.920     0.030    20.013     6.358
    11   6 C        3.085     0.003    27.860     8.652
    12   6 C        3.069    -0.008    28.137     8.698
    13   6 C        2.909    -0.024    28.603     8.770
    14   6 C        2.918    -0.029    28.734     8.790
    15   6 C        2.917    -0.030    28.760     8.794
    16   6 C        2.909    -0.026    28.654     8.777
    17   6 C        3.079    -0.001    27.973     8.671
    18   6 C        2.998    -0.038    28.923     8.822
    19   6 C        3.069    -0.002    28.015     8.679
    20   6 C        2.903    -0.045    29.106     8.846
    21   6 C        3.007     0.007    27.857     8.658
    22   6 C        2.931    -0.033    28.834     8.806
    23   6 C        2.918    -0.035    28.865     8.810
    24   6 C        2.920    -0.030    28.741     8.791
    25   6 C        2.994    -0.039    28.952     8.826
    26   6 C        2.970     0.047    26.941     8.514
    27  16 S        2.148    -0.155   147.589    20.447
    28   6 C        2.970     0.047    26.941     8.514
    29   6 C        2.994    -0.039    28.952     8.826
    30   6 C        2.920    -0.030    28.741     8.791
    31   6 C        2.918    -0.035    28.864     8.810
    32   6 C        2.931    -0.033    28.832     8.806
    33   6 C        3.007     0.007    27.858     8.658
    34   6 C        3.013     0.006    27.873     8.660
    35   6 C        2.927    -0.034    28.851     8.809
    36   6 C        2.918    -0.033    28.833     8.805
    37   6 C        2.920    -0.030    28.758     8.794
    38   6 C        2.979    -0.039    28.952     8.826
    39   6 C        2.972     0.047    26.949     8.515
    40  16 S        2.132    -0.163   147.962    20.473
    41   6 C        2.972     0.047    26.949     8.515
    42   6 C        2.979    -0.039    28.952     8.826
    43   6 C        2.920    -0.030    28.758     8.794
    44   6 C        2.918    -0.033    28.834     8.806
    45   6 C        2.927    -0.034    28.852     8.809
    46   6 C        3.013     0.006    27.873     8.660
    47   1 H        0.925     0.032     2.559     2.501
    48   1 H        0.926     0.031     2.572     2.508
    49   1 H        0.926     0.031     2.570     2.507
    50   1 H        0.926     0.024     2.677     2.559
    51   1 H        0.926     0.029     2.601     2.522
    52   1 H        0.926     0.036     2.504     2.475
    53   1 H        0.926     0.037     2.483     2.464
    54   1 H        0.926     0.039     2.462     2.454
    55   1 H        0.926     0.039     2.458     2.452
    56   1 H        0.926     0.031     2.576     2.510
    57   1 H        0.926     0.037     2.485     2.465
    58   1 H        0.926     0.040     2.452     2.449
    59   1 H        0.926     0.043     2.415     2.430
    60   1 H        0.926     0.043     2.414     2.429
    61   1 H        0.926     0.043     2.414     2.430
    62   1 H        0.926     0.043     2.415     2.430
    63   1 H        0.926     0.040     2.452     2.449
    64   1 H        0.926     0.037     2.487     2.466
    65   1 H        0.926     0.036     2.507     2.476
    66   1 H        0.926     0.041     2.440     2.443
    67   1 H        0.926     0.044     2.400     2.423
    68   1 H        0.926     0.045     2.388     2.417
    69   1 H        0.926     0.045     2.388     2.417
    70   1 H        0.926     0.044     2.400     2.422
    71   1 H        0.926     0.041     2.439     2.442
    72   1 H        0.926     0.036     2.507     2.476

molecular dipole:
                 x           y           z       tot (Debye)
 q only:        0.897       0.004       0.211
   full:        1.240       0.003       0.045       3.155

 projected vibrational frequencies (cm⁻¹)
eigval :       -0.00    -0.00    -0.00    -0.00    -0.00     0.00
eigval :        6.33    18.77    28.18    33.13    36.79    37.59
eigval :       46.07    55.73    58.13    73.96    93.43   105.28
eigval :      112.05   112.26   134.94   143.83   148.65   166.62
eigval :      186.72   193.31   207.99   232.53   243.45   246.16
eigval :      270.24   273.53   276.91   297.28   306.78   325.38
eigval :      331.25   346.49   348.66   349.57   361.72   363.54
eigval :      397.38   414.81   416.63   418.02   422.25   423.30
eigval :      433.84   443.60   450.43   469.56   470.93   486.00
eigval :      488.84   494.23   498.60   501.94   509.23   519.49
eigval :      531.97   564.00   580.90   588.69   590.67   612.01
eigval :      620.50   636.00   637.43   644.03   657.21   657.80
eigval :      670.11   676.22   681.13   682.92   689.48   699.42
eigval :      699.85   707.88   712.26   734.59   735.45   760.01
eigval :      771.26   773.13   776.04   777.96   784.83   792.36
eigval :      806.42   819.11   819.61   836.14   847.44   850.35
eigval :      878.63   879.00   879.45   880.11   880.38   891.26
eigval :      894.92   898.77   907.90   913.51   913.97   914.41
eigval :      915.05   918.99   923.49   923.95   924.22   925.49
eigval :      952.36   957.05  1010.38  1032.70  1033.48  1039.23
eigval :     1046.60  1063.51  1093.83  1095.88  1096.48  1097.54
eigval :     1098.47  1101.42  1120.54  1129.35  1145.89  1146.26
eigval :     1147.09  1154.41  1159.61  1161.95  1174.72  1175.61
eigval :     1176.39  1177.17  1179.32  1191.11  1194.19  1195.31
eigval :     1207.92  1209.57  1220.44  1220.87  1243.27  1245.54
eigval :     1249.27  1252.61  1253.57  1262.93  1279.77  1298.80
eigval :     1315.92  1319.22  1320.54  1324.19  1327.92  1352.91
eigval :     1360.60  1381.10  1387.77  1398.51  1405.73  1410.28
eigval :     1415.48  1434.12  1445.30  1447.99  1454.61  1456.26
eigval :     1461.08  1469.64  1497.29  1538.98  1562.91  1565.55
eigval :     1573.35  1574.27  1575.67  1578.83  1580.04  1586.09
eigval :     1586.73  1592.21  1606.40  1634.15  3056.64  3071.25
eigval :     3075.71  3076.81  3077.51  3077.78  3079.25  3079.47
eigval :     3081.62  3081.87  3082.15  3082.40  3083.12  3083.91
eigval :     3088.49  3088.75  3089.37  3089.69  3090.14  3091.70
eigval :     3097.66  3098.18  3098.31  3098.81  3127.86  3133.30

   temp. (K)  partition function   enthalpy   heat capacity  entropy
                                   cal/mol     cal/K/mol   cal/K/mol   J/K/mol
 298.15  VIB  0.158E+16            20625.981    134.890    125.806
         ROT  0.472E+08              888.752      2.981     38.096
         INT  0.746E+23            21514.733    137.871    163.901
         TR   0.149E+29             1481.254      4.968     45.130
         TOT                       22995.9874   142.8394   209.0319   874.5893

       T/K    H(0)-H(T)+PV         H(T)/Eh          T*S/Eh         G(T)/Eh
   ------------------------------------------------------------------------
    298.15    0.366464E-01    0.572100E+00    0.993178E-01    0.472782E+00
   ------------------------------------------------------------------------

         :::::::::::::::::::::::::::::::::::::::::::::::::::::
         ::                  THERMODYNAMIC                  ::
         :::::::::::::::::::::::::::::::::::::::::::::::::::::
         :: total free energy        -113.459463731993 Eh   ::
         ::.................................................::
         :: total energy             -113.932245718952 Eh   ::
         :: zero point energy           0.535453330700 Eh   ::
         :: G(RRHO) w/o ZPVE           -0.062671343741 Eh   ::
         :: G(RRHO) contrib.            0.472781986959 Eh   ::
         :::::::::::::::::::::::::::::::::::::::::::::::::::::

           -------------------------------------------------
          | TOTAL ENERGY             -113.932245718952 Eh   |
          | TOTAL ENTHALPY           -113.360145949749 Eh   |
          | TOTAL FREE ENERGY        -113.459463731993 Eh   |
          | GRADIENT NORM               0.000030891578 Eh/α |
          | HOMO-LUMO GAP               1.033318831948 eV   |
           -------------------------------------------------

 * finished run on 2025/09/08 at 22:03:35.890
