   * xtb version 6.7.1 (edcfbbe) compiled by 'albert@albert-system' on 2024-07-22

   ID    Z sym.   atoms
    1    8 O      1, 14, 30, 42
    2    6 C      2-6, 8-13, 15-29, 31-34, 36-41, 43-50
    3    7 N      7, 35
    4    1 H      51-78

          program call               : xtb data2507/gas/o-Px2BBP/o-Px2BBP.xyz --gfn 2 --ohess vtight --parallel 40 --molden --ceasefiles --namespace data2507/gas/o-Px2BBP/o-Px2BBP_gas_S0_preOpt
          :  Hamiltonian                  GFN2-xTB          :
 * total energy  :  -130.6031583 Eh     change       -0.2091724E-08 Eh
 * total energy  :  -130.6153404 Eh     change       -0.1218208E-01 Eh
 * total energy  :  -130.6194964 Eh     change       -0.4155975E-02 Eh
 * total energy  :  -130.6209059 Eh     change       -0.1409491E-02 Eh
 * total energy  :  -130.6220903 Eh     change       -0.1184466E-02 Eh
 * total energy  :  -130.6227044 Eh     change       -0.6140584E-03 Eh
 * total energy  :  -130.6229651 Eh     change       -0.2606824E-03 Eh
 * total energy  :  -130.6230818 Eh     change       -0.1167491E-03 Eh
 * total energy  :  -130.6231470 Eh     change       -0.6514464E-04 Eh
 * total energy  :  -130.6231957 Eh     change       -0.4872581E-04 Eh
 * total energy  :  -130.6273816 Eh     change       -0.2169267E-06 Eh
 * total energy  :  -130.6273819 Eh     change       -0.2721813E-06 Eh
 * total energy  :  -130.6273822 Eh     change       -0.3079779E-06 Eh
 * total energy  :  -130.6273825 Eh     change       -0.3158343E-06 Eh
 * total energy  :  -130.6273828 Eh     change       -0.2607857E-06 Eh
 * total energy  :  -130.6273830 Eh     change       -0.2070130E-06 Eh
 * total energy  :  -130.6273832 Eh     change       -0.2135326E-06 Eh
 * total energy  :  -130.6273834 Eh     change       -0.2123475E-06 Eh
 * total energy  :  -130.6273834 Eh     change       -0.3159499E-08 Eh
   *** GEOMETRY OPTIMIZATION CONVERGED AFTER 94 ITERATIONS ***

 final structure:
================
78
 xtb: 6.7.1 (edcfbbe)
O           -0.33928277631154       -0.11149268820578        1.35830402126453
C           -1.07696419080682        0.67201506595911        0.79500340315400
C           -2.50568933650122        0.39210989338127        0.55099429344610
C           -3.23942550993207        1.08845622473217       -0.40929619887786
C           -4.56260686367878        0.77215277415967       -0.63555863400517
C           -5.17984513150885       -0.24034342419360        0.09845042380550
N           -6.53134232932650       -0.55552686035556       -0.13221913746021
C           -6.95138666614914       -1.00915997369351       -1.38754209879061
C           -6.06268568103791       -1.23556465728181       -2.43115612405244
C           -6.51310822824339       -1.68959814095187       -3.66131249115206
C           -7.85537569052168       -1.93719088389319       -3.86588077233902
C           -8.75037785172871       -1.75134680748048       -2.82313927054997
C           -8.30599180314896       -1.30100959103000       -1.59366414686585
O           -9.24655897342491       -1.17760917331889       -0.60167902776084
C           -8.81591403890588       -0.75396437356458        0.62987883900422
C           -9.77388759054979       -0.63692517206809        1.62004103964880
C           -9.42558529158115       -0.17829789485835        2.88157232118224
C           -8.11755208692105        0.18018057026476        3.13633679489342
C           -7.15250483817590        0.06187482959948        2.14777437470341
C           -7.47749913696442       -0.42952949644712        0.88947420303476
C           -4.44755631378506       -0.94233478585489        1.05554013531814
C           -3.12236122677368       -0.63326803847378        1.26988559379292
C           -0.56600210983506        1.99686751588709        0.33425487764992
C           -1.14551760323183        3.18523146414268        0.76294253232653
C           -0.58412925304234        4.39835903509342        0.40559619182408
C            0.55684675929734        4.43298493200435       -0.38098341429459
C            1.14322227178293        3.25449334318922       -0.80804542165695
C            0.58910839777790        2.03180907907266       -0.44940983111747
C            1.13114624609439        0.74734403149718       -0.98722180213955
O            0.42994296704178        0.01431673603570       -1.65466251107911
C            2.54451082253909        0.44869573287722       -0.68535789415064
C            3.19064341506869       -0.54980909015334       -1.41634554280789
C            4.50245410350038       -0.87613566432276       -1.15202101093491
C            5.19151382159498       -0.21808382580557       -0.13350616362218
N            6.52946457456828       -0.55033898125980        0.14664410369133
C            6.88962916810181       -1.05516979377398        1.40099044489350
C            5.95326320802810       -1.31577836656326        2.39372019824771
C            6.34507696161216       -1.82017638083199        3.62432872237691
C            7.67538516784159       -2.08467834365832        3.87959358971374
C            8.61776492510031       -1.86477255896285        2.88639793295478
C            8.23197179339738       -1.36415816735848        1.65658722134246
O            9.21730456110109       -1.20915700971438        0.71369089151805
C            8.84573684604323       -0.73253864197368       -0.51775923573434
C            9.84873643753500       -0.58139422163313       -1.45743734181352
C            9.56093501396771       -0.06918110223515       -2.71358833262926
C            8.26771117891799        0.30821102590229       -3.01280876140260
C            7.25774903666617        0.15596437969704       -2.07509198985717
C            7.52222603797604       -0.38887089554994       -0.82461924638158
C            4.54462910193723        0.76791669201418        0.61103040779546
C            3.23488293896075        1.10089032659185        0.33613586080610
H           -2.76738680194405        1.86678341516610       -0.98962449988682
H           -5.13332506842494        1.30968070072452       -1.37851618163952
H           -5.00802742195324       -1.06672590825848       -2.28147519204645
H           -5.80011543802020       -1.85151754085796       -4.45479381931629
H           -8.21139501568191       -2.28573940115120       -4.82238728089966
H           -9.80226801857657       -1.95700835411457       -2.94088614041232
H          -10.79034431528869       -0.90464708655205        1.37976534490596
H          -10.17910695587614       -0.09333273922867        3.64843166419895
H           -7.83395762277399        0.55967385220378        4.10592004432350
H           -6.13821499005634        0.36357934682952        2.35679775363303
H           -4.92347657068756       -1.73731933070644        1.61045755951109
H           -2.53563449997112       -1.18018660764765        1.99266383229564
H           -2.02723634806121        3.15319181392461        1.38649042581318
H           -1.03665358307157        5.31937520532861        0.74144198812288
H            0.99038688052237        5.38110064904818       -0.66200376203835
H            2.02601497070257        3.27701673077730       -1.43047293554447
H            2.63632251523590       -1.06255361235613       -2.18809532677383
H            5.00081098770200       -1.65097912554112       -1.71568408669706
H            4.90734555194161       -1.13430064729984        2.20313230025350
H            5.59596783524864       -2.00784338041072        4.37786352172481
H            7.98583711478642       -2.47236343449087        4.83692250361062
H            9.66215589542846       -2.08210548451796        3.04341716639493
H           10.85179204715098       -0.86553569053831       -1.18223316581041
H           10.34926842979548        0.04212380522049       -3.44107147890976
H            8.03074710984844        0.72909772910934       -3.97781057980200
H            6.25561590248317        0.47281982195975       -2.31759654152725
H            5.08223212513472        1.27204297636744        1.40066382619587
H            2.73993704988978        1.85920365077692        0.92382104347783

          :  Hamiltonian                  GFN2-xTB          :
         :: gradient norm              0.000040877543 Eh/a0 ::
         :: HOMO-LUMO gap              1.458444683907 eV    ::
         :: SCC energy              -132.846077950732 Eh    ::
         :: -> dispersion             -0.107899664037 Eh    ::
         :: repulsion energy           2.218694547336 Eh    ::

    * Orbital Energies and Occupations

         #    Occupation            Energy/Eh            Energy/eV
      -------------------------------------------------------------
         1        2.0000           -0.7285289             -19.8243
       ...           ...                  ...                  ...
       107        2.0000           -0.4211605             -11.4604
       108        2.0000           -0.4197189             -11.4211
       109        2.0000           -0.4192417             -11.4081
       110        2.0000           -0.4162332             -11.3263
       111        2.0000           -0.4159885             -11.3196
       112        2.0000           -0.4131410             -11.2421
       113        2.0000           -0.4128658             -11.2347
       114        2.0000           -0.3969964             -10.8028
       115        2.0000           -0.3906610             -10.6304
       116        2.0000           -0.3904111             -10.6236
       117        2.0000           -0.3901668             -10.6170
       118        2.0000           -0.3445528              -9.3758
       119        2.0000           -0.3442845              -9.3685 (HOMO)
       120                         -0.2906876              -7.9100 (LUMO)
       121                         -0.2879153              -7.8346
       122                         -0.2468810              -6.7180
       123                         -0.2464214              -6.7055
       124                         -0.2414102              -6.5691
       125                         -0.2407341              -6.5507
       126                         -0.2387088              -6.4956
       127                         -0.2384395              -6.4883
       128                         -0.2299900              -6.2583
       129                         -0.2297300              -6.2513
       130                         -0.2173698              -5.9149
       ...                                ...                  ...
       228                          0.6814047              18.5420
      -------------------------------------------------------------
                  HL-Gap            0.0535968 Eh            1.4584 eV

     #   Z          covCN         q      C6AA      α(0)
     1   8 O        0.858    -0.370    21.098     6.158
     2   6 C        2.828     0.236    23.075     7.871
     3   6 C        2.972    -0.012    28.321     8.729
     4   6 C        2.920    -0.023    28.571     8.765
     5   6 C        2.920    -0.040    28.988     8.829
     6   6 C        2.922     0.073    26.370     8.421
     7   7 N        2.751    -0.068    22.556     7.054
     8   6 C        2.922     0.042    27.061     8.531
     9   6 C        2.924    -0.059    29.466     8.902
    10   6 C        2.919    -0.038    28.941     8.822
    11   6 C        2.919    -0.039    28.977     8.827
    12   6 C        2.920    -0.056    29.388     8.890
    13   6 C        2.884     0.125    25.258     8.239
    14   8 O        1.709    -0.254    18.204     5.761
    15   6 C        2.884     0.125    25.248     8.238
    16   6 C        2.920    -0.056    29.391     8.890
    17   6 C        2.919    -0.040    28.986     8.829
    18   6 C        2.919    -0.039    28.960     8.825
    19   6 C        2.924    -0.060    29.490     8.905
    20   6 C        2.922     0.042    27.058     8.530
    21   6 C        2.919    -0.039    28.976     8.827
    22   6 C        2.924    -0.016    28.420     8.742
    23   6 C        2.977    -0.002    28.071     8.691
    24   6 C        2.920    -0.026    28.656     8.778
    25   6 C        2.919    -0.026    28.645     8.777
    26   6 C        2.919    -0.025    28.633     8.775
    27   6 C        2.920    -0.026    28.655     8.778
    28   6 C        2.977    -0.001    28.040     8.686
    29   6 C        2.828     0.237    23.056     7.868
    30   8 O        0.858    -0.370    21.084     6.156
    31   6 C        2.972    -0.012    28.309     8.727
    32   6 C        2.924    -0.016    28.413     8.741
    33   6 C        2.919    -0.039    28.975     8.827
    34   6 C        2.922     0.073    26.368     8.421
    35   7 N        2.751    -0.068    22.554     7.053
    36   6 C        2.922     0.042    27.060     8.531
    37   6 C        2.924    -0.059    29.466     8.902
    38   6 C        2.919    -0.038    28.941     8.822
    39   6 C        2.919    -0.039    28.979     8.828
    40   6 C        2.920    -0.056    29.389     8.890
    41   6 C        2.884     0.125    25.258     8.239
    42   8 O        1.709    -0.254    18.205     5.761
    43   6 C        2.884     0.125    25.248     8.238
    44   6 C        2.920    -0.056    29.391     8.890
    45   6 C        2.919    -0.040    28.986     8.829
    46   6 C        2.919    -0.039    28.959     8.825
    47   6 C        2.924    -0.060    29.490     8.905
    48   6 C        2.922     0.042    27.058     8.530
    49   6 C        2.920    -0.040    28.987     8.829
    50   6 C        2.920    -0.022    28.560     8.764
    51   1 H        0.926     0.046     2.368     2.407
    52   1 H        0.926     0.047     2.362     2.404
    53   1 H        0.926     0.039     2.464     2.455
    54   1 H        0.926     0.039     2.465     2.455
    55   1 H        0.926     0.039     2.459     2.452
    56   1 H        0.926     0.051     2.306     2.375
    57   1 H        0.926     0.051     2.304     2.374
    58   1 H        0.926     0.039     2.464     2.455
    59   1 H        0.926     0.036     2.496     2.471
    60   1 H        0.926     0.034     2.524     2.484
    61   1 H        0.926     0.049     2.336     2.390
    62   1 H        0.926     0.064     2.149     2.293
    63   1 H        0.926     0.040     2.452     2.449
    64   1 H        0.926     0.043     2.414     2.430
    65   1 H        0.926     0.043     2.411     2.428
    66   1 H        0.926     0.040     2.452     2.449
    67   1 H        0.926     0.065     2.141     2.288
    68   1 H        0.926     0.049     2.336     2.390
    69   1 H        0.926     0.039     2.460     2.453
    70   1 H        0.926     0.039     2.466     2.456
    71   1 H        0.926     0.039     2.461     2.453
    72   1 H        0.926     0.051     2.307     2.375
    73   1 H        0.926     0.051     2.305     2.374
    74   1 H        0.926     0.039     2.464     2.455
    75   1 H        0.926     0.037     2.496     2.470
    76   1 H        0.926     0.035     2.521     2.483
    77   1 H        0.926     0.046     2.365     2.405
    78   1 H        0.926     0.046     2.374     2.410

molecular dipole:
                 x           y           z       tot (Debye)
 q only:       -0.022       1.302       0.080
   full:       -0.028       1.527       0.090       3.887

 projected vibrational frequencies (cm⁻¹)
eigval :       -0.00    -0.00     0.00     0.00     0.00     0.00
eigval :       -2.84     6.35     9.60    15.58    23.12    26.63
eigval :       33.19    34.52    39.91    50.15    58.03    65.53
eigval :       71.23    78.59   102.85   118.20   119.06   120.44
eigval :      123.79   148.50   156.97   165.19   177.09   199.98
eigval :      204.81   221.12   245.01   249.03   254.69   266.06
eigval :      276.14   276.18   290.66   303.74   314.83   322.52
eigval :      351.80   363.83   374.98   375.45   377.30   387.30
eigval :      392.64   398.09   419.59   420.37   430.87   431.21
eigval :      445.92   447.01   460.38   469.98   477.56   479.65
eigval :      509.80   509.87   522.78   522.80   539.00   544.34
eigval :      557.75   559.59   585.60   585.62   590.25   591.70
eigval :      610.19   610.79   621.07   640.57   653.68   660.02
eigval :      660.33   661.85   661.91   665.86   669.22   682.21
eigval :      704.20   724.41   731.59   743.55   755.31   779.08
eigval :      779.10   780.13   780.24   786.33   802.57   803.32
eigval :      826.41   827.58   855.74   855.77   864.00   864.05
eigval :      867.87   867.97   877.76   878.08   889.02   891.49
eigval :      897.96   897.99   899.29   899.43   900.59   914.53
eigval :      914.55   915.58   915.66   917.72   917.75   920.03
eigval :      928.48   928.65   931.70   935.22   935.27   936.70
eigval :      951.52  1016.43  1021.35  1089.30  1090.67  1090.68
eigval :     1091.73  1091.77  1103.27  1108.83  1108.85  1121.21
eigval :     1121.36  1131.74  1131.83  1170.17  1170.83  1171.08
eigval :     1175.52  1175.53  1177.60  1180.36  1183.31  1186.48
eigval :     1191.59  1201.11  1202.35  1202.36  1223.30  1227.39
eigval :     1243.13  1243.20  1243.60  1253.69  1261.78  1261.90
eigval :     1262.34  1262.41  1269.56  1310.42  1310.66  1310.71
eigval :     1312.24  1315.62  1322.05  1322.54  1338.61  1338.74
eigval :     1354.85  1355.08  1405.84  1406.21  1421.94  1424.41
eigval :     1424.47  1442.65  1442.68  1452.72  1472.79  1472.88
eigval :     1486.91  1487.17  1504.43  1504.57  1555.66  1555.95
eigval :     1568.09  1568.11  1568.58  1579.77  1580.44  1580.48
eigval :     1582.19  1583.19  1591.03  1591.05  1602.75  1602.76
eigval :     1688.73  1700.19  3077.67  3079.33  3084.72  3084.93
eigval :     3087.07  3087.21  3087.81  3089.45  3089.49  3091.34
eigval :     3091.42  3096.35  3096.59  3096.91  3098.98  3099.05
eigval :     3099.41  3099.44  3100.28  3100.32  3106.34  3106.46
eigval :     3108.63  3108.71  3113.30  3113.35  3113.87  3113.91

   temp. (K)  partition function   enthalpy   heat capacity  entropy
                                   cal/mol     cal/K/mol   cal/K/mol   J/K/mol
 298.15  VIB  0.104E+21            23339.520    144.856    147.947
         ROT  0.128E+09              888.752      2.981     40.076
         INT  0.132E+29            24228.273    147.837    188.024
         TR   0.160E+29             1481.254      4.968     45.271
         TOT                       25709.5267   152.8050   233.2948   976.1055

       T/K    H(0)-H(T)+PV         H(T)/Eh          T*S/Eh         G(T)/Eh
   ------------------------------------------------------------------------
    298.15    0.409707E-01    0.623519E+00    0.110846E+00    0.512673E+00
   ------------------------------------------------------------------------

         :::::::::::::::::::::::::::::::::::::::::::::::::::::
         ::                  THERMODYNAMIC                  ::
         :::::::::::::::::::::::::::::::::::::::::::::::::::::
         :: total free energy        -130.114710416694 Eh   ::
         ::.................................................::
         :: total energy             -130.627383403401 Eh   ::
         :: zero point energy           0.582548136419 Eh   ::
         :: G(RRHO) w/o ZPVE           -0.069875149713 Eh   ::
         :: G(RRHO) contrib.            0.512672986706 Eh   ::
         :::::::::::::::::::::::::::::::::::::::::::::::::::::

           -------------------------------------------------
          | TOTAL ENERGY             -130.627383403401 Eh   |
          | TOTAL ENTHALPY           -130.003864528352 Eh   |
          | TOTAL FREE ENERGY        -130.114710416694 Eh   |
          | GRADIENT NORM               0.000040876059 Eh/α |
          | HOMO-LUMO GAP               1.458444168046 eV   |
           -------------------------------------------------

 * finished run on 2025/08/23 at 05:48:44.416
