   * xtb version 6.7.1 (edcfbbe) compiled by 'albert@albert-system' on 2024-07-22

   ID    Z sym.   atoms
    1    8 O      1, 14, 30, 42
    2    6 C      2-6, 8-13, 15-29, 31-34, 36-41, 43-50
    3    7 N      7, 35
    4    1 H      51-78

          program call               : xtb data2507/gas/o-Px2BBP/o-Px2BBP_gas_T1_crest.xyz --gfn 2 --spinpol --tblite --uhf 2 --ohess vtight --parallel 40 --molden --ceasefiles --namespace data2507/gas/o-Px2BBP/o-Px2BBP_gas_T1_finalOpt
 * total energy  :  -130.5743219 Eh     change       -0.5619714E-07 Eh
 * total energy  :  -130.5743261 Eh     change       -0.4190334E-05 Eh
 * total energy  :  -130.5743284 Eh     change       -0.2393127E-05 Eh
 * total energy  :  -130.5743299 Eh     change       -0.1461962E-05 Eh
 * total energy  :  -130.5743334 Eh     change       -0.3457523E-05 Eh
 * total energy  :  -130.5743368 Eh     change       -0.3398018E-05 Eh
 * total energy  :  -130.5743405 Eh     change       -0.3709673E-05 Eh
 * total energy  :  -130.5743452 Eh     change       -0.4732428E-05 Eh
 * total energy  :  -130.5743511 Eh     change       -0.5909315E-05 Eh
 * total energy  :  -130.5743558 Eh     change       -0.4701349E-05 Eh
 * total energy  :  -130.5743694 Eh     change       -0.3773609E-06 Eh
 * total energy  :  -130.5743698 Eh     change       -0.3987391E-06 Eh
 * total energy  :  -130.5743703 Eh     change       -0.4684583E-06 Eh
 * total energy  :  -130.5743706 Eh     change       -0.3502774E-06 Eh
 * total energy  :  -130.5743710 Eh     change       -0.3130805E-06 Eh
 * total energy  :  -130.5743712 Eh     change       -0.2201085E-06 Eh
 * total energy  :  -130.5743716 Eh     change       -0.3978466E-06 Eh
 * total energy  :  -130.5743718 Eh     change       -0.1834523E-06 Eh
 * total energy  :  -130.5743719 Eh     change       -0.9411008E-07 Eh
   *** GEOMETRY OPTIMIZATION CONVERGED AFTER 36 ITERATIONS ***

 final structure:
================
78
 xtb: 6.7.1 (edcfbbe)
O           -1.33001789813155       -2.32468900681122       -2.09712507023608
C           -0.34336725149976       -2.64493405724367       -1.42377966938287
C            0.79478440736403       -1.74186824190331       -1.22350210874375
C            2.08746995710456       -2.21318539445362       -0.94448916895608
C            3.10467185525011       -1.33673594310810       -0.66537324127465
C            2.86354034119418        0.04005445393411       -0.68060984652887
N            3.88545407467107        0.93238067486233       -0.26749777757632
C            4.48230239730357        1.79727745773346       -1.16568950340897
C            4.15883271284193        1.79414705368039       -2.52181097718174
C            4.77451036414690        2.67398676344712       -3.39225776995195
C            5.72711312812589        3.56804990385811       -2.93159276174305
C            6.07621154165814        3.57270902499159       -1.59127070911979
C            5.46619329355389        2.69419914268439       -0.71162115628266
O            5.86379757885628        2.73276344288047        0.59384863887395
C            5.28117928360443        1.85278076411951        1.46601478785172
C            5.70336473686552        1.89602032412767        2.78421321823104
C            5.14044204647345        1.04444472147603        3.71987258826939
C            4.14932829334713        0.15664858323425        3.33340759239529
C            3.72033457517284        0.10436229364840        2.02018138671406
C            4.28679772341314        0.94427261771227        1.06151942590918
C            1.61800588452965        0.52512571252813       -1.06995367567787
C            0.60105484155840       -0.35578704349702       -1.35587207157331
C           -0.22045821556577       -3.95569407286785       -0.75204970083133
C           -0.51627798802959       -5.15002117312818       -1.40140969469665
C           -0.25686198889160       -6.35413760343127       -0.77729750738428
C            0.30073511123948       -6.37923061827784        0.49801097442280
C            0.55170192766152       -5.20082789197889        1.17257258146371
C            0.24726630857242       -3.98223580644041        0.57430385740449
C            0.36111005226409       -2.70069492253456        1.30155626881017
O            1.34577888277881       -2.40321268455795        1.98826155951425
C           -0.78329617644110       -1.79770026253555        1.14118710185400
C           -2.07251983851867       -2.26460101015382        0.83972343382898
C           -3.09573289589766       -1.38330420929788        0.60058518855873
C           -2.86434990553649       -0.00708226699638        0.67993059621174
N           -3.89284058876345        0.89640743012940        0.30924846748637
C           -4.29226942383289        0.97076483074132       -1.01824682469141
C           -3.71826728579035        0.18301663062994       -2.01588488792431
C           -4.14504861743265        0.29725984361761       -3.32591158742653
C           -5.14155081116273        1.19629943815011       -3.67021667622893
C           -5.71256207219198        1.99635024818704       -2.69480309754344
C           -5.29266593027329        1.89084722215976       -1.37940253926757
O           -5.88371897861600        2.72191656883165       -0.46586666635941
C           -5.48873363878399        2.62102841280651        0.83712073642072
C           -6.10795748453430        3.44912315891134        1.75824930304506
C           -5.76141985859013        3.38018797044137        3.09748741432213
C           -4.80188037446788        2.47246459448754        3.51499614097062
C           -4.17705643241745        1.64255255212705        2.60300431678484
C           -4.49831426707393        1.71063787317707        1.24809329890014
C           -1.62229132594940        0.46824441979778        1.09160690864835
C           -0.59915172136657       -0.41778164222801        1.33678875010912
H            2.28041317071565       -3.27504021429381       -0.92763909163862
H            4.09226368093485       -1.69890703364090       -0.42117194670962
H            3.42610021139204        1.09102943958292       -2.88454828373644
H            4.50861146101618        2.65624928784731       -4.43765313137653
H            6.20518880713233        4.25537972550565       -3.61118262390418
H            6.82336275170059        4.24755364678161       -1.20566676187739
H            6.46998689415758        2.60490956733604        3.05333091402546
H            5.47406443163429        1.08122484596090        4.74488169128330
H            3.69745005012280       -0.50673703931132        4.05335289188123
H            2.94961362337150       -0.59860673597236        1.74532301260608
H            1.45113738713294        1.59218598068150       -1.11429182925176
H           -0.37434905744894        0.00199872784413       -1.64737655048080
H           -0.91612240568750       -5.11577097149786       -2.40424212290475
H           -0.46972625363249       -7.28202834074774       -1.28802173103882
H            0.52028001120545       -7.32637961197313        0.96901241668329
H            0.95151661815989       -5.20612776703710        2.17598837493811
H           -2.25816024675140       -3.32584134097695        0.77386456121510
H           -4.08063514730344       -1.74067317620824        0.33907372584987
H           -2.94361644934236       -0.52768346104705       -1.77392248063494
H           -3.68729589204582       -0.32659146989876       -4.07682896425962
H           -5.47333554805868        1.28155385199687       -4.69293218517701
H           -6.48388323339546        2.71209630141218       -2.93023813119533
H           -6.86008029509385        4.13615159615210        1.40519663598095
H           -6.24670927252986        4.02848275472684        3.80955061443286
H           -4.53760385498854        2.40484498272139        4.55876521307269
H           -3.43877820237847        0.92855016001093        2.93164524682226
H           -1.46310500003634        1.53326676388367        1.18552545319149
H            0.37374646851707       -0.06707547937741        1.64482233939182

 projected vibrational frequencies (cm⁻¹)
eigval :       -0.00    -0.00    -0.00    -0.00     0.00     0.00
eigval :       11.17    13.50    14.32    26.45    32.06    34.64
eigval :       47.85    49.31    57.96    61.05    64.09    68.79
eigval :       88.94    95.07   112.13   117.84   124.48   136.42
eigval :      137.86   157.11   165.18   175.48   181.39   209.81
eigval :      219.26   229.92   244.66   244.82   252.02   258.71
eigval :      274.75   276.63   286.02   299.04   326.58   331.76
eigval :      369.50   370.02   379.00   379.74   389.57   395.31
eigval :      396.87   399.66   417.58   419.28   433.77   433.89
eigval :      448.71   449.50   459.03   465.50   467.74   474.27
eigval :      499.75   499.78   523.30   527.37   529.48   538.13
eigval :      542.96   545.53   580.39   582.03   588.70   590.37
eigval :      603.09   605.39   610.78   625.58   627.00   644.27
eigval :      666.13   667.22   670.00   670.91   671.05   674.47
eigval :      675.72   683.97   716.88   725.33   746.46   777.38
eigval :      777.75   778.02   785.17   785.40   798.61   799.51
eigval :      804.20   807.37   850.53   852.52   855.32   855.38
eigval :      867.25   867.45   877.03   880.17   880.32   883.03
eigval :      894.68   900.07   900.24   905.25   906.17   908.83
eigval :      909.07   910.69   915.40   915.59   916.47   916.70
eigval :      918.07   918.16   919.24   927.97   931.33   931.72
eigval :      944.87  1005.23  1008.76  1075.93  1083.60  1083.64
eigval :     1084.39  1084.87  1090.29  1114.78  1114.90  1122.59
eigval :     1122.75  1129.79  1131.97  1142.50  1167.29  1168.22
eigval :     1170.46  1172.62  1172.89  1173.15  1178.49  1184.93
eigval :     1189.34  1202.59  1206.36  1208.13  1211.16  1223.38
eigval :     1227.63  1236.95  1237.32  1238.52  1242.25  1251.93
eigval :     1252.32  1260.95  1261.50  1306.42  1306.66  1315.11
eigval :     1315.38  1317.17  1317.20  1327.07  1333.13  1335.35
eigval :     1344.94  1346.58  1409.43  1410.85  1418.08  1419.07
eigval :     1419.92  1423.86  1427.08  1440.10  1440.28  1440.74
eigval :     1442.61  1452.61  1463.16  1477.31  1480.23  1504.04
eigval :     1507.28  1544.18  1554.13  1554.78  1554.85  1561.81
eigval :     1563.10  1563.19  1571.93  1573.27  1574.68  1584.26
eigval :     1585.35  1599.99  3069.98  3070.59  3071.13  3078.32
eigval :     3082.52  3082.54  3087.04  3090.75  3095.45  3095.52
eigval :     3095.71  3096.17  3097.82  3097.86  3098.33  3098.70
eigval :     3103.93  3104.01  3106.39  3106.42  3111.76  3111.84
eigval :     3112.25  3112.45  3115.70  3115.88  3116.28  3116.78

   temp. (K)  partition function   enthalpy   heat capacity  entropy
                                   cal/mol     cal/K/mol   cal/K/mol   J/K/mol
 298.15  VIB  0.393E+18            23119.815    147.448    142.925
         ROT  0.414E+08              888.752      2.981     37.837
         INT  0.163E+26            24008.567    150.429    180.763
         TR   0.160E+29             1481.254      4.968     45.271
         TOT                       25489.8211   155.3971   226.0335   945.7241

       T/K    H(0)-H(T)+PV         H(T)/Eh          T*S/Eh         G(T)/Eh
   ------------------------------------------------------------------------
    298.15    0.406206E-01    0.620379E+00    0.107396E+00    0.512983E+00
   ------------------------------------------------------------------------

         :::::::::::::::::::::::::::::::::::::::::::::::::::::
         ::                  THERMODYNAMIC                  ::
         :::::::::::::::::::::::::::::::::::::::::::::::::::::
         :: total free energy        -130.061388361982 Eh   ::
         ::.................................................::
         :: total energy             -130.574371853900 Eh   ::
         :: zero point energy           0.579758677479 Eh   ::
         :: G(RRHO) w/o ZPVE           -0.066775185560 Eh   ::
         :: G(RRHO) contrib.            0.512983491918 Eh   ::
         :::::::::::::::::::::::::::::::::::::::::::::::::::::

           -------------------------------------------------
          | TOTAL ENERGY             -130.574371853900 Eh   |
          | TOTAL ENTHALPY           -129.953992560925 Eh   |
          | TOTAL FREE ENERGY        -130.061388361982 Eh   |
          | GRADIENT NORM               0.000083249640 Eh/α |
           -------------------------------------------------

 * finished run on 2025/08/23 at 05:59:09.945
