   * xtb version 6.7.1 (edcfbbe) compiled by 'albert@albert-system' on 2024-07-22

   ID    Z sym.   atoms
    1    8 O      1, 14, 30, 42
    2    6 C      2-6, 8-13, 15-29, 31-34, 36-41, 43-50
    3    7 N      7, 35
    4    1 H      51-78

          program call               : xtb data2507/gas/o-Px2BBP/o-Px2BBP_gas_S0_finalOpt.xtbopt.xyz --gfn 2 --spinpol --tblite --uhf 2 --ohess vtight --parallel 40 --molden --ceasefiles --namespace data2507/gas/o-Px2BBP/o-Px2BBP_gas_T1_preOpt
 * total energy  :  -130.5665694 Eh     change        0.3380686E-07 Eh
 * total energy  :  -130.5696024 Eh     change       -0.3032937E-02 Eh
 * total energy  :  -130.5705342 Eh     change       -0.9317983E-03 Eh
 * total energy  :  -130.5707211 Eh     change       -0.1869140E-03 Eh
 * total energy  :  -130.5708896 Eh     change       -0.1685338E-03 Eh
 * total energy  :  -130.5709918 Eh     change       -0.1022159E-03 Eh
 * total energy  :  -130.5710840 Eh     change       -0.9218208E-04 Eh
 * total energy  :  -130.5711579 Eh     change       -0.7390996E-04 Eh
 * total energy  :  -130.5712202 Eh     change       -0.6224864E-04 Eh
 * total energy  :  -130.5712699 Eh     change       -0.4977115E-04 Eh
 * total energy  :  -130.5715548 Eh     change       -0.3009754E-05 Eh
 * total energy  :  -130.5715572 Eh     change       -0.2332286E-05 Eh
 * total energy  :  -130.5715589 Eh     change       -0.1697730E-05 Eh
 * total energy  :  -130.5715601 Eh     change       -0.1194235E-05 Eh
 * total energy  :  -130.5715610 Eh     change       -0.9323827E-06 Eh
 * total energy  :  -130.5715617 Eh     change       -0.6917185E-06 Eh
 * total energy  :  -130.5715623 Eh     change       -0.5791732E-06 Eh
 * total energy  :  -130.5715626 Eh     change       -0.3619888E-06 Eh
 * total energy  :  -130.5715627 Eh     change       -0.4478940E-07 Eh
   *** GEOMETRY OPTIMIZATION CONVERGED AFTER 44 ITERATIONS ***

 final structure:
================
78
 xtb: 6.7.1 (edcfbbe)
O           -6.04697079265519       -0.98671432182284        1.04982844945236
C           -5.16258074530666       -0.35683351573380        0.49709962629850
C           -3.73832280859191       -0.79655239810997        0.55828941871183
C           -3.18802015903321       -1.25099047750456        1.75667024157240
C           -1.89978094869169       -1.74762171302160        1.79293782644801
C           -1.15220381387320       -1.82842526961917        0.62296499691187
N            0.15500668869778       -2.38668911478690        0.62086233137422
C            0.39434768278500       -3.55768725674250       -0.08730765416292
C           -0.63889705015167       -4.32046229609051       -0.62653544014623
C           -0.36627011344240       -5.48027565641364       -1.32998823739655
C            0.93899008215309       -5.90673014028278       -1.50290602065428
C            1.97800811067136       -5.17454295928790       -0.95221650161046
C            1.71310703535895       -4.01441366423655       -0.24513045678452
O            2.78262901447182       -3.34570088480428        0.28297486819228
C            2.52522696606691       -2.23832076234959        1.04032065577231
C            3.61474468397768       -1.60373936616289        1.61073375949403
C            3.43050549837152       -0.48253176974766        2.40240296068836
C            2.15181391214009        0.00001083596845        2.61351436107975
C            1.05771783862421       -0.61347256379696        2.02721995333466
C            1.22285636680890       -1.74395248650920        1.23300179128133
C           -1.70770472710771       -1.40284257749265       -0.58333162075057
C           -2.98400490551412       -0.88558059286295       -0.61214040457891
C           -5.39954793372389        0.81858053804782       -0.36003293867018
C           -6.52838894938055        0.87155999512062       -1.17667325220859
C           -6.68159928882415        1.89951021264992       -2.08212411297917
C           -5.71257189534029        2.89564215394699       -2.17387465936736
C           -4.61508273181210        2.88340476479548       -1.33730793617143
C           -4.45437347970881        1.85676150646006       -0.40768413836344
C           -3.40804558769541        1.92735720626160        0.63551328515808
O           -3.73337743111408        1.83195547762311        1.84351598805043
C           -2.03365399816903        2.10990673023990        0.24635484397321
C           -1.55965151166771        1.99284537015170       -1.07602669685654
C           -0.21080434752271        1.96601152892207       -1.33755746657062
C            0.71705351205651        2.04071901728389       -0.29408750900853
N            2.10294682628708        1.85891047471633       -0.51681744589941
C            2.59498301600227        0.66637580171926       -1.03255377510830
C            1.76779646648788       -0.32338352586336       -1.56016390032343
C            2.29793214104233       -1.47280523385706       -2.11722866004385
C            3.66548102255760       -1.68281542703767       -2.12531490018239
C            4.50280815048695       -0.73635012302234       -1.55958672839931
C            3.97990057695959        0.42645454117826       -1.01922650568542
O            4.86660249862167        1.30461066456996       -0.46354850385453
C            4.37926215228322        2.50695576857574       -0.03250455786013
C            5.29544356675167        3.43366613196714        0.43466426304577
C            4.86848404250583        4.68305093621273        0.85372410777457
C            3.52450155025119        5.00885460346765        0.78179519186185
C            2.60296424633887        4.08653378546947        0.32197474262556
C            3.00840751029436        2.81100639039350       -0.06842650493794
C            0.25852554033180        2.25693586103209        1.01267646548148
C           -1.08182538014623        2.28814469868015        1.27574967369881
H           -3.78274305739826       -1.19821662684015        2.65463578308086
H           -1.47674209420546       -2.10121901802865        2.72198858698747
H           -1.65948201720736       -4.00203068046554       -0.48657577139896
H           -1.18351094931727       -6.05236052304480       -1.74040332959455
H            1.15185535470296       -6.80851154648132       -2.05440236911333
H            3.00477789498467       -5.48628936179011       -1.05608819503372
H            4.59604224542711       -2.00925922249331        1.42546074083645
H            4.28217112155680        0.00521135027448        2.84973646627272
H            1.99928291297355        0.86013731009928        3.24683036366304
H            0.06903245985870       -0.21249871513014        2.17842665868430
H           -1.13930659483211       -1.50089193466454       -1.49673535730685
H           -3.41238708443414       -0.56640510085825       -1.55102168924443
H           -7.25853098274740        0.07973498227393       -1.09607268781428
H           -7.55071958358714        1.93373886670954       -2.72207541676397
H           -5.83438158905845        3.70008068167474       -2.88482027120356
H           -3.89769494463630        3.69108155167560       -1.36829860816462
H           -2.26037975188386        1.90437309329259       -1.89176021364754
H            0.14224567158496        1.88611108906785       -2.35627077803094
H            0.70076465792732       -0.18199404683686       -1.53006682370023
H            1.63407458060901       -2.21292699911003       -2.53921562083910
H            4.07890466203557       -2.58082960579232       -2.55498807021215
H            5.57089323878740       -0.87836420817330       -1.52533494309228
H            6.33733208924189        3.15741588532405        0.45638925869991
H            5.58633886665864        5.39945999492585        1.21990369420112
H            3.18690434330868        5.98822805959957        1.08269472795522
H            1.55927006248830        4.34928214020118        0.25583452253405
H            0.97814085678739        2.37545469741989        1.80807664740271
H           -1.45094980843245        2.42034609505998        2.28133060148614

 projected vibrational frequencies (cm⁻¹)
eigval :       -0.00    -0.00     0.00     0.00     0.00     0.00
eigval :       15.38    19.35    27.58    31.08    37.07    40.81
eigval :       52.72    53.97    63.17    68.37    70.78    89.32
eigval :       93.29   104.85   115.64   120.43   125.08   128.76
eigval :      146.71   153.71   165.92   171.68   183.17   211.19
eigval :      216.15   225.79   240.23   252.29   254.08   274.50
eigval :      277.13   281.98   284.61   303.99   322.87   331.90
eigval :      358.94   373.73   379.52   381.19   386.76   394.88
eigval :      397.21   400.54   414.81   420.67   435.61   436.08
eigval :      444.27   445.98   457.58   461.60   467.47   473.57
eigval :      503.63   504.74   525.59   528.20   530.18   537.58
eigval :      539.31   560.88   574.00   581.12   583.00   588.95
eigval :      596.90   604.07   605.78   619.33   631.69   646.74
eigval :      662.53   665.10   665.30   668.18   668.78   674.68
eigval :      677.61   693.57   718.32   729.86   750.23   777.19
eigval :      779.04   779.91   781.86   783.96   800.61   801.34
eigval :      805.17   816.54   849.96   856.05   857.02   865.10
eigval :      866.93   869.47   870.82   872.74   877.23   883.72
eigval :      892.72   899.23   901.21   901.75   902.02   911.28
eigval :      911.73   912.77   915.14   917.95   918.35   918.71
eigval :      921.15   922.79   924.84   926.51   933.06   935.38
eigval :      942.03   999.34  1015.24  1079.31  1084.74  1086.30
eigval :     1088.97  1090.16  1096.33  1112.59  1112.97  1120.82
eigval :     1121.79  1128.54  1130.47  1152.38  1166.35  1168.98
eigval :     1171.08  1174.02  1174.25  1176.32  1181.01  1185.50
eigval :     1193.84  1199.44  1208.75  1211.14  1216.41  1218.78
eigval :     1228.56  1237.88  1238.57  1240.11  1244.07  1255.78
eigval :     1256.77  1260.29  1262.43  1302.90  1304.47  1310.37
eigval :     1315.20  1316.31  1319.14  1326.71  1328.03  1341.60
eigval :     1344.97  1349.83  1386.24  1398.94  1413.34  1415.72
eigval :     1420.67  1422.40  1426.78  1438.33  1441.58  1444.13
eigval :     1448.80  1453.14  1462.26  1474.53  1477.99  1486.73
eigval :     1536.25  1539.15  1549.10  1555.30  1556.69  1560.39
eigval :     1562.55  1567.46  1573.71  1574.70  1579.70  1587.34
eigval :     1590.31  1658.31  3068.27  3069.47  3075.04  3077.57
eigval :     3081.82  3084.11  3084.45  3086.54  3088.49  3092.31
eigval :     3092.70  3094.47  3096.40  3096.72  3100.10  3103.31
eigval :     3104.50  3104.79  3106.66  3111.99  3112.34  3113.21
eigval :     3115.98  3116.28  3116.80  3117.88  3121.50  3128.30

   temp. (K)  partition function   enthalpy   heat capacity  entropy
                                   cal/mol     cal/K/mol   cal/K/mol   J/K/mol
 298.15  VIB  0.317E+17            22965.649    148.266    140.564
         ROT  0.582E+08              888.752      2.981     38.511
         INT  0.184E+25            23854.402    151.246    179.075
         TR   0.160E+29             1481.254      4.968     45.271
         TOT                       25335.6557   156.2146   224.3464   938.6651

       T/K    H(0)-H(T)+PV         H(T)/Eh          T*S/Eh         G(T)/Eh
   ------------------------------------------------------------------------
    298.15    0.403749E-01    0.620714E+00    0.106594E+00    0.514120E+00
   ------------------------------------------------------------------------

         :::::::::::::::::::::::::::::::::::::::::::::::::::::
         ::                  THERMODYNAMIC                  ::
         :::::::::::::::::::::::::::::::::::::::::::::::::::::
         :: total free energy        -130.057442690885 Eh   ::
         ::.................................................::
         :: total energy             -130.571562653800 Eh   ::
         :: zero point energy           0.580339218085 Eh   ::
         :: G(RRHO) w/o ZPVE           -0.066219255170 Eh   ::
         :: G(RRHO) contrib.            0.514119962915 Eh   ::
         :::::::::::::::::::::::::::::::::::::::::::::::::::::

           -------------------------------------------------
          | TOTAL ENERGY             -130.571562653800 Eh   |
          | TOTAL ENTHALPY           -129.950848498373 Eh   |
          | TOTAL FREE ENERGY        -130.057442690885 Eh   |
          | GRADIENT NORM               0.000093024769 Eh/α |
           -------------------------------------------------

 * finished run on 2025/08/23 at 05:52:23.000
