   * xtb version 6.7.1 (edcfbbe) compiled by 'albert@albert-system' on 2024-07-22

   ID    Z sym.   atoms
    1    8 O      1, 14, 30, 42
    2    6 C      2-6, 8-13, 15-29, 31-34, 36-41, 43-50
    3    7 N      7, 35
    4    1 H      51-78

          program call               : xtb data2507/gas/o-Px2BBP/o-Px2BBP_gas_S0_crest.xyz --gfn 2 --ohess vtight --parallel 40 --molden --ceasefiles --namespace data2507/gas/o-Px2BBP/o-Px2BBP_gas_S0_finalOpt
          :  Hamiltonian                  GFN2-xTB          :
 * total energy  :  -130.6403252 Eh     change       -0.8417516E-08 Eh
 * total energy  :  -130.6403462 Eh     change       -0.2095727E-04 Eh
 * total energy  :  -130.6403701 Eh     change       -0.2397166E-04 Eh
 * total energy  :  -130.6403992 Eh     change       -0.2906514E-04 Eh
 * total energy  :  -130.6404338 Eh     change       -0.3463427E-04 Eh
 * total energy  :  -130.6404730 Eh     change       -0.3915317E-04 Eh
 * total energy  :  -130.6405147 Eh     change       -0.4171948E-04 Eh
 * total energy  :  -130.6405566 Eh     change       -0.4184991E-04 Eh
 * total energy  :  -130.6405967 Eh     change       -0.4009918E-04 Eh
 * total energy  :  -130.6406343 Eh     change       -0.3762040E-04 Eh
 * total energy  :  -130.6420845 Eh     change       -0.6182119E-06 Eh
 * total energy  :  -130.6420850 Eh     change       -0.5542994E-06 Eh
 * total energy  :  -130.6420855 Eh     change       -0.4887777E-06 Eh
 * total energy  :  -130.6420860 Eh     change       -0.4892624E-06 Eh
 * total energy  :  -130.6420864 Eh     change       -0.4378702E-06 Eh
 * total energy  :  -130.6420869 Eh     change       -0.4541868E-06 Eh
 * total energy  :  -130.6420873 Eh     change       -0.4213585E-06 Eh
 * total energy  :  -130.6420877 Eh     change       -0.4470601E-06 Eh
 * total energy  :  -130.6420877 Eh     change       -0.3799897E-08 Eh
   *** GEOMETRY OPTIMIZATION CONVERGED AFTER 152 ITERATIONS ***

 final structure:
================
78
 xtb: 6.7.1 (edcfbbe)
O           -5.93117029217227       -0.64189174912210        1.36025087300735
C           -5.07210619969138       -0.19948669734540        0.63393029252929
C           -3.67031839988359       -0.69766964408034        0.64591807107941
C           -3.07092781333437       -1.09332809968046        1.83894910232859
C           -1.78955625256197       -1.60839177023968        1.84421282042244
C           -1.09470011395652       -1.77237546212406        0.64724867787035
N            0.19091305130750       -2.34955237329437        0.62429011542292
C            0.41798607409007       -3.50565262626595       -0.13146705338336
C           -0.62009128393371       -4.23366602282167       -0.70013011559804
C           -0.36525592258189       -5.37651055231149       -1.44278552183644
C            0.92966474666525       -5.82052886445584       -1.61833280068242
C            1.97368972583401       -5.12825107754478       -1.02381199447811
C            1.72418331006961       -3.98931581979090       -0.28043613832248
O            2.80509218718202       -3.38350401358199        0.30470999672042
C            2.56894158303391       -2.26080807178458        1.05389639438283
C            3.67390461891044       -1.65184577175228        1.61842402820106
C            3.52820823010378       -0.50792630892118        2.38766447940369
C            2.26835711256568        0.01832726339124        2.58217563911240
C            1.15640633928787       -0.58317392241577        2.01040006242191
C            1.28421368841554       -1.73216380891123        1.24201845794041
C           -1.70251090166031       -1.39391522170321       -0.54968069369539
C           -2.96852183493354       -0.84854047658538       -0.54893647499263
C           -5.33737560741210        0.85355823724476       -0.39107726615881
C           -6.39049574652678        0.71989284665964       -1.28626607921016
C           -6.60416728796573        1.68368509406991       -2.25623657710905
C           -5.77653201960300        2.79260251840918       -2.32660548984091
C           -4.73682724893958        2.94511475099520       -1.42429798288105
C           -4.50677784588627        1.97697588458324       -0.45594391592121
C           -3.49130890931695        2.17695946427078        0.62198017760363
O           -3.84699721147324        2.26595808359017        1.78103760933650
C           -2.06818731812950        2.21953374293247        0.23942573030832
C           -1.61085519802877        2.04257210773332       -1.06587646802971
C           -0.25825678156942        1.95611281297434       -1.32515604425393
C            0.67024445995294        2.02197029636797       -0.28372785461787
N            2.03724883860146        1.81652436907976       -0.51020465063528
C            2.51495297407850        0.61966753875440       -1.06867678949538
C            1.68431725539572       -0.32626893009198       -1.65567607913834
C            2.19658140697264       -1.48444218813362       -2.21890753591585
C            3.55369397573225       -1.73306464595433       -2.18859441839313
C            4.39335703849647       -0.82499850307376       -1.56605531971584
C            3.88460964803418        0.33264739583390       -1.00363362654068
O            4.78536610287450        1.14923532429892       -0.37169630195523
C            4.32324075866869        2.34886154152320        0.09848306404004
C            5.25814113642887        3.21792162192248        0.63322304643214
C            4.87239846913120        4.47111649662304        1.08148748859253
C            3.55269260413870        4.86030259844085        0.96141304304099
C            2.61314365529093        3.99129517619716        0.43060759806579
C            2.97353408695075        2.71098200145984        0.02668601528284
C            0.21497497528940        2.28367328164734        1.01138734250835
C           -1.13157172622573        2.37101134485975        1.26562599169402
H           -3.62577551318038       -0.98847998007234        2.75864931908208
H           -1.33295587614243       -1.92081197436546        2.77154117279493
H           -1.63930589294396       -3.91116123443730       -0.55586872058239
H           -1.19205244869096       -5.91686134021008       -1.87731760242784
H            1.13399806735214       -6.70555929885105       -2.19978869128318
H            2.99523198567041       -5.45935867212908       -1.11989188795905
H            4.64240567589823       -2.08955475379260        1.43914828398279
H            4.39549715923471       -0.03708356731596        2.82269997534730
H            2.13974274368990        0.90284727379201        3.18770993324309
H            0.18163603972809       -0.14572290165903        2.15416013480780
H           -1.17838260468496       -1.54456542999583       -1.48170725589450
H           -3.43112180388500       -0.56632435771819       -1.48389464780462
H           -7.03051442206308       -0.14683361055315       -1.21544089091966
H           -7.42126195432032        1.57390522377779       -2.95327492736208
H           -5.94811583930997        3.54856054474328       -3.07838999115018
H           -4.11338803563652        3.82715296095543       -1.45482630472202
H           -2.31445109799655        1.96826078771934       -1.88141225777764
H            0.08950400363849        1.84808256747767       -2.34168657402474
H            0.61937276502126       -0.16774054903507       -1.65852259606787
H            1.52276925424700       -2.19466447973718       -2.67488888063576
H            3.95769093975557       -2.63215136218955       -2.62509267433770
H            5.45473290954597       -0.99918667224596       -1.49292737920419
H            6.28501840241247        2.89338208136338        0.68467408003726
H            5.60599051905154        5.13961706272334        1.50338564255906
H            3.24263571681025        5.84469949234164        1.27601543061349
H            1.58850588608239        4.31272820754120        0.32544919046454
H            0.92973798758442        2.38460880314776        1.81245981918767
H           -1.49710339121411        2.52821008071841        2.26949431654943

          :  Hamiltonian                  GFN2-xTB          :
         :: gradient norm              0.000050742049 Eh/a0 ::
         :: HOMO-LUMO gap              1.370079299206 eV    ::
         :: SCC energy              -132.862038157988 Eh    ::
         :: -> dispersion             -0.133770812698 Eh    ::
         :: repulsion energy           2.219950408194 Eh    ::

    * Orbital Energies and Occupations

         #    Occupation            Energy/Eh            Energy/eV
      -------------------------------------------------------------
         1        2.0000           -0.7347382             -19.9932
       ...           ...                  ...                  ...
       107        2.0000           -0.4239422             -11.5361
       108        2.0000           -0.4223703             -11.4933
       109        2.0000           -0.4222051             -11.4888
       110        2.0000           -0.4205367             -11.4434
       111        2.0000           -0.4195281             -11.4159
       112        2.0000           -0.4184980             -11.3879
       113        2.0000           -0.4149102             -11.2903
       114        2.0000           -0.3992529             -10.8642
       115        2.0000           -0.3964534             -10.7880
       116        2.0000           -0.3933205             -10.7028
       117        2.0000           -0.3908071             -10.6344
       118        2.0000           -0.3521354              -9.5821
       119        2.0000           -0.3469786              -9.4418 (HOMO)
       120                         -0.2966291              -8.0717 (LUMO)
       121                         -0.2835946              -7.7170
       122                         -0.2494807              -6.7887
       123                         -0.2477837              -6.7425
       124                         -0.2455183              -6.6809
       125                         -0.2441744              -6.6443
       126                         -0.2437556              -6.6329
       127                         -0.2416049              -6.5744
       128                         -0.2364774              -6.4349
       129                         -0.2325113              -6.3270
       130                         -0.2245883              -6.1114
       ...                                ...                  ...
       228                          0.6801230              18.5071
      -------------------------------------------------------------
                  HL-Gap            0.0503495 Eh            1.3701 eV

     #   Z          covCN         q      C6AA      α(0)
     1   8 O        0.857    -0.347    20.642     6.091
     2   6 C        2.826     0.237    23.057     7.868
     3   6 C        2.973    -0.016    28.404     8.742
     4   6 C        2.922    -0.015    28.377     8.736
     5   6 C        2.920    -0.040    28.993     8.830
     6   6 C        2.919     0.070    26.439     8.432
     7   7 N        2.750    -0.070    22.607     7.062
     8   6 C        2.923     0.042    27.048     8.529
     9   6 C        2.924    -0.059    29.465     8.902
    10   6 C        2.919    -0.039    28.967     8.826
    11   6 C        2.919    -0.040    28.986     8.829
    12   6 C        2.920    -0.056    29.389     8.890
    13   6 C        2.886     0.127    25.226     8.234
    14   8 O        1.709    -0.252    18.177     5.756
    15   6 C        2.887     0.125    25.267     8.241
    16   6 C        2.921    -0.055    29.368     8.887
    17   6 C        2.919    -0.038    28.956     8.824
    18   6 C        2.920    -0.039    28.967     8.826
    19   6 C        2.924    -0.062    29.548     8.914
    20   6 C        2.920     0.041    27.071     8.532
    21   6 C        2.921    -0.042    29.048     8.838
    22   6 C        2.921    -0.030    28.745     8.792
    23   6 C        2.978    -0.003    28.093     8.694
    24   6 C        2.921    -0.019    28.482     8.752
    25   6 C        2.919    -0.026    28.640     8.776
    26   6 C        2.919    -0.025    28.626     8.774
    27   6 C        2.920    -0.026    28.654     8.778
    28   6 C        2.975    -0.008    28.203     8.711
    29   6 C        2.829     0.226    23.263     7.903
    30   8 O        0.858    -0.370    21.096     6.158
    31   6 C        2.971    -0.023    28.567     8.767
    32   6 C        2.919    -0.028    28.709     8.786
    33   6 C        2.920    -0.044    29.101     8.846
    34   6 C        2.921     0.072    26.391     8.424
    35   7 N        2.750    -0.066    22.513     7.047
    36   6 C        2.919     0.040    27.106     8.538
    37   6 C        2.925    -0.062    29.530     8.912
    38   6 C        2.919    -0.036    28.908     8.817
    39   6 C        2.919    -0.033    28.828     8.805
    40   6 C        2.921    -0.053    29.309     8.878
    41   6 C        2.888     0.126    25.231     8.235
    42   8 O        1.709    -0.248    18.114     5.746
    43   6 C        2.887     0.127    25.214     8.232
    44   6 C        2.920    -0.055    29.374     8.888
    45   6 C        2.919    -0.038    28.937     8.821
    46   6 C        2.919    -0.038    28.952     8.824
    47   6 C        2.924    -0.056    29.397     8.891
    48   6 C        2.924     0.041    27.080     8.534
    49   6 C        2.921    -0.042    29.041     8.837
    50   6 C        2.926    -0.020    28.495     8.754
    51   1 H        0.926     0.066     2.133     2.284
    52   1 H        0.926     0.051     2.302     2.373
    53   1 H        0.926     0.036     2.507     2.476
    54   1 H        0.926     0.038     2.478     2.462
    55   1 H        0.926     0.040     2.451     2.448
    56   1 H        0.926     0.051     2.305     2.374
    57   1 H        0.926     0.053     2.286     2.364
    58   1 H        0.926     0.040     2.452     2.449
    59   1 H        0.926     0.033     2.549     2.497
    60   1 H        0.926     0.036     2.508     2.476
    61   1 H        0.926     0.043     2.413     2.429
    62   1 H        0.926     0.035     2.511     2.478
    63   1 H        0.926     0.053     2.288     2.366
    64   1 H        0.926     0.044     2.392     2.419
    65   1 H        0.926     0.043     2.412     2.429
    66   1 H        0.926     0.040     2.452     2.448
    67   1 H        0.926     0.041     2.435     2.440
    68   1 H        0.926     0.047     2.357     2.401
    69   1 H        0.926     0.037     2.487     2.466
    70   1 H        0.926     0.032     2.559     2.501
    71   1 H        0.926     0.044     2.402     2.424
    72   1 H        0.926     0.055     2.261     2.352
    73   1 H        0.926     0.053     2.277     2.360
    74   1 H        0.926     0.042     2.422     2.434
    75   1 H        0.926     0.040     2.450     2.448
    76   1 H        0.926     0.038     2.481     2.463
    77   1 H        0.926     0.051     2.310     2.377
    78   1 H        0.926     0.066     2.126     2.280

molecular dipole:
                 x           y           z       tot (Debye)
 q only:        1.175       0.354      -1.611
   full:        1.115       0.464      -1.816       5.543

 projected vibrational frequencies (cm⁻¹)
eigval :       -0.00    -0.00    -0.00     0.00     0.00     0.00
eigval :       16.14    16.97    25.23    30.13    37.09    41.46
eigval :       50.71    55.53    61.07    64.13    67.65    87.07
eigval :       91.43    96.40   113.55   119.21   127.13   132.45
eigval :      147.47   151.29   162.01   171.69   182.75   208.31
eigval :      210.66   223.21   238.83   255.37   257.43   276.35
eigval :      279.19   283.22   283.57   306.51   322.21   332.29
eigval :      348.50   362.61   376.28   379.14   384.97   393.00
eigval :      394.13   398.43   419.85   420.42   435.58   436.93
eigval :      447.69   453.78   458.79   473.10   475.30   482.16
eigval :      510.83   511.43   524.76   528.09   534.63   545.54
eigval :      556.63   565.89   585.19   586.31   590.61   592.65
eigval :      609.19   610.33   629.82   635.04   655.16   660.27
eigval :      661.46   662.48   664.90   667.43   674.02   679.17
eigval :      705.14   720.96   728.30   737.84   758.91   780.11
eigval :      781.84   782.61   783.96   786.35   803.14   805.20
eigval :      825.92   834.05   856.95   857.83   863.58   866.42
eigval :      868.62   872.34   881.24   882.75   887.18   892.13
eigval :      898.58   899.39   899.86   901.43   902.76   915.05
eigval :      915.88   917.05   917.72   918.50   918.78   920.70
eigval :      931.20   931.65   933.86   938.34   942.81   947.62
eigval :      952.83  1015.70  1021.00  1087.64  1090.30  1090.97
eigval :     1094.04  1095.39  1096.86  1108.92  1110.39  1121.57
eigval :     1123.08  1131.26  1135.18  1167.80  1169.68  1170.52
eigval :     1175.40  1175.82  1177.78  1181.32  1183.08  1187.85
eigval :     1193.59  1201.27  1205.01  1208.08  1223.23  1227.29
eigval :     1237.66  1243.02  1244.00  1248.08  1260.30  1262.24
eigval :     1265.08  1267.70  1268.21  1306.43  1309.59  1311.31
eigval :     1311.77  1313.77  1317.71  1323.49  1337.81  1340.32
eigval :     1353.07  1355.94  1400.98  1409.25  1421.93  1424.32
eigval :     1425.00  1442.69  1443.15  1448.94  1472.64  1473.50
eigval :     1484.16  1487.66  1502.46  1505.07  1552.04  1555.75
eigval :     1567.41  1568.67  1570.55  1578.47  1580.20  1580.96
eigval :     1582.54  1584.15  1592.01  1592.43  1602.03  1603.54
eigval :     1684.25  1726.71  3075.16  3076.97  3083.67  3083.90
eigval :     3084.23  3084.55  3089.93  3090.15  3090.76  3091.48
eigval :     3091.76  3093.81  3095.58  3098.48  3098.64  3099.59
eigval :     3101.67  3104.75  3105.24  3105.71  3106.88  3110.91
eigval :     3113.28  3113.93  3114.41  3116.15  3117.98  3127.94

   temp. (K)  partition function   enthalpy   heat capacity  entropy
                                   cal/mol     cal/K/mol   cal/K/mol   J/K/mol
 298.15  VIB  0.451E+17            22873.444    146.907    140.520
         ROT  0.573E+08              888.752      2.981     38.481
         INT  0.258E+25            23762.197    149.887    179.001
         TR   0.160E+29             1481.254      4.968     45.271
         TOT                       25243.4506   154.8556   224.2719   938.3537

       T/K    H(0)-H(T)+PV         H(T)/Eh          T*S/Eh         G(T)/Eh
   ------------------------------------------------------------------------
    298.15    0.402280E-01    0.624018E+00    0.106559E+00    0.517459E+00
   ------------------------------------------------------------------------

         :::::::::::::::::::::::::::::::::::::::::::::::::::::
         ::                  THERMODYNAMIC                  ::
         :::::::::::::::::::::::::::::::::::::::::::::::::::::
         :: total free energy        -130.124628803013 Eh   ::
         ::.................................................::
         :: total energy             -130.642087749793 Eh   ::
         :: zero point energy           0.583789776454 Eh   ::
         :: G(RRHO) w/o ZPVE           -0.066330829674 Eh   ::
         :: G(RRHO) contrib.            0.517458946780 Eh   ::
         :::::::::::::::::::::::::::::::::::::::::::::::::::::

           -------------------------------------------------
          | TOTAL ENERGY             -130.642087749793 Eh   |
          | TOTAL ENTHALPY           -130.018069974202 Eh   |
          | TOTAL FREE ENERGY        -130.124628803013 Eh   |
          | GRADIENT NORM               0.000050744179 Eh/α |
          | HOMO-LUMO GAP               1.370079327910 eV   |
           -------------------------------------------------

 * finished run on 2025/08/23 at 05:52:09.836
