   * xtb version 6.7.1 (edcfbbe) compiled by 'albert@albert-system' on 2024-07-22

   ID    Z sym.   atoms
    1    6 C      1, 2, 4-9, 11-18, 20-26, 28-45, 47-63
    2    7 N      3, 19, 27, 46
    3   14 Si     10
    4    1 H      64-103

          program call               : xtb data2507/gas/SiCz2Py2/SiCz2Py2_gas_S0_crest.xyz --gfn 2 --ohess vtight --parallel 40 --molden --ceasefiles --namespace data2507/gas/SiCz2Py2/SiCz2Py2_gas_S0_finalOpt
          :  Hamiltonian                  GFN2-xTB          :
 * total energy  :  -158.0273817 Eh     change       -0.2065690E-08 Eh
 * total energy  :  -158.0273834 Eh     change       -0.1649883E-05 Eh
 * total energy  :  -158.0273852 Eh     change       -0.1850855E-05 Eh
 * total energy  :  -158.0273885 Eh     change       -0.3273255E-05 Eh
 * total energy  :  -158.0273910 Eh     change       -0.2477481E-05 Eh
 * total energy  :  -158.0273936 Eh     change       -0.2644402E-05 Eh
 * total energy  :  -158.0273965 Eh     change       -0.2932149E-05 Eh
 * total energy  :  -158.0273987 Eh     change       -0.2200488E-05 Eh
 * total energy  :  -158.0274003 Eh     change       -0.1598540E-05 Eh
 * total energy  :  -158.0274019 Eh     change       -0.1532835E-05 Eh
 * total energy  :  -158.0274302 Eh     change       -0.6509480E-06 Eh
 * total energy  :  -158.0274307 Eh     change       -0.4678766E-06 Eh
 * total energy  :  -158.0274310 Eh     change       -0.2646510E-06 Eh
 * total energy  :  -158.0274312 Eh     change       -0.1926458E-06 Eh
 * total energy  :  -158.0274313 Eh     change       -0.1819920E-06 Eh
 * total energy  :  -158.0274315 Eh     change       -0.1885084E-06 Eh
 * total energy  :  -158.0274317 Eh     change       -0.2181703E-06 Eh
 * total energy  :  -158.0274320 Eh     change       -0.2468699E-06 Eh
 * total energy  :  -158.0274320 Eh     change       -0.1559755E-08 Eh
   *** GEOMETRY OPTIMIZATION CONVERGED AFTER 44 ITERATIONS ***

 final structure:
================
103
 xtb: 6.7.1 (edcfbbe)
C            0.15595397858800        6.86080847588956        6.01244066893093
C            0.22591379248557        6.21218378697299        7.23648351290023
N            0.25750384852073        4.89556271605856        7.35355635951819
C            0.21352966987179        4.16767148198359        6.25530674142787
C            0.13163489390036        4.70322718417426        4.96818603994333
C            0.08236134300089        3.83790786713878        3.78478128820849
C            0.80179723687134        4.16280170821522        2.63635556123664
C            0.75856328224854        3.34174494706404        1.52770204826722
C           -0.00264810674167        2.17550243368410        1.52080555451501
Si          -0.02305613590358        1.05712549544837       -0.00628533853649
C           -0.08719868766353        2.15226043140692       -1.54928972369900
C           -0.90018635382163        3.28293502666830       -1.57595948388221
C           -0.98024648262506        4.08262671988288       -2.69810928568390
C           -0.23696107059812        3.77772339362723       -3.83695674803813
C           -0.31970706140218        4.62321301010576       -5.03273326738938
C            0.80819672928337        4.93724894917489       -5.78955791067898
C            0.67176504559242        5.74080778671375       -6.90742249886062
C           -0.59237478622923        6.20975215299230       -7.23293574014366
N           -1.67302792458275        5.91539148613950       -6.53029540562602
C           -1.53922477492033        5.14629916494386       -5.46798942415309
C            0.58390601486153        2.65229418695691       -3.81525395590419
C            0.65187921004994        1.85479707506452       -2.68984534490946
C           -1.52502677259131       -0.09428367878653        0.03162389009327
C           -2.66333593993292        0.15835689675248       -0.72741014569718
C           -3.74830769650927       -0.69569022764645       -0.70186447856510
C           -3.72128055926696       -1.83103983360317        0.10340849642995
N           -4.81388325815689       -2.70555319791780        0.13231849900094
C           -6.13459022993335       -2.34660562645231        0.31883511910381
C           -6.68443040025749       -1.09749618728042        0.56884186165192
C           -8.05223973914265       -1.01917308756526        0.74812379270524
C           -8.86003349149844       -2.15268960412179        0.69092967999521
C           -8.31563464324412       -3.40144427696610        0.46758897830223
C           -6.94318720769889       -3.50572789788463        0.28416959739956
C           -6.05857016062962       -4.61424855007096        0.05783218768857
C           -6.25813487996729       -5.98048440222225       -0.08978908580077
C           -5.16334835916336       -6.78709311215585       -0.32739887765755
C           -3.88449228361573       -6.24517070567170       -0.43404487028043
C           -3.66077184716144       -4.88922630490298       -0.29081769780657
C           -4.75385871095127       -4.07655134034737       -0.02629778882356
C           -2.59252317681622       -2.09337759058674        0.87583491982339
C           -1.51214992887945       -1.23584423961272        0.82955397416254
C            1.52767632640055       -0.02888398483478       -0.03188682239057
C            2.65618629389742        0.28458549231090        0.71904725286810
C            3.77806592759477       -0.52062555899388        0.70091279607437
C            3.79892486755237       -1.66707656906223       -0.08860901354114
N            4.92998544082452       -2.49163261188172       -0.11109741397935
C            4.93305037451660       -3.86166311711779        0.06631453519160
C            3.87929576819162       -4.71928391338106        0.34798510034252
C            4.16507165271563       -6.06161399059194        0.50798767162705
C            5.46662982968414       -6.54649513948294        0.40108983289316
C            6.52245557587558       -5.69450060968298        0.14630558666695
C            6.26032103085685       -4.34081947736234       -0.01833641398393
C            7.09253658082201       -3.19659077108327       -0.26469249375094
C            8.45785062396812       -3.03274082287119       -0.45743460876566
C            8.94392676046374       -1.76377577665676       -0.70058010202689
C            8.08525476850525       -0.66889180559065       -0.76811365131042
C            6.72335049244899       -0.80664209159390       -0.57986559706519
C            6.23193946921349       -2.07585616228552       -0.31010427149461
C            2.68008208747766       -1.99054281905003       -0.85219757934605
C            1.56273537518805       -1.18132171272400       -0.81335382974295
C           -0.72299742891244        1.86110156259547        2.66899012506743
C           -0.68220641327176        2.67323170524405        3.78519649207213
C            0.10679966109832        6.09308476319650        4.86258694388889
H            0.13354401264239        7.93860674514785        5.96132296419794
H            0.25822403629450        6.76565051610353        8.16556209877337
H            0.26304213205263        3.09641419566177        6.40371081571252
H            1.41340358304105        5.05390253419202        2.62352123910510
H            1.32243074286342        3.60933183672702        0.64479387026421
H           -1.47418438974468        3.54063409219001       -0.69672310941650
H           -1.60582485834345        4.96367205444480       -2.69040477707044
H            1.78037078022648        4.57104434284690       -5.49065163356459
H            1.52799655958026        6.00377674779727       -7.50948097064524
H           -0.75189172068524        6.84838806455938       -8.09156708194135
H           -2.45639477023706        4.91781562534221       -4.94009085373681
H            1.15511593426936        2.39130296721420       -4.69486885195929
H            1.29296711687170        0.98474689759991       -2.69216460555587
H           -2.69242672058676        1.03264259477756       -1.36166891226859
H           -4.61394454608369       -0.50080192976659       -1.31759936566293
H           -6.06526110706325       -0.21537701921676        0.63336924037510
H           -8.50473326530598       -0.05749680403357        0.94064288474791
H           -9.92539327453984       -2.04903669654900        0.83340475675825
H           -8.93903334873890       -4.28238217870508        0.43975180018460
H           -7.25163260914000       -6.39768308940419       -0.02405314965500
H           -5.29618619683233       -7.85250333145800       -0.44275506130159
H           -3.04911672182524       -6.89906284894841       -0.63712870044041
H           -2.66809007971609       -4.47738308867752       -0.39406556468228
H           -2.57655756083289       -2.96262532760478        1.51673782391829
H           -0.63731804084570       -1.45329603018052        1.42608836317207
H            2.64850807355810        1.16808046428407        1.34106771218439
H            4.63628328388041       -0.27884201737664        1.31040033217326
H            2.86953997884675       -4.35142037164823        0.45156741120036
H            3.36131700323551       -6.74982001060366        0.72472950255391
H            5.64824498020988       -7.60311445690673        0.52994141451786
H            7.53351525522501       -6.06709950149370        0.08036397475615
H            9.12071266196778       -3.88406426119772       -0.42133242243276
H           10.00275704990334       -1.61391407886443       -0.85049310730855
H            8.49276708506758        0.30963685003920       -0.97579236998720
H            6.06445714452674        0.04563440635614       -0.65205815913835
H            2.70043948953996       -2.86883318418812       -1.48056455219658
H            0.69625083276565       -1.44595690137767       -1.40297502249425
H           -1.32982808679737        0.96702272233147        2.68362925891644
H           -1.26284074521993        2.41811442048798        4.65998791275130
H            0.02923513766478        6.56140431253691        3.89134465884178

          :  Hamiltonian                  GFN2-xTB          :
         :: gradient norm              0.000027190959 Eh/a0 ::
         :: HOMO-LUMO gap              2.613899176309 eV    ::
         :: SCC energy              -161.004270195605 Eh    ::
         :: -> dispersion             -0.144539045371 Eh    ::
         :: repulsion energy           2.976838205880 Eh    ::

    * Orbital Energies and Occupations

         #    Occupation            Energy/Eh            Energy/eV
      -------------------------------------------------------------
         1        2.0000           -0.7647552             -20.8100
       ...           ...                  ...                  ...
       136        2.0000           -0.4060585             -11.0494
       137        2.0000           -0.4048907             -11.0176
       138        2.0000           -0.4039364             -10.9917
       139        2.0000           -0.4015292             -10.9262
       140        2.0000           -0.3960645             -10.7775
       141        2.0000           -0.3958616             -10.7719
       142        2.0000           -0.3931639             -10.6985
       143        2.0000           -0.3784033             -10.2969
       144        2.0000           -0.3777231             -10.2784
       145        2.0000           -0.3693501             -10.0505
       146        2.0000           -0.3687697             -10.0347
       147        2.0000           -0.3628721              -9.8743
       148        2.0000           -0.3619641              -9.8495 (HOMO)
       149                         -0.2659051              -7.2356 (LUMO)
       150                         -0.2649302              -7.2091
       151                         -0.2511544              -6.8343
       152                         -0.2507929              -6.8244
       153                         -0.2483770              -6.7587
       154                         -0.2477283              -6.7410
       155                         -0.2424285              -6.5968
       156                         -0.2418339              -6.5806
       157                         -0.2345798              -6.3832
       158                         -0.2325702              -6.3286
       159                         -0.2310899              -6.2883
       ...                                ...                  ...
       297                          0.7469444              20.3254
      -------------------------------------------------------------
                  HL-Gap            0.0960590 Eh            2.6139 eV

     #   Z          covCN         q      C6AA      α(0)
     1   6 C        2.912    -0.039    28.971     8.826
     2   6 C        2.914     0.058    26.710     8.475
     3   7 N        1.835    -0.218    26.600     7.643
     4   6 C        2.918     0.056    26.751     8.481
     5   6 C        2.973     0.000    28.015     8.682
     6   6 C        2.977     0.009    27.804     8.649
     7   6 C        2.922    -0.033    28.834     8.806
     8   6 C        2.937    -0.031    28.778     8.798
     9   6 C        2.863    -0.095    30.387     9.036
    10  14 Si       3.616     0.487    98.201    19.021
    11   6 C        2.863    -0.095    30.387     9.036
    12   6 C        2.937    -0.031    28.765     8.796
    13   6 C        2.922    -0.034    28.854     8.809
    14   6 C        2.977     0.009    27.807     8.650
    15   6 C        2.972     0.000    28.015     8.682
    16   6 C        2.933    -0.017    28.423     8.743
    17   6 C        2.912    -0.039    28.970     8.826
    18   6 C        2.914     0.058    26.710     8.475
    19   7 N        1.835    -0.219    26.604     7.644
    20   6 C        2.918     0.056    26.751     8.482
    21   6 C        2.922    -0.033    28.824     8.804
    22   6 C        2.934    -0.032    28.800     8.801
    23   6 C        2.862    -0.099    30.482     9.050
    24   6 C        2.935    -0.031    28.783     8.799
    25   6 C        2.920    -0.043    29.071     8.842
    26   6 C        2.914     0.066    26.520     8.445
    27   7 N        2.802    -0.044    22.097     6.982
    28   6 C        3.075     0.047    26.873     8.499
    29   6 C        2.910    -0.051    29.266     8.871
    30   6 C        2.924    -0.033    28.833     8.806
    31   6 C        2.920    -0.041    29.012     8.833
    32   6 C        2.913    -0.033    28.817     8.803
    33   6 C        3.068    -0.017    28.360     8.732
    34   6 C        3.068    -0.017    28.359     8.732
    35   6 C        2.913    -0.033    28.817     8.803
    36   6 C        2.920    -0.041    29.014     8.833
    37   6 C        2.924    -0.034    28.836     8.806
    38   6 C        2.910    -0.051    29.267     8.871
    39   6 C        3.075     0.047    26.875     8.500
    40   6 C        2.919    -0.044    29.081     8.843
    41   6 C        2.939    -0.031    28.764     8.796
    42   6 C        2.862    -0.099    30.481     9.050
    43   6 C        2.935    -0.031    28.784     8.799
    44   6 C        2.920    -0.043    29.072     8.842
    45   6 C        2.914     0.066    26.523     8.445
    46   7 N        2.802    -0.044    22.098     6.982
    47   6 C        3.075     0.047    26.874     8.499
    48   6 C        2.910    -0.051    29.265     8.871
    49   6 C        2.924    -0.033    28.834     8.806
    50   6 C        2.920    -0.041    29.012     8.833
    51   6 C        2.913    -0.033    28.816     8.803
    52   6 C        3.068    -0.017    28.360     8.732
    53   6 C        3.068    -0.017    28.360     8.732
    54   6 C        2.913    -0.033    28.817     8.803
    55   6 C        2.920    -0.041    29.015     8.833
    56   6 C        2.924    -0.034    28.837     8.806
    57   6 C        2.910    -0.051    29.269     8.871
    58   6 C        3.075     0.047    26.874     8.499
    59   6 C        2.919    -0.044    29.083     8.844
    60   6 C        2.938    -0.031    28.764     8.796
    61   6 C        2.934    -0.031    28.784     8.799
    62   6 C        2.922    -0.034    28.840     8.807
    63   6 C        2.933    -0.016    28.422     8.743
    64   1 H        0.926     0.035     2.511     2.478
    65   1 H        0.925     0.039     2.465     2.455
    66   1 H        0.925     0.039     2.461     2.453
    67   1 H        0.926     0.030     2.582     2.513
    68   1 H        0.925     0.021     2.714     2.576
    69   1 H        0.926     0.022     2.702     2.571
    70   1 H        0.926     0.032     2.559     2.502
    71   1 H        0.926     0.035     2.518     2.482
    72   1 H        0.926     0.035     2.511     2.478
    73   1 H        0.925     0.039     2.465     2.455
    74   1 H        0.925     0.039     2.464     2.455
    75   1 H        0.926     0.031     2.577     2.510
    76   1 H        0.926     0.023     2.682     2.561
    77   1 H        0.926     0.027     2.634     2.538
    78   1 H        0.926     0.040     2.455     2.450
    79   1 H        0.926     0.027     2.632     2.537
    80   1 H        0.926     0.029     2.601     2.522
    81   1 H        0.926     0.028     2.612     2.527
    82   1 H        0.926     0.031     2.571     2.507
    83   1 H        0.926     0.031     2.571     2.507
    84   1 H        0.926     0.028     2.613     2.528
    85   1 H        0.926     0.029     2.603     2.523
    86   1 H        0.926     0.026     2.639     2.540
    87   1 H        0.926     0.039     2.457     2.451
    88   1 H        0.926     0.025     2.666     2.553
    89   1 H        0.926     0.027     2.634     2.538
    90   1 H        0.926     0.039     2.457     2.451
    91   1 H        0.926     0.027     2.635     2.539
    92   1 H        0.926     0.029     2.599     2.521
    93   1 H        0.926     0.028     2.611     2.527
    94   1 H        0.926     0.031     2.571     2.507
    95   1 H        0.926     0.031     2.570     2.507
    96   1 H        0.926     0.028     2.614     2.528
    97   1 H        0.926     0.028     2.608     2.525
    98   1 H        0.926     0.026     2.638     2.540
    99   1 H        0.926     0.039     2.460     2.453
   100   1 H        0.926     0.025     2.665     2.553
   101   1 H        0.926     0.024     2.672     2.556
   102   1 H        0.926     0.033     2.551     2.498
   103   1 H        0.926     0.035     2.519     2.482

molecular dipole:
                 x           y           z       tot (Debye)
 q only:        0.303       0.459      -0.238
   full:        0.639       0.605      -0.493       2.563

 projected vibrational frequencies (cm⁻¹)
eigval :       -0.00    -0.00    -0.00    -0.00     0.00     0.00
eigval :        6.32     7.04     8.38     9.78    11.10    11.92
eigval :       14.55    18.43    23.70    36.89    37.50    42.74
eigval :       47.46    57.40    58.72    70.42    72.45    74.16
eigval :       79.09    79.26    83.50   103.17   103.69   110.56
eigval :      134.12   134.80   143.32   145.35   152.38   154.34
eigval :      162.32   174.51   182.49   197.07   213.50   219.44
eigval :      250.55   259.98   271.25   271.79   273.30   276.73
eigval :      287.39   296.55   316.69   329.04   332.54   359.24
eigval :      360.79   366.12   367.62   371.57   373.40   374.19
eigval :      375.78   386.96   388.22   393.83   400.26   400.84
eigval :      422.77   424.49   436.32   438.24   475.07   475.53
eigval :      481.54   484.48   512.47   518.68   518.83   520.33
eigval :      521.61   534.63   534.63   537.85   538.33   541.24
eigval :      541.24   581.45   581.49   594.92   595.27   596.16
eigval :      596.86   606.73   606.87   613.51   614.40   640.69
eigval :      662.79   667.27   667.58   673.83   674.01   679.55
eigval :      680.28   681.54   682.14   692.36   692.49   708.46
eigval :      708.49   740.94   746.63   758.76   760.18   769.57
eigval :      769.76   776.93   777.40   780.81   781.04   781.33
eigval :      784.53   810.70   810.80   814.53   815.19   867.81
eigval :      867.86   873.86   873.88   877.36   877.44   885.04
eigval :      885.45   898.02   898.03   902.30   902.42   902.98
eigval :      903.06   903.20   903.27   913.41   913.53   920.39
eigval :      920.74   921.49   921.74   922.95   923.12   928.03
eigval :      928.72   929.70   930.11   932.32   932.74   933.17
eigval :      934.09   937.07   937.82   977.92   978.52  1009.36
eigval :     1009.93  1012.09  1012.13  1014.74  1015.38  1070.53
eigval :     1070.56  1074.20  1074.25  1083.86  1084.31  1097.16
eigval :     1097.23  1118.14  1118.18  1137.84  1138.29  1138.41
eigval :     1139.03  1146.02  1147.24  1147.56  1151.85  1152.97
eigval :     1153.13  1154.11  1155.87  1176.91  1177.11  1181.33
eigval :     1181.48  1185.83  1186.63  1196.47  1196.55  1209.25
eigval :     1209.48  1210.00  1212.83  1236.82  1237.02  1246.56
eigval :     1246.70  1266.38  1266.54  1273.97  1274.25  1276.22
eigval :     1276.84  1282.02  1282.66  1298.07  1298.55  1300.61
eigval :     1300.64  1302.97  1303.73  1309.73  1309.99  1311.10
eigval :     1311.82  1357.35  1357.38  1361.92  1361.96  1365.74
eigval :     1366.96  1382.09  1383.12  1394.77  1396.41  1406.02
eigval :     1406.61  1428.42  1428.49  1428.71  1430.54  1443.97
eigval :     1444.11  1476.23  1476.31  1488.55  1488.58  1489.71
eigval :     1489.84  1491.11  1491.29  1551.19  1552.08  1554.81
eigval :     1555.73  1564.62  1564.77  1573.04  1573.14  1575.32
eigval :     1575.36  1587.52  1588.97  1590.10  1590.56  1594.26
eigval :     1595.21  1599.32  1599.43  1615.26  1615.47  3053.40
eigval :     3053.67  3060.88  3060.94  3062.05  3064.29  3066.76
eigval :     3067.02  3068.44  3068.53  3069.68  3069.85  3073.40
eigval :     3073.56  3075.89  3075.99  3076.39  3076.45  3076.92
eigval :     3079.40  3080.53  3081.12  3081.17  3082.24  3082.31
eigval :     3082.60  3087.07  3087.26  3088.22  3088.52  3089.18
eigval :     3089.41  3089.99  3090.12  3091.13  3091.20  3095.25
eigval :     3095.36  3096.89  3096.94

   temp. (K)  partition function   enthalpy   heat capacity  entropy
                                   cal/mol     cal/K/mol   cal/K/mol   J/K/mol
 298.15  VIB  0.169E+28            30699.335    187.261    197.246
         ROT  0.264E+09              888.752      2.981     41.513
         INT  0.444E+36            31588.087    190.241    238.760
         TR   0.228E+29             1481.254      4.968     45.973
         TOT                       33069.3409   195.2096   284.7327  1191.3216

       T/K    H(0)-H(T)+PV         H(T)/Eh          T*S/Eh         G(T)/Eh
   ------------------------------------------------------------------------
    298.15    0.526993E-01    0.842349E+00    0.135286E+00    0.707064E+00
   ------------------------------------------------------------------------

         :::::::::::::::::::::::::::::::::::::::::::::::::::::
         ::                  THERMODYNAMIC                  ::
         :::::::::::::::::::::::::::::::::::::::::::::::::::::
         :: total free energy        -157.320368243067 Eh   ::
         ::.................................................::
         :: total energy             -158.027431989723 Eh   ::
         :: zero point energy           0.789650093903 Eh   ::
         :: G(RRHO) w/o ZPVE           -0.082586347247 Eh   ::
         :: G(RRHO) contrib.            0.707063746656 Eh   ::
         :::::::::::::::::::::::::::::::::::::::::::::::::::::

           -------------------------------------------------
          | TOTAL ENERGY             -158.027431989723 Eh   |
          | TOTAL ENTHALPY           -157.185082546673 Eh   |
          | TOTAL FREE ENERGY        -157.320368243067 Eh   |
          | GRADIENT NORM               0.000027193230 Eh/α |
          | HOMO-LUMO GAP               2.613898535603 eV   |
           -------------------------------------------------

 * finished run on 2025/08/30 at 07:30:08.184
