   * xtb version 6.7.1 (edcfbbe) compiled by 'albert@albert-system' on 2024-07-22

   ID    Z sym.   atoms
    1    6 C      1, 2, 4-9, 11-18, 20-26, 28-45, 47-63
    2    7 N      3, 19, 27, 46
    3   14 Si     10
    4    1 H      64-103

          program call               : xtb data2507/gas/SiCz2Py2/SiCz2Py2.xyz --gfn 2 --ohess vtight --parallel 40 --molden --ceasefiles --namespace data2507/gas/SiCz2Py2/SiCz2Py2_gas_S0_preOpt
          :  Hamiltonian                  GFN2-xTB          :
 * total energy  :  -157.9998268 Eh     change       -0.2880597E-08 Eh
 * total energy  :  -158.0208749 Eh     change       -0.2104808E-01 Eh
 * total energy  :  -158.0250137 Eh     change       -0.4138765E-02 Eh
 * total energy  :  -158.0256246 Eh     change       -0.6108766E-03 Eh
 * total energy  :  -158.0261504 Eh     change       -0.5258276E-03 Eh
 * total energy  :  -158.0264340 Eh     change       -0.2835992E-03 Eh
 * total energy  :  -158.0266696 Eh     change       -0.2356321E-03 Eh
 * total energy  :  -158.0268144 Eh     change       -0.1448379E-03 Eh
 * total energy  :  -158.0269208 Eh     change       -0.1063696E-03 Eh
 * total energy  :  -158.0270055 Eh     change       -0.8464682E-04 Eh
 * total energy  :  -158.0273201 Eh     change       -0.2494444E-06 Eh
 * total energy  :  -158.0273204 Eh     change       -0.2803247E-06 Eh
 * total energy  :  -158.0273207 Eh     change       -0.3482729E-06 Eh
 * total energy  :  -158.0273212 Eh     change       -0.5159833E-06 Eh
 * total energy  :  -158.0273220 Eh     change       -0.7048357E-06 Eh
 * total energy  :  -158.0273226 Eh     change       -0.6087101E-06 Eh
 * total energy  :  -158.0273230 Eh     change       -0.4715620E-06 Eh
 * total energy  :  -158.0273235 Eh     change       -0.4408017E-06 Eh
 * total energy  :  -158.0273235 Eh     change       -0.6377945E-08 Eh
   *** GEOMETRY OPTIMIZATION CONVERGED AFTER 68 ITERATIONS ***

 final structure:
================
103
 xtb: 6.7.1 (edcfbbe)
C            0.78874174101311        8.06224938178626        4.00625608822097
C            0.05642747651127        7.95705199331407        5.17951868799702
N           -0.62696188648282        6.87379488418689        5.50773786742495
C           -0.61628051024673        5.85048548539454        4.67667319909670
C            0.07291043165070        5.84009347932272        3.46214262928383
C            0.04023325253985        4.67104493083139        2.57674122837653
C            1.19369262397887        4.24113824785329        1.92355545208640
C            1.15895183051524        3.13786344968920        1.09471036944439
C           -0.02165795458720        2.43066814136638        0.88134595035396
Si          -0.05076361053992        0.94185285151009       -0.28800116055247
C           -0.17042585175628        1.53088316928935       -2.08357389400596
C            0.18540096832606        2.82446482514481       -2.45258581900100
C            0.10888884793334        3.24164806879533       -3.76674018699356
C           -0.32329011340073        2.36777821730539       -4.76209328113243
C           -0.40705074397767        2.80557213396962       -6.15956938081386
C           -0.02048264666019        1.97752498927553       -7.21240669498145
C           -0.11985701574299        2.44231514552889       -8.51164625995839
C           -0.60162281950174        3.72650440951501       -8.71808561829112
N           -0.97903196845782        4.52176392398588       -7.73150056393786
C           -0.88597640084611        4.07372498189762       -6.49516145918360
C           -0.68161290558613        1.07052716991701       -4.40049939871455
C           -0.60823421716498        0.66539660060868       -3.08297430002428
C           -1.55283325909293       -0.14643250429068        0.08887582889655
C           -2.81352202518887        0.20423041876566       -0.38825882546761
C           -3.92715777802446       -0.56201919596981       -0.10909490415763
C           -3.80378814279808       -1.70815527524094        0.67235477964722
N           -4.92900980522352       -2.48747645683448        0.96589449696773
C           -6.12897493023919       -2.01901097127083        1.46482819893776
C           -6.49176435333328       -0.73101806792370        1.83169593613377
C           -7.76296433315728       -0.53813996210196        2.33767357573970
C           -8.65544684063575       -1.59730227374498        2.48687875662421
C           -8.29167239826440       -2.88483101775980        2.14697221927196
C           -7.01907134904012       -3.10382472043966        1.63638209601035
C           -6.31471935175135       -4.28109567139877        1.21161792913694
C           -6.66107371818800       -5.62324711772524        1.12908645315123
C           -5.72968516483701       -6.51795113576074        0.64157794308006
C           -4.47252903360501       -6.08656591142146        0.22440161572656
C           -4.10482222344645       -4.75661976739601        0.29668279192686
C           -5.02758538696913       -3.85638008543570        0.80978201057467
C           -2.55017752843896       -2.07240876621893        1.15608765709354
C           -1.44478531892963       -1.29956176515734        0.85998917454439
C            1.54574591127467       -0.04486734785474       -0.03987788624396
C            2.04946225567563       -0.25992323707121        1.24067728627655
C            3.20180102620440       -0.99133569175082        1.44713563476018
C            3.89300187026838       -1.52043187350131        0.36009743927245
N            5.06791894030297       -2.25507070134532        0.55929890919142
C            5.35072734069839       -3.49218718596938        0.01379307544626
C            4.55983642033885       -4.31001124302933       -0.78049308071728
C            5.08104396626895       -5.52838792782998       -1.17179383938968
C            6.35417943219128       -5.93541268974597       -0.77923951146993
C            7.13551410558363       -5.13728127370897        0.03201960477857
C            6.63341269797163       -3.90809659951292        0.43844559808170
C            7.14559588323737       -2.86046462973647        1.27668908351792
C            8.34091113176447       -2.68355041428285        1.96087376749592
C            8.52804865955353       -1.51693370777963        2.67472265677163
C            7.54802182480315       -0.52720037620861        2.69857959488017
C            6.35086887526649       -0.68012454193602        2.02583180608765
C            6.14654590494957       -1.86150138765133        1.32739168984950
C            3.40669152216078       -1.30717765740581       -0.92691902649882
C            2.24578696647762       -0.58346273151877       -1.11498476185315
C           -1.16863459996194        2.86529550691565        1.53840548473440
C           -1.14282411088500        3.96337476777672        2.37526465589912
C            0.79462448304755        6.98722811914027        3.13549243070267
H            1.33424574706345        8.96484296777243        3.77712015267799
H            0.01185732698454        8.77178212378006        5.89000132882611
H           -1.17380045764230        4.98092583336612        5.00089200944411
H            2.12557329517668        4.76420207477144        2.08579032312469
H            2.06578368598387        2.81122044356920        0.60471385074063
H            0.52451918652506        3.51540081926962       -1.69398064061416
H            0.40441170500662        4.24644076019401       -4.03233586630114
H            0.37142202514338        0.99061553795533       -7.00987011551516
H            0.17626544918009        1.82502341258614       -9.34592657874547
H           -0.69108244081110        4.14074728623557       -9.71355017924098
H           -1.22723545950539        4.75473722662508       -5.72584379963444
H           -1.04073673693264        0.38553805606443       -5.15554063054670
H           -0.90203840117023       -0.34091457546527       -2.81839756454098
H           -2.91904027924900        1.08788374300389       -1.00187415761200
H           -4.89426640538357       -0.28948142666580       -0.50536701956642
H           -5.80166486360782        0.09391788632094        1.73760434550094
H           -8.07008462625395        0.45592832239402        2.62770136422074
H           -9.64111899189619       -1.40475848736921        2.88361903044479
H           -8.97684378221448       -3.70871821361280        2.27813428324560
H           -7.64139641525159       -5.95437027843264        1.43691243868457
H           -5.97758446656358       -7.56663538103278        0.57186490158357
H           -3.77012469762758       -6.80737725501628       -0.16769316061217
H           -3.13442141662217       -4.43036508446976       -0.04620774028041
H           -2.45408356455405       -2.95191424692798        1.77551846996025
H           -0.47654942337869       -1.59377237125857        1.23859356018281
H            1.52503082078490        0.15307226985415        2.09086616291501
H            3.56652085446580       -1.16987777517311        2.44797491315843
H            3.56477077630836       -4.01211500753416       -1.07512724789605
H            4.48611413652356       -6.18159189093076       -1.79314829995392
H            6.72671225851537       -6.89387653801925       -1.10882665118901
H            8.11537508759923       -5.45951123014941        0.35056979578987
H            9.10677910467001       -3.44369090524437        1.92814710930743
H            9.44918066124651       -1.36046013229198        3.21607485461287
H            7.72919323425030        0.38209675603430        3.25266962088485
H            5.60575741994293        0.10113428736058        2.03601130539742
H            3.95326354375375       -1.69686416971913       -1.77307163844033
H            1.88049340274132       -0.41947337362042       -2.11857720626532
H           -2.09579468131668        2.32984240082142        1.39190620827696
H           -2.04910975867694        4.29188913416546        2.86329875606765
H            1.33501005324699        7.03951359166053        2.20067191182269

          :  Hamiltonian                  GFN2-xTB          :
         :: gradient norm              0.000055755255 Eh/a0 ::
         :: HOMO-LUMO gap              2.604511241159 eV    ::
         :: SCC energy              -161.004079989353 Eh    ::
         :: -> dispersion             -0.144442585448 Eh    ::
         :: repulsion energy           2.976756507741 Eh    ::

    * Orbital Energies and Occupations

         #    Occupation            Energy/Eh            Energy/eV
      -------------------------------------------------------------
         1        2.0000           -0.7647419             -20.8097
       ...           ...                  ...                  ...
       136        2.0000           -0.4059307             -11.0459
       137        2.0000           -0.4047541             -11.0139
       138        2.0000           -0.4040418             -10.9945
       139        2.0000           -0.4017101             -10.9311
       140        2.0000           -0.3973231             -10.8117
       141        2.0000           -0.3940127             -10.7216
       142        2.0000           -0.3936933             -10.7129
       143        2.0000           -0.3786441             -10.3034
       144        2.0000           -0.3778583             -10.2820
       145        2.0000           -0.3691734             -10.0457
       146        2.0000           -0.3685956             -10.0300
       147        2.0000           -0.3630241              -9.8784
       148        2.0000           -0.3622031              -9.8560 (HOMO)
       149                         -0.2664891              -7.2515 (LUMO)
       150                         -0.2637310              -7.1765
       151                         -0.2534147              -6.8958
       152                         -0.2492243              -6.7817
       153                         -0.2483023              -6.7567
       154                         -0.2474994              -6.7348
       155                         -0.2429451              -6.6109
       156                         -0.2412979              -6.5660
       157                         -0.2340857              -6.3698
       158                         -0.2335218              -6.3545
       159                         -0.2304478              -6.2708
       ...                                ...                  ...
       297                          0.7468110              20.3218
      -------------------------------------------------------------
                  HL-Gap            0.0957140 Eh            2.6045 eV

     #   Z          covCN         q      C6AA      α(0)
     1   6 C        2.912    -0.039    28.970     8.826
     2   6 C        2.914     0.058    26.709     8.475
     3   7 N        1.835    -0.218    26.601     7.643
     4   6 C        2.918     0.056    26.751     8.481
     5   6 C        2.973     0.000    28.014     8.682
     6   6 C        2.977     0.009    27.802     8.649
     7   6 C        2.922    -0.033    28.833     8.806
     8   6 C        2.936    -0.031    28.775     8.797
     9   6 C        2.863    -0.095    30.387     9.036
    10  14 Si       3.615     0.487    98.209    19.022
    11   6 C        2.863    -0.095    30.390     9.036
    12   6 C        2.934    -0.031    28.784     8.799
    13   6 C        2.922    -0.034    28.842     8.807
    14   6 C        2.977     0.009    27.806     8.650
    15   6 C        2.972     0.000    28.015     8.682
    16   6 C        2.933    -0.016    28.421     8.743
    17   6 C        2.912    -0.039    28.971     8.826
    18   6 C        2.914     0.058    26.710     8.475
    19   7 N        1.835    -0.219    26.604     7.644
    20   6 C        2.918     0.056    26.751     8.482
    21   6 C        2.922    -0.033    28.834     8.806
    22   6 C        2.936    -0.031    28.780     8.798
    23   6 C        2.862    -0.099    30.479     9.049
    24   6 C        2.938    -0.031    28.762     8.796
    25   6 C        2.919    -0.043    29.080     8.843
    26   6 C        2.914     0.066    26.520     8.445
    27   7 N        2.802    -0.044    22.098     6.982
    28   6 C        3.075     0.047    26.873     8.499
    29   6 C        2.910    -0.051    29.263     8.870
    30   6 C        2.924    -0.033    28.833     8.806
    31   6 C        2.920    -0.041    29.012     8.833
    32   6 C        2.913    -0.033    28.816     8.803
    33   6 C        3.068    -0.017    28.360     8.732
    34   6 C        3.068    -0.017    28.359     8.732
    35   6 C        2.913    -0.033    28.817     8.803
    36   6 C        2.920    -0.041    29.015     8.833
    37   6 C        2.924    -0.034    28.837     8.806
    38   6 C        2.910    -0.051    29.269     8.871
    39   6 C        3.075     0.047    26.875     8.500
    40   6 C        2.920    -0.043    29.072     8.842
    41   6 C        2.935    -0.032    28.791     8.800
    42   6 C        2.862    -0.099    30.480     9.050
    43   6 C        2.938    -0.031    28.764     8.796
    44   6 C        2.919    -0.044    29.082     8.843
    45   6 C        2.914     0.066    26.524     8.445
    46   7 N        2.802    -0.045    22.099     6.982
    47   6 C        3.075     0.047    26.875     8.500
    48   6 C        2.910    -0.051    29.268     8.871
    49   6 C        2.924    -0.034    28.836     8.806
    50   6 C        2.920    -0.041    29.014     8.833
    51   6 C        2.913    -0.033    28.817     8.803
    52   6 C        3.068    -0.017    28.360     8.732
    53   6 C        3.068    -0.017    28.360     8.732
    54   6 C        2.913    -0.033    28.817     8.803
    55   6 C        2.920    -0.041    29.013     8.833
    56   6 C        2.924    -0.034    28.835     8.806
    57   6 C        2.910    -0.051    29.267     8.871
    58   6 C        3.075     0.047    26.874     8.499
    59   6 C        2.920    -0.043    29.075     8.842
    60   6 C        2.935    -0.032    28.790     8.800
    61   6 C        2.934    -0.031    28.779     8.798
    62   6 C        2.922    -0.034    28.838     8.806
    63   6 C        2.933    -0.016    28.420     8.743
    64   1 H        0.926     0.035     2.509     2.477
    65   1 H        0.925     0.039     2.465     2.455
    66   1 H        0.925     0.039     2.463     2.454
    67   1 H        0.926     0.030     2.581     2.512
    68   1 H        0.925     0.021     2.716     2.577
    69   1 H        0.926     0.024     2.680     2.560
    70   1 H        0.926     0.032     2.557     2.501
    71   1 H        0.926     0.035     2.519     2.482
    72   1 H        0.926     0.035     2.510     2.477
    73   1 H        0.925     0.039     2.465     2.455
    74   1 H        0.925     0.039     2.465     2.455
    75   1 H        0.926     0.031     2.578     2.511
    76   1 H        0.926     0.022     2.707     2.573
    77   1 H        0.926     0.025     2.656     2.549
    78   1 H        0.926     0.039     2.458     2.452
    79   1 H        0.926     0.026     2.638     2.540
    80   1 H        0.926     0.029     2.598     2.521
    81   1 H        0.926     0.028     2.610     2.527
    82   1 H        0.926     0.031     2.571     2.507
    83   1 H        0.926     0.031     2.570     2.507
    84   1 H        0.926     0.028     2.614     2.528
    85   1 H        0.926     0.029     2.605     2.524
    86   1 H        0.926     0.026     2.639     2.540
    87   1 H        0.926     0.039     2.455     2.450
    88   1 H        0.926     0.027     2.635     2.538
    89   1 H        0.926     0.025     2.652     2.547
    90   1 H        0.926     0.039     2.456     2.451
    91   1 H        0.926     0.027     2.635     2.539
    92   1 H        0.926     0.029     2.604     2.524
    93   1 H        0.926     0.028     2.613     2.528
    94   1 H        0.926     0.031     2.570     2.507
    95   1 H        0.926     0.031     2.570     2.507
    96   1 H        0.926     0.028     2.612     2.527
    97   1 H        0.926     0.029     2.604     2.523
    98   1 H        0.926     0.027     2.636     2.539
    99   1 H        0.926     0.039     2.463     2.454
   100   1 H        0.926     0.026     2.640     2.541
   101   1 H        0.926     0.023     2.683     2.562
   102   1 H        0.926     0.032     2.551     2.498
   103   1 H        0.926     0.035     2.519     2.482

molecular dipole:
                 x           y           z       tot (Debye)
 q only:        0.315       0.040      -0.378
   full:        0.656      -0.203      -0.677       2.452

 projected vibrational frequencies (cm⁻¹)
eigval :       -0.00    -0.00    -0.00    -0.00     0.00     0.00
eigval :        6.36     7.35     8.95     9.27    11.41    11.93
eigval :       14.46    18.90    22.77    36.23    38.66    43.85
eigval :       46.04    57.62    59.03    70.98    71.54    74.63
eigval :       78.70    79.63    84.14   103.17   103.67   109.55
eigval :      132.16   135.47   143.31   145.29   151.63   155.36
eigval :      164.64   174.57   185.65   192.04   213.75   219.33
eigval :      252.51   259.45   271.26   271.77   273.62   278.33
eigval :      284.41   296.53   315.83   326.15   338.38   359.46
eigval :      360.64   363.69   367.14   371.63   373.00   374.38
eigval :      376.08   387.02   388.37   394.00   400.32   400.83
eigval :      422.73   424.43   436.36   438.22   475.50   475.74
eigval :      482.30   483.79   512.83   516.37   518.82   518.96
eigval :      524.96   534.58   534.64   537.11   538.54   541.22
eigval :      541.24   581.41   581.49   594.88   595.16   595.48
eigval :      597.57   606.66   606.81   613.43   614.67   640.64
eigval :      663.92   664.97   668.28   673.85   673.89   679.41
eigval :      680.75   681.04   682.44   692.30   692.64   708.41
eigval :      708.50   740.26   747.37   758.70   760.44   769.51
eigval :      769.69   776.98   777.25   780.38   780.96   781.04
eigval :      784.78   810.16   811.59   814.09   815.22   867.63
eigval :      867.95   873.66   873.93   876.55   877.96   884.43
eigval :      886.07   897.99   898.03   902.38   902.39   902.92
eigval :      903.02   903.14   903.29   913.36   913.54   920.34
eigval :      920.82   921.45   921.82   922.17   923.76   927.81
eigval :      928.49   929.12   930.39   932.18   932.68   933.25
eigval :      934.24   936.38   938.36   977.92   978.42  1009.30
eigval :     1009.90  1012.12  1012.14  1014.74  1015.49  1070.52
eigval :     1070.57  1074.16  1074.19  1084.00  1084.30  1097.13
eigval :     1097.20  1118.12  1118.19  1137.55  1138.31  1138.37
eigval :     1139.30  1145.93  1147.03  1147.69  1152.05  1153.00
eigval :     1153.06  1154.17  1155.08  1177.04  1177.16  1181.38
eigval :     1181.43  1185.63  1187.03  1196.53  1196.72  1209.00
eigval :     1209.63  1209.85  1212.96  1236.84  1236.95  1246.52
eigval :     1246.59  1266.51  1266.60  1273.33  1274.98  1276.01
eigval :     1276.87  1281.85  1282.82  1297.83  1298.30  1300.67
eigval :     1300.77  1303.20  1303.29  1309.86  1309.93  1311.17
eigval :     1311.78  1357.30  1357.35  1361.91  1361.96  1365.74
eigval :     1366.94  1382.48  1383.12  1395.01  1396.02  1405.89
eigval :     1406.36  1428.35  1428.38  1428.77  1430.53  1443.97
eigval :     1444.07  1476.26  1476.31  1488.55  1488.56  1489.40
eigval :     1489.63  1490.97  1491.39  1551.48  1551.69  1555.01
eigval :     1555.57  1564.64  1564.76  1573.05  1573.17  1575.33
eigval :     1575.36  1587.44  1588.92  1590.05  1590.56  1594.18
eigval :     1595.28  1599.30  1599.40  1615.26  1615.46  3053.46
eigval :     3053.68  3060.93  3061.05  3061.96  3062.69  3068.05
eigval :     3068.40  3068.72  3068.78  3069.46  3069.81  3073.11
eigval :     3074.09  3075.93  3076.05  3076.32  3076.53  3076.91
eigval :     3077.26  3081.15  3081.19  3082.29  3082.29  3082.40
eigval :     3082.66  3087.28  3087.36  3088.44  3088.58  3089.02
eigval :     3089.40  3089.97  3090.15  3091.20  3091.36  3095.21
eigval :     3095.34  3096.97  3097.02

   temp. (K)  partition function   enthalpy   heat capacity  entropy
                                   cal/mol     cal/K/mol   cal/K/mol   J/K/mol
 298.15  VIB  0.155E+28            30698.952    187.276    197.172
         ROT  0.266E+09              888.752      2.981     41.528
         INT  0.412E+36            31587.704    190.257    238.700
         TR   0.228E+29             1481.254      4.968     45.973
         TOT                       33068.9578   195.2255   284.6730  1191.0719

       T/K    H(0)-H(T)+PV         H(T)/Eh          T*S/Eh         G(T)/Eh
   ------------------------------------------------------------------------
    298.15    0.526987E-01    0.842344E+00    0.135257E+00    0.707087E+00
   ------------------------------------------------------------------------

         :::::::::::::::::::::::::::::::::::::::::::::::::::::
         ::                  THERMODYNAMIC                  ::
         :::::::::::::::::::::::::::::::::::::::::::::::::::::
         :: total free energy        -157.320236750840 Eh   ::
         ::.................................................::
         :: total energy             -158.027323481605 Eh   ::
         :: zero point energy           0.789645323279 Eh   ::
         :: G(RRHO) w/o ZPVE           -0.082558592514 Eh   ::
         :: G(RRHO) contrib.            0.707086730765 Eh   ::
         :::::::::::::::::::::::::::::::::::::::::::::::::::::

           -------------------------------------------------
          | TOTAL ENERGY             -158.027323481605 Eh   |
          | TOTAL ENTHALPY           -157.184979419652 Eh   |
          | TOTAL FREE ENERGY        -157.320236750840 Eh   |
          | GRADIENT NORM               0.000055767568 Eh/α |
          | HOMO-LUMO GAP               2.604509945680 eV   |
           -------------------------------------------------

 * finished run on 2025/08/30 at 07:15:00.963
