   * xtb version 6.7.1 (edcfbbe) compiled by 'albert@albert-system' on 2024-07-22

   ID    Z sym.   atoms
    1    6 C      1, 2, 4-9, 11-18, 20-26, 28-45, 47-63
    2    7 N      3, 19, 27, 46
    3   14 Si     10
    4    1 H      64-103

          program call               : xtb data2507/gas/SiCz2Py2/SiCz2Py2_gas_T1_crest.xyz --gfn 2 --spinpol --tblite --uhf 2 --ohess vtight --parallel 40 --molden --ceasefiles --namespace data2507/gas/SiCz2Py2/SiCz2Py2_gas_T1_finalOpt
 * total energy  :  -157.9258997 Eh     change       -0.2569917E-07 Eh
 * total energy  :  -157.9259157 Eh     change       -0.1598979E-04 Eh
 * total energy  :  -157.9259384 Eh     change       -0.2275943E-04 Eh
 * total energy  :  -157.9259467 Eh     change       -0.8246289E-05 Eh
 * total energy  :  -157.9259566 Eh     change       -0.9960953E-05 Eh
 * total energy  :  -157.9259636 Eh     change       -0.6994611E-05 Eh
 * total energy  :  -157.9259705 Eh     change       -0.6824330E-05 Eh
 * total energy  :  -157.9259735 Eh     change       -0.3023886E-05 Eh
 * total energy  :  -157.9259749 Eh     change       -0.1453788E-05 Eh
 * total energy  :  -157.9259766 Eh     change       -0.1697223E-05 Eh
 * total energy  :  -157.9260138 Eh     change       -0.4850782E-06 Eh
 * total energy  :  -157.9260144 Eh     change       -0.6244564E-06 Eh
 * total energy  :  -157.9260149 Eh     change       -0.5025598E-06 Eh
 * total energy  :  -157.9260153 Eh     change       -0.3737822E-06 Eh
 * total energy  :  -157.9260159 Eh     change       -0.5609031E-06 Eh
 * total energy  :  -157.9260165 Eh     change       -0.6699574E-06 Eh
 * total energy  :  -157.9260172 Eh     change       -0.7028475E-06 Eh
 * total energy  :  -157.9260180 Eh     change       -0.7334760E-06 Eh
 * total energy  :  -157.9260180 Eh     change       -0.6429488E-07 Eh
   *** GEOMETRY OPTIMIZATION CONVERGED AFTER 44 ITERATIONS ***

 final structure:
================
103
 xtb: 6.7.1 (edcfbbe)
C           -7.38714128422213        6.53068485055248        0.13174087695159
C           -7.25306293045146        7.18718855231506        1.35023068502179
N           -6.39258490118096        6.76845187344783        2.26648871598388
C           -5.65307025398992        5.71186415418995        2.04787948683946
C           -5.70959079642850        4.95549687272345        0.86471457273616
C           -4.86220430576877        3.79630866276131        0.66401816268096
C           -4.41967997370258        3.43580457814184       -0.61868112727312
C           -3.61884799585158        2.33531982984386       -0.80671738088249
C           -3.20212991524305        1.54001326162434        0.26626238299280
Si          -2.19640626545467       -0.01851154151694       -0.01256132482028
C           -3.19286203088416       -1.57881515264277       -0.29819991154377
C           -3.61402040255746       -2.37742889861834        0.77360326558999
C           -4.42236641356914       -3.46979191650957        0.58250014617904
C           -4.86483863934184       -3.83163554455407       -0.70266768528465
C           -5.70079597246041       -4.99089984089202       -0.91546506440298
C           -5.71334171999517       -5.72066605609482       -2.12376860182627
C           -6.54616759206952       -6.80584514594820       -2.27360008110755
C           -7.36289318900134       -7.17982528603587       -1.20986475312711
N           -7.36484000020714       -6.49022832861475       -0.07800709825161
C           -6.58839624405041       -5.45227341194217        0.07632041521280
C           -4.45741846908755       -3.02039220262795       -1.77735168448248
C           -3.65387732642194       -1.92629899112282       -1.57433203870111
C           -0.84611212075506       -0.25028105840866        1.30646318555920
C           -0.14792137766622       -1.45933767854819        1.35456755212395
C            1.16170599262154       -1.52382771092682        1.77629394632221
C            1.82425557439930       -0.35527921076473        2.15508501970468
N            3.20959901604130       -0.34998358694639        2.35098353089842
C            3.95328384492474       -1.26375334893489        3.06511043464032
C            3.52714997684474       -2.29578504622118        3.88973068933102
C            4.49318646574474       -3.06227577888726        4.51521441421772
C            5.85093154202807       -2.80613053230094        4.33643960522625
C            6.28103434012084       -1.76274936008437        3.53760503278973
C            5.33076104537756       -0.97955826346632        2.89869672618329
C            5.40949912099925        0.15779354852582        2.02524015902952
C            6.46537846200830        0.86831163051230        1.47294141861794
C            6.18355460562808        1.90719288772529        0.60545647404023
C            4.87063378677211        2.22877490095587        0.27373561202204
C            3.80178804154413        1.53681013733986        0.81407517972726
C            4.07737832676129        0.51049591611089        1.70640444351682
C            1.10255141594761        0.83594694842699        2.24501897371633
C           -0.20694976651624        0.87955225557850        1.82227362631228
C           -0.83977743958959        0.22548761412375       -1.32377345876966
C           -0.15066835398368        1.43994454219293       -1.36586098971565
C            1.16098673079077        1.51524517627334       -1.77979436518785
C            1.83472405517494        0.35267360128456       -2.15657770182783
N            3.22134949962888        0.35838868995657       -2.34454573910707
C            4.09199936597691       -0.49538229478981       -1.69500355018586
C            3.81918131423296       -1.52391872370658       -0.80437874898079
C            4.89018439617361       -2.20775898711007       -0.25805651587271
C            6.20251334983333       -1.87614854835182       -0.58230627475618
C            6.48131137005357       -0.83512969602037       -1.44810951273848
C            5.42317346224567       -0.13254117488544       -2.00632777140905
C            5.34071528422596        1.00426604743627       -2.88002548038677
C            6.28861876187056        1.79485956310932       -3.51342545644382
C            5.85517838909185        2.83520931512512       -4.31428805341981
C            4.49653079710170        3.08124169922194       -4.50043500946158
C            3.53284912428823        2.30726861634186       -3.88061346905993
C            3.96207314166534        1.27804255729152       -3.05411731348268
C            1.12287685456093       -0.84402076266419       -2.25234427996330
C           -0.18852053334911       -0.89863408481442       -1.83671291918128
C           -3.66296718256678        1.88913585825783        1.54071652412209
C           -4.45777617400189        2.99211960553141        1.74060666689387
C           -6.61913367515660        5.41200213788539       -0.10829062063378
H           -8.09479539846187        6.88847897579186       -0.60064233540183
H           -7.83945730416500        8.05792700129500        1.60339925806969
H           -4.95284025275380        5.45857508340424        2.83256042263255
H           -4.69152451838925        4.04862555654291       -1.46633728527783
H           -3.28581169360978        2.08363470630013       -1.80424824901770
H           -3.27964503188819       -2.12957890023239        1.77151486932144
H           -4.69906517970922       -4.08044049322360        1.42996831905875
H           -5.04207343609315       -5.44259719422885       -2.92256947387297
H           -6.55827765000898       -7.37777356016269       -3.18901707179171
H           -8.01866557370643       -8.03581783268888       -1.25647376976000
H           -6.68835454607321       -4.92561157334288        1.01557233684529
H           -4.80147369336580       -3.24886935746708       -2.77585788470408
H           -3.36082400035006       -1.31883659550652       -2.41946968513835
H           -0.63232627182206       -2.35742503994674        0.99892952549498
H            1.70410435486984       -2.45770071677459        1.74136441784108
H            2.47690414194997       -2.48823371753872        4.04758974142694
H            4.18872652601197       -3.87402315409628        5.15884772452203
H            6.57517851991054       -3.42909308489661        4.83974261115946
H            7.33320155001261       -1.55626646563804        3.41369213880559
H            7.48481907675741        0.60690478083746        1.71206800556994
H            6.99070182893658        2.47108621193007        0.16284041901036
H            4.68428433440807        3.02970851057626       -0.42650434107623
H            2.78650693317511        1.77494377145806        0.53562518011845
H            1.59134490563650        1.72326765563757        2.62069163028562
H           -0.74264029201287        1.81742145890573        1.85228723387484
H           -0.64397341798143        2.33391096774041       -1.01197930466925
H            1.69571614232381        2.45337430649971       -1.74053983306835
H            2.80415975034259       -1.76979001851139       -0.53168274954100
H            4.70599308976045       -3.01012592013093        0.44112356285027
H            7.01139838887298       -2.43389797232127       -0.13508942157863
H            7.50006846838430       -0.56594525412004       -1.68148956288468
H            7.34160729101565        1.59630254373502       -3.38362084228628
H            6.57748151516419        3.46385524407217       -4.81331284362681
H            4.18958671956991        3.89108426596954       -5.14531814942315
H            2.48204547313505        2.49209390466770       -4.04391398252957
H            1.62095225826108       -1.72698946292057       -2.62612157929711
H           -0.71651945596266       -1.84072899980509       -1.87018040244210
H           -3.37532817369345        1.28028447988043        2.38641297306395
H           -4.80090863805266        3.22788718161695        2.73785055239770
H           -6.73384976372871        4.86500912853928       -1.03238926785789

 projected vibrational frequencies (cm⁻¹)
eigval :       -0.00    -0.00    -0.00     0.00     0.00     0.00
eigval :        8.50    10.65    11.11    12.40    13.45    16.90
eigval :       23.28    27.97    35.27    40.50    43.55    45.40
eigval :       57.94    59.82    63.32    70.53    75.29    82.66
eigval :       86.68    90.77    98.71   106.48   108.91   113.30
eigval :      120.03   144.74   147.54   149.37   155.71   172.31
eigval :      172.69   176.80   177.87   198.85   212.38   220.55
eigval :      250.87   258.55   261.10   272.06   272.33   272.86
eigval :      286.88   300.04   308.21   318.44   323.24   331.25
eigval :      354.10   363.73   365.57   366.00   370.57   378.34
eigval :      379.52   386.66   389.07   398.85   401.12   406.03
eigval :      419.79   422.08   435.07   437.18   441.84   450.31
eigval :      460.13   462.17   484.46   493.13   509.36   510.11
eigval :      516.09   516.86   520.41   536.11   536.53   542.31
eigval :      542.51   562.29   572.85   579.63   580.03   591.05
eigval :      591.07   599.51   602.68   610.77   611.43   628.76
eigval :      641.57   643.89   652.78   654.18   656.38   659.27
eigval :      667.12   671.40   672.45   679.21   683.95   706.02
eigval :      706.80   709.75   732.32   736.56   746.09   756.67
eigval :      756.87   766.71   767.80   768.73   770.13   776.78
eigval :      777.38   784.33   789.58   800.05   801.55   820.25
eigval :      843.80   849.19   853.07   856.63   859.00   862.99
eigval :      865.24   869.60   871.34   874.11   874.44   894.23
eigval :      896.01   896.32   900.75   901.07   901.87   901.99
eigval :      902.42   907.02   910.48   912.70   916.16   917.20
eigval :      918.55   918.68   920.92   923.03   923.95   925.07
eigval :      928.64   928.89   929.41   933.13   934.18   979.23
eigval :      985.59  1004.15  1005.15  1010.97  1011.54  1050.79
eigval :     1062.86  1064.72  1067.59  1068.70  1072.88  1077.20
eigval :     1084.88  1087.90  1094.95  1111.66  1116.05  1116.32
eigval :     1129.82  1131.75  1133.70  1135.84  1137.96  1146.43
eigval :     1146.77  1148.22  1150.70  1166.88  1171.04  1173.93
eigval :     1178.26  1178.84  1179.48  1180.44  1180.99  1197.89
eigval :     1206.39  1206.74  1211.74  1232.58  1233.26  1235.28
eigval :     1239.75  1240.53  1253.10  1255.67  1267.04  1269.29
eigval :     1272.39  1273.22  1276.52  1289.39  1289.79  1291.97
eigval :     1294.57  1296.75  1298.21  1312.82  1318.06  1318.51
eigval :     1318.91  1344.00  1345.98  1347.93  1352.73  1353.32
eigval :     1359.35  1361.72  1370.98  1389.42  1395.68  1397.42
eigval :     1401.74  1411.24  1414.48  1414.90  1415.40  1420.94
eigval :     1421.35  1424.39  1430.70  1449.86  1462.35  1462.62
eigval :     1463.44  1466.10  1467.20  1477.38  1482.93  1483.13
eigval :     1484.80  1485.86  1493.24  1512.55  1517.83  1540.39
eigval :     1548.08  1554.23  1560.28  1560.84  1563.72  1578.10
eigval :     1579.18  1580.16  1580.40  1586.77  1589.46  3055.99
eigval :     3056.70  3057.17  3058.64  3059.74  3061.76  3067.67
eigval :     3068.69  3070.02  3070.85  3072.18  3073.15  3074.39
eigval :     3075.42  3076.27  3076.49  3077.99  3078.35  3078.48
eigval :     3079.59  3079.76  3080.04  3080.72  3081.03  3082.09
eigval :     3082.34  3084.74  3085.03  3085.88  3086.44  3089.23
eigval :     3089.94  3091.71  3092.07  3092.79  3093.75  3097.58
eigval :     3098.16  3098.40  3099.00

   temp. (K)  partition function   enthalpy   heat capacity  entropy
                                   cal/mol     cal/K/mol   cal/K/mol   J/K/mol
 298.15  VIB  0.383E+26            30908.935    191.504    195.233
         ROT  0.200E+09              888.752      2.981     40.970
         INT  0.767E+34            31797.687    194.485    236.203
         TR   0.228E+29             1481.254      4.968     45.973
         TOT                       33278.9414   199.4529   282.1757  1180.6233

       T/K    H(0)-H(T)+PV         H(T)/Eh          T*S/Eh         G(T)/Eh
   ------------------------------------------------------------------------
    298.15    0.530334E-01    0.835407E+00    0.134071E+00    0.701336E+00
   ------------------------------------------------------------------------

         :::::::::::::::::::::::::::::::::::::::::::::::::::::
         ::                  THERMODYNAMIC                  ::
         :::::::::::::::::::::::::::::::::::::::::::::::::::::
         :: total free energy        -157.224682230550 Eh   ::
         ::.................................................::
         :: total energy             -157.926017970523 Eh   ::
         :: zero point energy           0.782373168763 Eh   ::
         :: G(RRHO) w/o ZPVE           -0.081037428790 Eh   ::
         :: G(RRHO) contrib.            0.701335739973 Eh   ::
         :::::::::::::::::::::::::::::::::::::::::::::::::::::

           -------------------------------------------------
          | TOTAL ENERGY             -157.926017970523 Eh   |
          | TOTAL ENTHALPY           -157.090611432995 Eh   |
          | TOTAL FREE ENERGY        -157.224682230550 Eh   |
          | GRADIENT NORM               0.000137527056 Eh/α |
           -------------------------------------------------

 * finished run on 2025/08/30 at 07:58:26.672
