   * xtb version 6.7.1 (edcfbbe) compiled by 'albert@albert-system' on 2024-07-22

   ID    Z sym.   atoms
    1    6 C      1, 2, 4-9, 11-18, 20-26, 28-45, 47-63
    2    7 N      3, 19, 27, 46
    3   14 Si     10
    4    1 H      64-103

          program call               : xtb data2507/gas/SiCz2Py2/SiCz2Py2_gas_S0_finalOpt.xtbopt.xyz --gfn 2 --spinpol --tblite --uhf 2 --ohess vtight --parallel 40 --molden --ceasefiles --namespace data2507/gas/SiCz2Py2/SiCz2Py2_gas_T1_preOpt
 * total energy  :  -157.9215758 Eh     change        0.8540678E-07 Eh
 * total energy  :  -157.9232961 Eh     change       -0.1720282E-02 Eh
 * total energy  :  -157.9243502 Eh     change       -0.1054107E-02 Eh
 * total energy  :  -157.9247049 Eh     change       -0.3547434E-03 Eh
 * total energy  :  -157.9250551 Eh     change       -0.3501202E-03 Eh
 * total energy  :  -157.9253071 Eh     change       -0.2520355E-03 Eh
 * total energy  :  -157.9255149 Eh     change       -0.2078487E-03 Eh
 * total energy  :  -157.9257424 Eh     change       -0.2274967E-03 Eh
 * total energy  :  -157.9261081 Eh     change       -0.3656140E-03 Eh
 * total energy  :  -157.9266040 Eh     change       -0.4959075E-03 Eh
 * total energy  :  -157.9281440 Eh     change       -0.3256544E-05 Eh
 * total energy  :  -157.9281501 Eh     change       -0.6025368E-05 Eh
 * total energy  :  -157.9281519 Eh     change       -0.1796794E-05 Eh
 * total energy  :  -157.9281533 Eh     change       -0.1432429E-05 Eh
 * total energy  :  -157.9281544 Eh     change       -0.1092630E-05 Eh
 * total energy  :  -157.9281536 Eh     change        0.7439895E-06 Eh
 * total energy  :  -157.9281547 Eh     change       -0.1108203E-05 Eh
 * total energy  :  -157.9281550 Eh     change       -0.2151073E-06 Eh
 * total energy  :  -157.9281550 Eh     change       -0.5407054E-07 Eh
   *** GEOMETRY OPTIMIZATION CONVERGED AFTER 44 ITERATIONS ***

 final structure:
================
103
 xtb: 6.7.1 (edcfbbe)
C            0.09382200393941        6.78276951913898        6.07161344184160
C            0.09676741775797        6.11213289137511        7.28570478880121
N            0.08222598491922        4.79343366822485        7.37897621118762
C            0.05743749904747        4.08527978511968        6.26751440751742
C            0.04189126292518        4.64459075518697        4.98791686154042
C            0.01187996427476        3.80095961868062        3.78850303056296
C            0.78188370577820        4.12344006855150        2.67264546973416
C            0.75711486304495        3.32096304716932        1.54979244362188
C           -0.03302074050187        2.17597131678133        1.49611940255872
Si          -0.02889076916071        1.08935030657155       -0.05780173887408
C           -0.05639444702165        2.17486754202976       -1.58033413179642
C           -0.87789712564814        3.32676985872097       -1.63112341828502
C           -0.96179441646333        4.10478522418709       -2.74323754939040
C           -0.18651384224939        3.82942818263866       -3.91716274245249
C           -0.18951904896648        4.68128768546186       -5.03385049140408
C            0.76712404486901        4.62164875406964       -6.10925560123061
C            0.65251306640320        5.41859680499153       -7.20807084928527
C           -0.38511190770475        6.36887319322526       -7.26575029079617
N           -1.31059609001153        6.37908132119477       -6.31268747883687
C           -1.25857398274518        5.61465905344487       -5.27625000373224
C            0.64174795223642        2.65920817203337       -3.85452168055882
C            0.70734785295999        1.89004900861473       -2.73414655863459
C           -1.52306246110191       -0.08081585700807        0.01787183262252
C           -2.67435965432444        0.16415577876156       -0.72322352429494
C           -3.75487800726448       -0.69493490505822       -0.67877464497440
C           -3.70752566072734       -1.82847211670335        0.12786743120254
N           -4.79819709814182       -2.70719386254748        0.18002512716748
C           -6.11334776593147       -2.35097608892555        0.39904096181849
C           -6.65897923177370       -1.10175622597814        0.66033630599743
C           -8.02255414643034       -1.02537092942328        0.87088552879164
C           -8.82931135750073       -2.16032482863408        0.83359814119888
C           -8.28831606788387       -3.40959431376439        0.59895954135027
C           -6.92104483255637       -3.51186761665166        0.38406469406610
C           -6.03888470404024       -4.61898633630789        0.13750392827146
C           -6.23695860466040       -5.98554182768741       -0.00175676496575
C           -5.14413842709524       -6.78918754180015       -0.26308179776592
C           -3.87004492612081       -6.24348456198489       -0.40136235004297
C           -3.64781874618436       -4.88621907491876       -0.26747293800019
C           -4.73790917597112       -4.07671289357822        0.02069954420946
C           -2.56450175726461       -2.08623898645446        0.87990980201474
C           -1.48950367070761       -1.22271497667613        0.81402423242299
C            1.51311713832118       -0.01204590277359       -0.05724025385279
C            2.62973346038644        0.28494028926965        0.71644758336124
C            3.74977464159802       -0.52318555895995        0.70248073468101
C            3.77855851982074       -1.65530553290229       -0.10676799725088
N            4.91082265210570       -2.48133675788584       -0.12890652883867
C            4.91234915741587       -3.85136139910628        0.03564738691002
C            3.85534277961159       -4.71066725875443        0.30184184003176
C            4.13891256029465       -6.05500395666499        0.44942538497598
C            5.44072920572389       -6.53951564755859        0.34533531289301
C            6.49988197338228       -5.68587049961583        0.10470601176895
C            6.24022570210407       -4.33106512181796       -0.04764551232873
C            7.07380201796442       -3.18395539357221       -0.28014878472200
C            8.43901746327316       -3.01664696154560       -0.46538411340373
C            8.92423348599758       -1.74371813201237       -0.69484544178942
C            8.06495408025361       -0.64898047295607       -0.75540229265656
C            6.70232679855153       -0.79010989940936       -0.57438337876785
C            6.21191292710378       -2.06328359805184       -0.31948281417268
C            2.67129409638934       -1.96389843015540       -0.89225420429339
C            1.55657810088461       -1.15049344770449       -0.85719280717926
C           -0.80662017302979        1.86647241098356        2.60987457025540
C           -0.78503473225055        2.65924333192015        3.74055568094148
C            0.06447382624878        6.03629916666122        4.90718260548155
H            0.10716861625225        7.86145935772871        6.03914095021455
H            0.11135331893454        6.64821404536405        8.22535707870249
H            0.06722269197592        3.01070652313342        6.39876184135384
H            1.41779784130746        4.99722043407207        2.69683630104500
H            1.35863258150979        3.58665527875509        0.69172812913610
H           -1.46372646904285        3.57773808117937       -0.75689825868039
H           -1.61120459862995        4.96747523256626       -2.73483394079586
H            1.62290054275903        3.97253269521428       -6.01115990222817
H            1.38714130109972        5.39432680651354       -7.99859773101678
H           -0.45373247850361        7.11705267725099       -8.03712519094898
H           -2.12852310040281        5.62010103132750       -4.63579527810815
H            1.23154581693852        2.38870333601842       -4.71686694850927
H            1.35689457849881        1.02534137264358       -2.72026593373140
H           -2.71624395256672        1.03810398034294       -1.35689630828940
H           -4.63188874708665       -0.50603870598053       -1.28034676045964
H           -6.03936590301358       -0.21916062832309        0.70905685124565
H           -8.47210125054873       -0.06434848223588        1.07249569043697
H           -9.89123083940142       -2.05852146918009        1.00038540166822
H           -8.91143507043196       -4.29099514497422        0.58631048269570
H           -7.22673624328164       -6.40674207501953        0.08875683274172
H           -5.27620895499903       -7.85527932161643       -0.37209353142437
H           -3.03756984841473       -6.89518932684236       -0.62194505778630
H           -2.65981660388958       -4.47035330572981       -0.39496135512609
H           -2.53407673291811       -2.95429658716775        1.52226942923141
H           -0.60405529417778       -1.43431764065553        1.39705922742062
H            2.61493402603793        1.15838828705185        1.35214575636040
H            4.59982387286241       -0.29491547777634        1.32871051926104
H            2.84577163512125       -4.34166944584329        0.40195100659903
H            3.33351968471266       -6.74487723620106        0.65389258290283
H            5.62101548215796       -7.59742857944740        0.46451641789937
H            7.51050547970238       -6.05971995738249        0.04023975679906
H            9.10349717476254       -3.86683955807784       -0.43443147308877
H            9.98343371770484       -1.59159260256877       -0.83920520740003
H            8.47223882501706        0.33173358291151       -0.95200237224336
H            6.04176337283111        0.06111073468107       -0.64075562323344
H            2.69980579332962       -2.83124639891533       -1.53564325693670
H            0.69908856610658       -1.40018302274830       -1.46585438161180
H           -1.43960397374895        0.99067331992667        2.58776192205210
H           -1.40597632565151        2.40735102986836        4.58844394453011
H            0.03891020746770        6.52309296232682        3.94236865329154

 projected vibrational frequencies (cm⁻¹)
eigval :       -0.00    -0.00    -0.00     0.00     0.00     0.00
eigval :        5.65     6.60     7.76     9.02    10.81    11.87
eigval :       14.32    16.71    19.69    36.87    37.85    42.58
eigval :       47.27    52.58    58.06    70.77    72.04    73.34
eigval :       78.43    81.29    88.84   102.94   103.54   110.14
eigval :      128.74   135.05   138.04   143.10   144.39   153.98
eigval :      156.32   170.74   182.25   195.70   209.98   215.34
eigval :      237.21   250.78   260.31   271.14   271.36   274.72
eigval :      285.56   295.83   315.85   328.84   331.48   350.14
eigval :      357.27   360.21   365.58   370.28   372.00   374.78
eigval :      386.36   387.52   388.69   396.95   400.57   401.54
eigval :      418.01   421.76   423.86   435.21   436.84   446.86
eigval :      474.83   480.32   483.10   502.15   513.13   517.29
eigval :      517.84   518.58   536.20   536.48   536.65   539.87
eigval :      539.96   561.62   581.14   581.17   584.47   590.00
eigval :      594.04   594.97   597.33   605.86   613.08   614.03
eigval :      618.99   633.83   656.97   660.82   664.19   673.95
eigval :      674.05   678.03   679.58   680.37   681.87   691.50
eigval :      708.88   708.94   724.55   740.05   743.52   758.34
eigval :      759.13   766.88   769.24   769.47   773.25   776.95
eigval :      779.63   780.05   780.63   790.59   804.38   809.27
eigval :      809.75   813.92   867.01   867.49   872.77   872.91
eigval :      875.45   876.84   883.86   884.62   897.86   897.92
eigval :      901.20   901.42   903.03   903.24   903.32   903.49
eigval :      911.91   912.07   920.09   920.45   921.16   921.23
eigval :      922.25   922.86   927.72   928.79   929.25   931.50
eigval :      932.27   933.46   935.94   936.79   958.60   973.40
eigval :      990.10  1006.02  1011.82  1011.87  1013.80  1014.84
eigval :     1056.72  1069.49  1069.65  1072.86  1073.13  1083.86
eigval :     1096.57  1114.20  1117.62  1117.74  1120.15  1133.95
eigval :     1137.32  1137.77  1138.22  1144.19  1147.26  1149.12
eigval :     1150.27  1150.46  1151.08  1152.35  1176.55  1176.64
eigval :     1180.61  1180.75  1184.66  1185.31  1195.11  1201.38
eigval :     1208.16  1208.73  1211.26  1223.47  1235.34  1235.56
eigval :     1243.57  1244.80  1245.22  1260.97  1265.81  1273.08
eigval :     1273.93  1277.13  1282.82  1297.24  1298.58  1298.63
eigval :     1298.97  1299.59  1309.50  1309.84  1311.01  1311.20
eigval :     1312.09  1332.03  1353.97  1355.79  1356.32  1356.50
eigval :     1363.22  1363.98  1364.75  1382.61  1388.29  1393.80
eigval :     1395.30  1405.84  1422.95  1423.12  1427.35  1428.32
eigval :     1443.58  1447.95  1469.55  1471.25  1471.46  1484.43
eigval :     1484.95  1486.20  1487.17  1487.41  1490.74  1506.17
eigval :     1550.74  1553.79  1554.92  1561.57  1566.85  1571.74
eigval :     1571.82  1582.32  1583.03  1585.23  1587.61  1589.84
eigval :     1592.12  1592.24  1592.78  1609.12  1611.74  3052.62
eigval :     3053.91  3057.26  3060.97  3063.46  3063.62  3066.22
eigval :     3067.69  3069.70  3069.92  3074.65  3075.56  3076.64
eigval :     3077.88  3078.19  3078.29  3078.73  3078.92  3079.78
eigval :     3079.94  3083.07  3083.19  3084.33  3084.42  3085.10
eigval :     3085.60  3086.15  3087.34  3087.99  3090.41  3090.66
eigval :     3091.07  3091.92  3092.17  3093.92  3096.71  3096.89
eigval :     3097.39  3098.25  3105.94

   temp. (K)  partition function   enthalpy   heat capacity  entropy
                                   cal/mol     cal/K/mol   cal/K/mol   J/K/mol
 298.15  VIB  0.547E+28            31116.947    189.824    200.133
         ROT  0.264E+09              888.752      2.981     41.514
         INT  0.144E+37            32005.699    192.804    241.647
         TR   0.228E+29             1481.254      4.968     45.973
         TOT                       33486.9533   197.7726   287.6195  1203.4002

       T/K    H(0)-H(T)+PV         H(T)/Eh          T*S/Eh         G(T)/Eh
   ------------------------------------------------------------------------
    298.15    0.533649E-01    0.838072E+00    0.136657E+00    0.701415E+00
   ------------------------------------------------------------------------

         :::::::::::::::::::::::::::::::::::::::::::::::::::::
         ::                  THERMODYNAMIC                  ::
         :::::::::::::::::::::::::::::::::::::::::::::::::::::
         :: total free energy        -157.226740150300 Eh   ::
         ::.................................................::
         :: total energy             -157.928155056150 Eh   ::
         :: zero point energy           0.784707376972 Eh   ::
         :: G(RRHO) w/o ZPVE           -0.083292471123 Eh   ::
         :: G(RRHO) contrib.            0.701414905849 Eh   ::
         :::::::::::::::::::::::::::::::::::::::::::::::::::::

           -------------------------------------------------
          | TOTAL ENERGY             -157.928155056150 Eh   |
          | TOTAL ENTHALPY           -157.090082822303 Eh   |
          | TOTAL FREE ENERGY        -157.226740150300 Eh   |
          | GRADIENT NORM               0.000067219439 Eh/α |
           -------------------------------------------------

 * finished run on 2025/08/30 at 07:30:34.896
