   * xtb version 6.7.1 (edcfbbe) compiled by 'albert@albert-system' on 2024-07-22

   ID    Z sym.   atoms
    1    6 C      1, 2, 4, 6, 8-24, 26-29, 33-40
    2    8 O      3, 5, 7, 31, 32
    3    7 N      25
    4   16 S      30
    5    1 H      41-67

          program call               : xtb data2507/gas/CzSO-1CO/CzSO-1CO_gas_T1_crest.xyz --gfn 2 --spinpol --tblite --uhf 2 --ohess vtight --parallel 40 --molden --ceasefiles --namespace data2507/gas/CzSO-1CO/CzSO-1CO_gas_T1_finalOpt
 * total energy  :  -110.8586332 Eh     change        0.3309532E-07 Eh
 * total energy  :  -110.8587387 Eh     change       -0.1054829E-03 Eh
 * total energy  :  -110.8587986 Eh     change       -0.5991961E-04 Eh
 * total energy  :  -110.8588069 Eh     change       -0.8327878E-05 Eh
 * total energy  :  -110.8588164 Eh     change       -0.9506547E-05 Eh
 * total energy  :  -110.8588201 Eh     change       -0.3643813E-05 Eh
 * total energy  :  -110.8588263 Eh     change       -0.6241472E-05 Eh
 * total energy  :  -110.8588304 Eh     change       -0.4094122E-05 Eh
 * total energy  :  -110.8588348 Eh     change       -0.4442114E-05 Eh
 * total energy  :  -110.8588389 Eh     change       -0.4040602E-05 Eh
 * total energy  :  -110.8588594 Eh     change       -0.2047488E-05 Eh
 * total energy  :  -110.8588611 Eh     change       -0.1657756E-05 Eh
 * total energy  :  -110.8588622 Eh     change       -0.1152185E-05 Eh
 * total energy  :  -110.8588631 Eh     change       -0.9181315E-06 Eh
 * total energy  :  -110.8588639 Eh     change       -0.7131755E-06 Eh
 * total energy  :  -110.8588642 Eh     change       -0.2912859E-06 Eh
 * total energy  :  -110.8588650 Eh     change       -0.8853790E-06 Eh
 * total energy  :  -110.8588654 Eh     change       -0.3785590E-06 Eh
 * total energy  :  -110.8588655 Eh     change       -0.5287366E-07 Eh
   *** GEOMETRY OPTIMIZATION CONVERGED AFTER 25 ITERATIONS ***

 final structure:
================
67
 xtb: 6.7.1 (edcfbbe)
C            5.37586211171325       -2.04106359330868        0.78007777463209
C            4.55229235328016       -1.21215660984706       -0.22268810485108
O            5.38163423988839       -0.06982881772446       -0.48997557051704
C            4.99202182335963        0.85979079258589       -1.44394946020701
O            3.77601380771002        1.51751809188541       -1.14736910593280
C            2.65149191487757        1.02825315074344       -1.73300439726493
O            2.68255489481968        0.19196900286429       -2.61339427762045
C            1.41311806029828        1.62110672097749       -1.21233349996233
C            0.19925818302990        1.18448285398931       -1.75095704340798
C           -0.99579955357692        1.66238630201272       -1.25519568391213
C           -0.99385667462427        2.59303149016549       -0.22616840229574
C            0.20777894309650        3.05385357008945        0.29097741305673
C            1.40901787722618        2.57392852137337       -0.19365159605811
C            4.27469776427389       -2.08141069885828       -1.47378738649134
C            3.21518017472803       -3.09115503237434       -1.24689663944227
C            2.05413848400287       -2.75884267322407       -0.53677311184051
C            2.04535257256775       -1.59224387975117        0.18865672533625
C            3.26115474312567       -0.82934708483926        0.41360657475145
C            2.97035340883021        0.13477026071930        1.37523971881737
C            3.75720019404749        1.12015147048152        1.99833196359135
C            3.15348994266370        1.96799662587800        2.90393980649706
C            1.79371379701301        1.87518260121933        3.17272272756900
C            0.98773243976535        0.90882799114515        2.55899946758386
C            1.57991076822376        0.02504870305917        1.69004969371522
N            1.03714967210010       -1.02669445620323        0.95032211235124
C           -0.31919491238794       -1.28802920537831        0.79817358587252
C           -0.83926852916621       -1.54923499038484       -0.47587899952432
C           -2.19855210077742       -1.68249043293966       -0.65157126018426
C           -3.04662075860453       -1.57683446067277        0.43831777323905
S           -4.80688058674304       -1.47199213515652        0.14976657199318
O           -5.16757602509238       -2.29345187659065       -0.97516319500220
O           -5.50773444726015       -1.65634842301946        1.39304990438766
C           -4.90545862273443        0.25699387299536       -0.33643373969720
C           -4.90531740969232        1.22745983739668        0.64686427148542
C           -4.87463403366332        2.56236995905118        0.28011741166020
C           -4.83460122395798        2.90934194430845       -1.06202179872531
C           -4.83727485722742        1.92734442283255       -2.04043203556401
C           -4.87054641322099        0.59107338252328       -1.67624633627938
C           -2.54304219651124       -1.38805735556145        1.71338975014085
C           -1.18249008378638       -1.25912399186390        1.89948101870839
H            6.34188534632818       -2.27715624621062        0.34301901969157
H            4.84518673635546       -2.95827087306159        1.01835291910569
H            5.53220653444991       -1.46413585566764        1.68685401416415
H            5.77100702949162        1.62816847042982       -1.41996599067518
H            4.92432403098566        0.42196441785338       -2.45226601531092
H            0.22423741723015        0.47235161217952       -2.56149508820252
H           -1.93363847618031        1.31552941432526       -1.66349593662222
H           -1.93182179099868        2.96044414530200        0.16334833372348
H            0.20740124449830        3.78937979835800        1.08154137994919
H            2.34607658649659        2.92251080975747        0.20948970039545
H            5.20194741351155       -2.54013612112400       -1.81871010699738
H            3.90883849926999       -1.41121219466137       -2.26649346788882
H            3.29446323808658       -4.04652001950998       -1.73615921126223
H            1.20208211903163       -3.42080584248742       -0.54499285713121
H            4.80389150359842        1.20037176302149        1.75355064548554
H            3.74081896557150        2.72480734373923        3.40232007900823
H            1.33868821449603        2.56555772395967        3.86640241735868
H           -0.07030588114236        0.89008649122780        2.76229148057121
H           -0.17128813254058       -1.60189130551401       -1.31995833641918
H           -2.62287276367220       -1.86271843376288       -1.62646060849286
H           -4.94542632301649        0.92322745420373        1.68090998351323
H           -4.88270731359933        3.33165867858725        1.03805902411206
H           -4.80548317433741        3.95056053011052       -1.34716807592078
H           -4.81264448927183        2.20337110867086       -3.08391366753019
H           -4.88465667948156       -0.19954623686709       -2.41013850238056
H           -3.23143324034045       -1.35821910531458        2.54333289177160
H           -0.77784437083796       -1.15394228103661        2.89336549366855

 projected vibrational frequencies (cm⁻¹)
eigval :       -0.00    -0.00    -0.00     0.00     0.00     0.00
eigval :        9.35    16.32    21.40    29.18    32.15    45.04
eigval :       51.10    66.70    69.09    90.20    99.81   113.40
eigval :      117.84   120.39   129.89   135.46   138.31   150.60
eigval :      162.64   180.97   186.43   193.92   198.57   217.31
eigval :      220.55   249.57   275.08   280.37   288.65   311.88
eigval :      313.89   338.84   344.24   349.52   362.84   369.02
eigval :      373.55   377.30   387.58   397.80   401.84   410.65
eigval :      414.21   426.49   437.56   446.97   474.81   480.90
eigval :      504.86   513.08   520.59   527.07   537.53   566.87
eigval :      581.86   585.15   587.06   593.30   604.42   621.37
eigval :      632.33   643.48   652.34   656.95   668.19   678.40
eigval :      682.94   689.88   693.09   725.67   750.08   751.52
eigval :      771.02   785.85   802.66   813.77   829.93   842.75
eigval :      856.03   870.87   878.07   881.13   885.29   903.55
eigval :      905.65   906.98   908.44   909.34   921.19   926.82
eigval :      929.37   930.31   930.78   932.67   939.72   958.50
eigval :      968.20   968.49   984.37   989.28  1002.63  1023.18
eigval :     1045.74  1060.97  1069.43  1072.58  1076.44  1082.55
eigval :     1087.01  1093.93  1102.29  1111.34  1115.63  1118.02
eigval :     1121.47  1131.80  1141.75  1145.15  1162.74  1166.50
eigval :     1177.06  1178.21  1178.81  1179.38  1184.91  1198.38
eigval :     1215.64  1228.92  1233.84  1239.70  1247.28  1258.62
eigval :     1260.66  1270.00  1273.26  1286.58  1302.68  1315.93
eigval :     1319.84  1332.65  1334.29  1335.69  1367.00  1372.31
eigval :     1377.36  1392.89  1403.38  1410.49  1427.85  1430.24
eigval :     1432.53  1433.92  1445.06  1453.11  1463.80  1464.78
eigval :     1475.72  1482.82  1508.75  1534.08  1547.60  1562.16
eigval :     1568.07  1574.85  1575.83  1586.75  1595.43  1682.56
eigval :     2857.49  2868.37  2965.89  2994.06  3045.59  3049.82
eigval :     3054.23  3077.54  3080.11  3082.77  3083.89  3086.51
eigval :     3088.96  3092.17  3093.86  3095.16  3099.26  3099.65
eigval :     3103.08  3105.34  3105.60  3108.45  3111.74  3112.04
eigval :     3114.96  3116.08  3116.45

   temp. (K)  partition function   enthalpy   heat capacity  entropy
                                   cal/mol     cal/K/mol   cal/K/mol   J/K/mol
 298.15  VIB  0.151E+16            20133.879    126.396    124.551
         ROT  0.335E+08              888.752      2.981     37.412
         INT  0.506E+23            21022.632    129.377    161.963
         TR   0.125E+29             1481.254      4.968     44.777
         TOT                       22503.8857   134.3451   206.7401   865.0005

       T/K    H(0)-H(T)+PV         H(T)/Eh          T*S/Eh         G(T)/Eh
   ------------------------------------------------------------------------
    298.15    0.358622E-01    0.542233E+00    0.982289E-01    0.444004E+00
   ------------------------------------------------------------------------

         :::::::::::::::::::::::::::::::::::::::::::::::::::::
         ::                  THERMODYNAMIC                  ::
         :::::::::::::::::::::::::::::::::::::::::::::::::::::
         :: total free energy        -110.414861210335 Eh   ::
         ::.................................................::
         :: total energy             -110.858865497202 Eh   ::
         :: zero point energy           0.506370951380 Eh   ::
         :: G(RRHO) w/o ZPVE           -0.062366664513 Eh   ::
         :: G(RRHO) contrib.            0.444004286867 Eh   ::
         :::::::::::::::::::::::::::::::::::::::::::::::::::::

           -------------------------------------------------
          | TOTAL ENERGY             -110.858865497202 Eh   |
          | TOTAL ENTHALPY           -110.316632321234 Eh   |
          | TOTAL FREE ENERGY        -110.414861210335 Eh   |
          | GRADIENT NORM               0.000173122228 Eh/α |
           -------------------------------------------------

 * finished run on 2025/09/13 at 09:19:07.040
