   * xtb version 6.7.1 (edcfbbe) compiled by 'albert@albert-system' on 2024-07-22

   ID    Z sym.   atoms
    1    6 C      1, 2, 4, 6, 8-24, 26-29, 33-40
    2    8 O      3, 5, 7, 31, 32
    3    7 N      25
    4   16 S      30
    5    1 H      41-67

          program call               : xtb data2507/gas/CzSO-1CO/CzSO-1CO_gas_S0_crest.xyz --gfn 2 --ohess vtight --parallel 40 --molden --ceasefiles --namespace data2507/gas/CzSO-1CO/CzSO-1CO_gas_S0_finalOpt
          :  Hamiltonian                  GFN2-xTB          :
 * total energy  :  -110.9376815 Eh     change       -0.5365592E-09 Eh
 * total energy  :  -110.9376825 Eh     change       -0.9533911E-06 Eh
 * total energy  :  -110.9376834 Eh     change       -0.8801863E-06 Eh
 * total energy  :  -110.9376856 Eh     change       -0.2208284E-05 Eh
 * total energy  :  -110.9376872 Eh     change       -0.1630873E-05 Eh
 * total energy  :  -110.9376892 Eh     change       -0.1949574E-05 Eh
 * total energy  :  -110.9376925 Eh     change       -0.3322633E-05 Eh
 * total energy  :  -110.9376961 Eh     change       -0.3628566E-05 Eh
 * total energy  :  -110.9376985 Eh     change       -0.2409675E-05 Eh
 * total energy  :  -110.9377005 Eh     change       -0.1998399E-05 Eh
 * total energy  :  -110.9377182 Eh     change       -0.3421416E-06 Eh
 * total energy  :  -110.9377185 Eh     change       -0.2536772E-06 Eh
 * total energy  :  -110.9377187 Eh     change       -0.1945323E-06 Eh
 * total energy  :  -110.9377189 Eh     change       -0.1873391E-06 Eh
 * total energy  :  -110.9377191 Eh     change       -0.2294914E-06 Eh
 * total energy  :  -110.9377193 Eh     change       -0.2500483E-06 Eh
 * total energy  :  -110.9377195 Eh     change       -0.2000398E-06 Eh
 * total energy  :  -110.9377197 Eh     change       -0.1482780E-06 Eh
 * total energy  :  -110.9377197 Eh     change       -0.3372293E-08 Eh
   *** GEOMETRY OPTIMIZATION CONVERGED AFTER 44 ITERATIONS ***

 final structure:
================
67
 xtb: 6.7.1 (edcfbbe)
C            5.87939716916657       -1.20136739989860        0.82403676912959
C            4.72007630340621       -1.25221768848644       -0.17473624721332
O            5.09049390937002       -0.28800898148011       -1.19680665859129
C            4.15411769479885        0.00653315602210       -2.15605848528263
O            3.25438284392348        1.02549091422823       -1.70970340317267
C            1.93965785166706        0.80847140170424       -1.81689651283667
O            1.46166573488359       -0.16182739033296       -2.35911629153471
C            1.13354458772747        1.87976860286080       -1.18558550124833
C           -0.25276258045993        1.73963461317540       -1.15733198146773
C           -1.03444660303895        2.68797122685023       -0.52717302363442
C           -0.43759558739325        3.79059889181274        0.06363674994904
C            0.93914761064571        3.94503057564349        0.01938810332090
C            1.72772167416929        2.99380691999175       -0.59932603330663
C            4.66099421479132       -2.67064541726002       -0.79965559337363
C            3.31192632470601       -3.26068030620667       -1.05980809284111
C            2.18155418514818       -2.77045041873057       -0.54944550180647
C            2.24677821554667       -1.56284304467571        0.22270921028483
C            3.41367578566749       -0.87036529415789        0.45505569599996
C            3.07641902313937        0.26213670764002        1.25444945044973
C            3.78336209232487        1.35943960220851        1.74792914637831
C            3.10905902399766        2.31419247167040        2.47429450990225
C            1.73620441108893        2.21605609062768        2.70429168376810
C            1.00545831496614        1.15492949025050        2.21427536458817
C            1.68254499068834        0.17420647580907        1.50307325566037
N            1.19501486479319       -0.94917222858881        0.86964583390682
C           -0.16007026485935       -1.27763299935257        0.76958454184707
C           -0.73132730021197       -1.52125057663489       -0.48049903973932
C           -2.09165496955444       -1.73957538006105       -0.57895369722767
C           -2.87215515050667       -1.71779250520610        0.56182433555715
S           -4.65554562505179       -1.74493939935628        0.37545644077664
O           -5.02645064518105       -2.67413979679515       -0.65752374420520
O           -5.26174872003467       -1.87842206965267        1.67323406683005
C           -4.90222604003074       -0.06910602038699       -0.23091863709672
C           -4.76775966490375        0.98058227269124        0.65727758952522
C           -4.86210537890006        2.27978995524391        0.18716735788051
C           -5.08226453825554        2.51121703875259       -1.16268355478271
C           -5.21731409276406        1.44996226136568       -2.04383947025127
C           -5.12359615699108        0.14910210699993       -1.57606173732969
C           -2.31303390913916       -1.51737911252095        1.80889369341451
C           -0.95059686006081       -1.31052069142846        1.91796393979550
H            6.06668742937656       -0.17850995245405        1.12908207785694
H            6.78054129356026       -1.58613210192169        0.35379230162286
H            5.63963317673247       -1.79743167730183        1.70015052472290
H            4.70295995062742        0.42203145977972       -3.00984218996345
H            3.56001425208737       -0.86460448469748       -2.46933903075177
H           -0.70271441160561        0.88091416022265       -1.63034498822724
H           -2.10789745703869        2.56646633818548       -0.49845269490891
H           -1.04711077378037        4.53323967487086        0.55721919367106
H            1.39960547811031        4.80871549476901        0.47483578039374
H            2.80007588282499        3.09862935763851       -0.62738134424262
H            5.18412897710067       -3.36200945423811       -0.13031472841084
H            5.23871314183395       -2.64645464075686       -1.72852553427403
H            3.30420237497442       -4.16219769259129       -1.65484055821250
H            1.23030640448033       -3.25218195106238       -0.70700124823458
H            4.83582344284021        1.47346928388471        1.54434000334597
H            3.64646228081124        3.16615170043130        2.86409795974168
H            1.23555830701948        2.99120252707817        3.26477023456363
H           -0.06284636915859        1.10460103361706        2.35955564809201
H           -0.11323002524085       -1.48606435066917       -1.36456614096282
H           -2.56252116514386       -1.91569230758468       -1.53328990303789
H           -4.60506987971055        0.76689810033769        1.70202603282520
H           -4.76404764213271        3.11039097634393        0.87024949883484
H           -5.15136157211500        3.52498206657152       -1.52865842918188
H           -5.39400243788433        1.63604598186003       -3.09230417140663
H           -5.23061011926050       -0.70214812914941       -2.23001466094973
H           -2.95522602656098       -1.53321964879542        2.67557314014270
H           -0.49225790581970       -1.17063869150610        2.88493776563447

          :  Hamiltonian                  GFN2-xTB          :
         :: gradient norm              0.000041471875 Eh/a0 ::
         :: HOMO-LUMO gap              2.242228747570 eV    ::
         :: SCC energy              -112.640769915532 Eh    ::
         :: -> dispersion             -0.104114051573 Eh    ::
         :: repulsion energy           1.703050228936 Eh    ::

    * Orbital Energies and Occupations

         #    Occupation            Energy/Eh            Energy/eV
      -------------------------------------------------------------
         1        2.0000           -0.7687473             -20.9187
       ...           ...                  ...                  ...
        88        2.0000           -0.4318025             -11.7499
        89        2.0000           -0.4313891             -11.7387
        90        2.0000           -0.4286700             -11.6647
        91        2.0000           -0.4268940             -11.6164
        92        2.0000           -0.4259247             -11.5900
        93        2.0000           -0.4249635             -11.5638
        94        2.0000           -0.4217823             -11.4773
        95        2.0000           -0.4209192             -11.4538
        96        2.0000           -0.4150257             -11.2934
        97        2.0000           -0.4096985             -11.1485
        98        2.0000           -0.4035920             -10.9823
        99        2.0000           -0.3821788             -10.3996
       100        2.0000           -0.3640078              -9.9052 (HOMO)
       101                         -0.2816074              -7.6629 (LUMO)
       102                         -0.2725600              -7.4167
       103                         -0.2596393              -7.0651
       104                         -0.2518838              -6.8541
       105                         -0.2499488              -6.8015
       106                         -0.2474375              -6.7331
       107                         -0.2422484              -6.5919
       108                         -0.2120268              -5.7695
       109                         -0.2026541              -5.5145
       110                         -0.1974966              -5.3742
       111                         -0.1474898              -4.0134
       ...                                ...                  ...
       192                          1.2115044              32.9667
      -------------------------------------------------------------
                  HL-Gap            0.0824004 Eh            2.2422 eV

     #   Z          covCN         q      C6AA      α(0)
     1   6 C        3.758    -0.115    22.761     6.802
     2   6 C        3.786     0.146    18.248     6.085
     3   8 O        1.699    -0.314    19.236     5.922
     4   6 C        3.583     0.224    17.709     6.107
     5   8 O        1.704    -0.278    18.614     5.825
     6   6 C        2.719     0.358    20.932     7.489
     7   8 O        0.857    -0.431    22.312     6.333
     8   6 C        2.973    -0.018    28.451     8.749
     9   6 C        2.925    -0.022    28.551     8.763
    10   6 C        2.918    -0.028    28.698     8.785
    11   6 C        2.921    -0.020    28.514     8.757
    12   6 C        2.919    -0.024    28.592     8.769
    13   6 C        2.921    -0.018    28.461     8.749
    14   6 C        3.808    -0.076    21.953     6.670
    15   6 C        2.906    -0.036    28.900     8.815
    16   6 C        2.897    -0.047    29.156     8.853
    17   6 C        3.094     0.043    26.933     8.506
    18   6 C        3.059    -0.050    29.179     8.858
    19   6 C        3.090    -0.010    28.163     8.699
    20   6 C        2.912    -0.034    28.837     8.806
    21   6 C        2.919    -0.040    28.999     8.831
    22   6 C        2.924    -0.037    28.926     8.820
    23   6 C        2.909    -0.052    29.279     8.873
    24   6 C        3.092     0.036    27.089     8.531
    25   7 N        2.816    -0.036    21.930     6.955
    26   6 C        2.915     0.072    26.383     8.423
    27   6 C        2.923    -0.042    29.038     8.837
    28   6 C        2.962    -0.028    28.707     8.788
    29   6 C        2.971    -0.081    30.032     8.989
    30  16 S        3.820     0.946   108.225    17.509
    31   8 O        0.860    -0.536    24.588     6.648
    32   8 O        0.860    -0.537    24.618     6.652
    33   6 C        2.971    -0.075    29.855     8.963
    34   6 C        2.960    -0.028    28.698     8.787
    35   6 C        2.921    -0.024    28.612     8.772
    36   6 C        2.920    -0.025    28.622     8.773
    37   6 C        2.921    -0.023    28.584     8.768
    38   6 C        2.953    -0.025    28.629     8.776
    39   6 C        2.954    -0.027    28.684     8.784
    40   6 C        2.924    -0.040    28.991     8.830
    41   1 H        0.925     0.063     2.165     2.301
    42   1 H        0.925     0.052     2.290     2.367
    43   1 H        0.925     0.046     2.365     2.405
    44   1 H        0.924     0.057     2.238     2.340
    45   1 H        0.923     0.047     2.356     2.400
    46   1 H        0.926     0.054     2.269     2.355
    47   1 H        0.926     0.036     2.501     2.473
    48   1 H        0.926     0.043     2.405     2.425
    49   1 H        0.926     0.046     2.369     2.407
    50   1 H        0.926     0.060     2.195     2.317
    51   1 H        0.924     0.061     2.191     2.315
    52   1 H        0.924     0.056     2.242     2.341
    53   1 H        0.926     0.040     2.450     2.448
    54   1 H        0.926     0.042     2.427     2.436
    55   1 H        0.926     0.037     2.487     2.466
    56   1 H        0.926     0.030     2.586     2.515
    57   1 H        0.926     0.028     2.614     2.528
    58   1 H        0.926     0.023     2.693     2.566
    59   1 H        0.926     0.085     1.929     2.172
    60   1 H        0.926     0.059     2.215     2.327
    61   1 H        0.926     0.052     2.293     2.368
    62   1 H        0.926     0.048     2.347     2.396
    63   1 H        0.926     0.048     2.341     2.392
    64   1 H        0.926     0.052     2.301     2.372
    65   1 H        0.926     0.064     2.151     2.294
    66   1 H        0.926     0.066     2.134     2.284
    67   1 H        0.926     0.058     2.222     2.331

molecular dipole:
                 x           y           z       tot (Debye)
 q only:        1.639       1.794       0.069
   full:        1.474       1.771      -0.057       5.860

 projected vibrational frequencies (cm⁻¹)
eigval :       -0.00    -0.00    -0.00     0.00     0.00     0.00
eigval :        7.38    15.34    18.74    28.80    32.15    35.95
eigval :       44.43    49.53    66.78    79.51    88.83    99.26
eigval :      112.64   115.86   118.26   128.66   135.50   143.56
eigval :      152.30   159.28   179.98   198.95   204.08   226.12
eigval :      229.79   246.90   267.35   281.43   293.41   308.52
eigval :      314.40   323.02   344.80   354.77   362.70   363.92
eigval :      369.15   384.68   393.46   395.48   406.81   410.75
eigval :      430.08   434.73   451.37   463.20   486.43   502.21
eigval :      515.44   521.46   535.25   542.69   547.67   573.79
eigval :      585.07   585.45   587.69   601.11   635.12   639.12
eigval :      645.56   654.41   657.87   673.66   689.77   692.28
eigval :      694.21   704.03   735.50   750.80   761.95   769.97
eigval :      780.41   797.53   826.75   836.09   849.18   863.25
eigval :      877.57   880.37   884.99   898.38   900.36   905.64
eigval :      906.78   911.36   912.95   917.47   928.20   929.95
eigval :      931.51   933.19   935.30   937.22   947.72   952.53
eigval :      968.47   978.73   982.17   995.94  1032.52  1050.76
eigval :     1063.60  1069.51  1078.70  1079.58  1085.50  1090.01
eigval :     1102.41  1109.66  1115.56  1117.63  1119.25  1133.14
eigval :     1134.23  1136.82  1162.09  1172.79  1177.72  1178.97
eigval :     1180.38  1181.63  1186.41  1187.78  1198.05  1209.22
eigval :     1237.35  1241.72  1243.10  1247.94  1251.61  1260.66
eigval :     1269.65  1274.22  1304.10  1319.34  1323.47  1327.52
eigval :     1329.45  1338.76  1343.44  1368.14  1371.63  1391.34
eigval :     1398.25  1417.45  1424.82  1430.14  1434.62  1436.64
eigval :     1445.19  1448.74  1461.48  1470.53  1476.20  1487.99
eigval :     1491.21  1550.17  1574.74  1576.24  1577.26  1580.13
eigval :     1585.43  1593.83  1597.07  1608.42  1667.63  1728.93
eigval :     2890.29  2927.11  2931.67  2962.16  3042.00  3045.99
eigval :     3074.62  3076.88  3077.25  3081.13  3082.67  3083.67
eigval :     3084.26  3088.37  3093.56  3094.79  3095.75  3096.11
eigval :     3100.20  3104.20  3105.89  3106.06  3106.83  3107.61
eigval :     3108.57  3109.45  3117.89

   temp. (K)  partition function   enthalpy   heat capacity  entropy
                                   cal/mol     cal/K/mol   cal/K/mol   J/K/mol
 298.15  VIB  0.671E+16            20084.138    123.975    125.610
         ROT  0.346E+08              888.752      2.981     37.476
         INT  0.232E+24            20972.890    126.956    163.086
         TR   0.125E+29             1481.254      4.968     44.777
         TOT                       22454.1439   131.9243   207.8635   869.7009

       T/K    H(0)-H(T)+PV         H(T)/Eh          T*S/Eh         G(T)/Eh
   ------------------------------------------------------------------------
    298.15    0.357830E-01    0.546062E+00    0.987627E-01    0.447299E+00
   ------------------------------------------------------------------------

         :::::::::::::::::::::::::::::::::::::::::::::::::::::
         ::                  THERMODYNAMIC                  ::
         :::::::::::::::::::::::::::::::::::::::::::::::::::::
         :: total free energy        -110.490420548502 Eh   ::
         ::.................................................::
         :: total energy             -110.937719686596 Eh   ::
         :: zero point energy           0.510278838990 Eh   ::
         :: G(RRHO) w/o ZPVE           -0.062979700895 Eh   ::
         :: G(RRHO) contrib.            0.447299138095 Eh   ::
         :::::::::::::::::::::::::::::::::::::::::::::::::::::

           -------------------------------------------------
          | TOTAL ENERGY             -110.937719686596 Eh   |
          | TOTAL ENTHALPY           -110.391657891554 Eh   |
          | TOTAL FREE ENERGY        -110.490420548502 Eh   |
          | GRADIENT NORM               0.000041479105 Eh/α |
          | HOMO-LUMO GAP               2.242228775767 eV   |
           -------------------------------------------------

 * finished run on 2025/09/13 at 09:09:40.215
