   * xtb version 6.7.1 (edcfbbe) compiled by 'albert@albert-system' on 2024-07-22

   ID    Z sym.   atoms
    1    6 C      1, 2, 4, 6, 8-24, 26-29, 33-40
    2    8 O      3, 5, 7, 31, 32
    3    7 N      25
    4   16 S      30
    5    1 H      41-67

          program call               : xtb data2507/gas/CzSO-1CO/CzSO-1CO_gas_S0_finalOpt.xtbopt.xyz --gfn 2 --spinpol --tblite --uhf 2 --ohess vtight --parallel 40 --molden --ceasefiles --namespace data2507/gas/CzSO-1CO/CzSO-1CO_gas_T1_preOpt
 * total energy  :  -110.8430568 Eh     change       -0.2595438E-07 Eh
 * total energy  :  -110.8522614 Eh     change       -0.9204600E-02 Eh
 * total energy  :  -110.8545826 Eh     change       -0.2321238E-02 Eh
 * total energy  :  -110.8547710 Eh     change       -0.1883984E-03 Eh
 * total energy  :  -110.8548854 Eh     change       -0.1143597E-03 Eh
 * total energy  :  -110.8549466 Eh     change       -0.6118660E-04 Eh
 * total energy  :  -110.8550198 Eh     change       -0.7326572E-04 Eh
 * total energy  :  -110.8550811 Eh     change       -0.6129718E-04 Eh
 * total energy  :  -110.8551444 Eh     change       -0.6323953E-04 Eh
 * total energy  :  -110.8552004 Eh     change       -0.5599328E-04 Eh
 * total energy  :  -110.8565531 Eh     change       -0.5323206E-06 Eh
 * total energy  :  -110.8565536 Eh     change       -0.4813601E-06 Eh
 * total energy  :  -110.8565540 Eh     change       -0.3740165E-06 Eh
 * total energy  :  -110.8565543 Eh     change       -0.2813022E-06 Eh
 * total energy  :  -110.8565545 Eh     change       -0.2704300E-06 Eh
 * total energy  :  -110.8565548 Eh     change       -0.2388431E-06 Eh
 * total energy  :  -110.8565550 Eh     change       -0.1934636E-06 Eh
 * total energy  :  -110.8565551 Eh     change       -0.1626206E-06 Eh
 * total energy  :  -110.8565552 Eh     change       -0.1483458E-07 Eh
   *** GEOMETRY OPTIMIZATION CONVERGED AFTER 94 ITERATIONS ***

 final structure:
================
67
 xtb: 6.7.1 (edcfbbe)
C            6.06142893075662       -0.95936336425705        0.79874644023641
C            4.85045895190319       -1.10374971618269       -0.12754494353354
O            5.13904035120061       -0.18634871778103       -1.21574689742450
C            4.16652732893666        0.01806794857971       -2.15712393556230
O            3.15779589479119        0.89486779368102       -1.65237183168538
C            1.89343234771938        0.68645322218614       -2.04501337449699
O            1.57824589399732       -0.16383917341214       -2.84537180281916
C            0.92967156301426        1.58506613903396       -1.37053732568304
C           -0.41808219883125        1.48721912710078       -1.71638464389997
C           -1.36192120138806        2.24717663410296       -1.05480068201524
C           -0.96455887495798        3.12277403211655       -0.05616637117138
C            0.37716576506526        3.24764052938830        0.26860770600733
C            1.32620653242721        2.48018017967649       -0.38058153737942
C            4.81125174664919       -2.55244713474101       -0.68371684228355
C            3.51152557263259       -2.96096097410576       -1.27223905485668
C            2.29473234960321       -2.50076834640384       -0.73251969285502
C            2.31687516863530       -1.44958664393916        0.14277050910336
C            3.55584144437577       -0.77918017870290        0.54188438489018
C            3.21148471069174        0.17007774904161        1.50410994555409
C            3.94124480523723        1.13602677482046        2.22595741352113
C            3.26560386177825        2.00559083909631        3.05695535967947
C            1.88383929978950        1.95300852566922        3.18532835335193
C            1.12902259330313        1.00683806239691        2.48524076546907
C            1.78999225766581        0.11326835392165        1.67715512197943
N            1.27068037673487       -0.87443141683170        0.84793027890073
C           -0.08403495678379       -1.15258221401123        0.69597845813473
C           -0.63808933647963       -1.34255843562833       -0.57590954114842
C           -1.99788665491852       -1.52210731096271       -0.71385397221309
C           -2.81094235120429       -1.52710332246807        0.40626714415865
S           -4.58411917278930       -1.55129029219522        0.18571530408340
O           -4.92669208978869       -2.40784194223158       -0.91868319154031
O           -5.21443289128681       -1.78411346962133        1.45887756579176
C           -4.86946377585666        0.15657785380183       -0.30403949798850
C           -4.84570097166447        1.14046774563637        0.66574157917870
C           -4.99813467728432        2.46449991461347        0.29026393308081
C           -5.16501395857185        2.78802889550133       -1.04816043090912
C           -5.18656931310485        1.79251180501875       -2.01307365163214
C           -5.03508502066696        0.46685816602509       -1.63955932279373
C           -2.27274675854293       -1.39245749437619        1.67405230663718
C           -0.91285541543731       -1.21980761601119        1.82272876610491
H            6.32214208747706        0.08888263145535        0.89540572341466
H            6.91366832036662       -1.47557577763666        0.36481880919970
H            5.84399423540691       -1.37772713001105        1.77718801468257
H            4.65632015427430        0.51444062895561       -3.00400583190207
H            3.68349546993503       -0.91399000287688       -2.49702063259986
H           -0.70468070539328        0.81383740163082       -2.50880560805233
H           -2.40622640095110        2.15868087584950       -1.31394011125668
H           -1.70401023775830        3.71395250731392        0.46356306570792
H            0.68576025253761        3.94003777868321        1.03725575084049
H            2.37020319521870        2.56281321865925       -0.12340262329763
H            5.04754163475565       -3.21434253339512        0.16070023267195
H            5.61621820007494       -2.65851915644908       -1.41517158285199
H            3.50697948564794       -3.69197062807952       -2.06245923559492
H            1.37261146588287       -2.96713529805240       -1.03678833689025
H            5.01013926582055        1.20477357532892        2.12234532964064
H            3.82046718822994        2.74724498068502        3.61225012000459
H            1.37687388660586        2.65499203160821        3.82932945426507
H            0.05374369553286        1.01083200822342        2.56312358154965
H           -0.00842819654241       -1.30588508565021       -1.44928811871059
H           -2.44655099357384       -1.65623517136555       -1.68527186279188
H           -4.72647415246701        0.85424281132985        1.69880928946325
H           -4.98993815220361        3.24338138245269        1.03797843411200
H           -5.28225994547043        3.82119058863166       -1.34031407822639
H           -5.32145295910528        2.04948910029718       -3.05299603511180
H           -5.05864359165990       -0.33538422374715       -2.36026830371212
H           -2.93274780730193       -1.44298667222007        2.52582086203113
H           -0.47805599275715       -1.15480265412307        2.80793563608570

 projected vibrational frequencies (cm⁻¹)
eigval :       -0.00    -0.00    -0.00    -0.00     0.00     0.00
eigval :       12.32    15.51    27.64    33.26    35.48    44.85
eigval :       50.57    52.98    64.89    67.28    87.99   110.16
eigval :      116.28   119.78   121.47   123.21   137.47   148.76
eigval :      155.41   162.46   185.63   200.50   212.03   227.79
eigval :      244.37   251.18   261.98   277.77   286.35   291.90
eigval :      307.87   313.42   326.59   342.01   354.16   362.22
eigval :      370.51   374.96   390.13   394.02   401.83   407.44
eigval :      414.68   428.05   444.60   446.39   468.84   479.53
eigval :      508.41   512.34   517.22   531.28   537.59   553.57
eigval :      557.86   580.27   585.35   587.49   598.71   628.67
eigval :      633.15   642.34   656.47   657.81   667.10   681.66
eigval :      684.19   690.60   691.69   725.69   742.90   749.48
eigval :      779.91   792.67   803.32   811.43   823.85   834.02
eigval :      842.97   871.88   880.14   882.55   889.84   893.47
eigval :      901.08   905.28   906.32   917.28   927.13   929.37
eigval :      932.20   933.71   935.53   941.31   947.09   959.96
eigval :      968.62   969.18   978.39   987.61  1007.05  1040.95
eigval :     1054.31  1069.20  1072.23  1077.69  1078.46  1087.54
eigval :     1096.21  1102.33  1112.77  1116.07  1120.30  1124.38
eigval :     1131.01  1131.77  1145.54  1154.14  1172.05  1173.07
eigval :     1177.51  1178.26  1179.67  1179.98  1189.93  1193.54
eigval :     1210.69  1223.29  1231.23  1239.15  1248.26  1249.05
eigval :     1260.33  1271.41  1272.97  1282.27  1302.58  1319.09
eigval :     1320.16  1329.38  1332.34  1333.44  1360.12  1370.40
eigval :     1388.59  1392.30  1402.52  1404.25  1430.10  1430.20
eigval :     1433.42  1445.10  1445.62  1457.55  1465.25  1467.82
eigval :     1472.97  1497.77  1508.51  1542.41  1550.21  1569.46
eigval :     1573.81  1575.67  1581.87  1589.20  1595.03  1718.58
eigval :     2837.62  2869.02  2928.24  2972.55  3043.16  3048.64
eigval :     3071.61  3080.49  3081.38  3082.28  3087.33  3090.99
eigval :     3093.36  3095.15  3096.11  3097.10  3104.14  3105.04
eigval :     3105.92  3106.61  3106.84  3107.66  3108.42  3112.42
eigval :     3117.38  3125.54  3130.34

   temp. (K)  partition function   enthalpy   heat capacity  entropy
                                   cal/mol     cal/K/mol   cal/K/mol   J/K/mol
 298.15  VIB  0.189E+16            20281.082    126.294    125.840
         ROT  0.338E+08              888.752      2.981     37.431
         INT  0.638E+23            21169.834    129.275    163.271
         TR   0.125E+29             1481.254      4.968     44.777
         TOT                       22651.0880   134.2427   208.0483   870.4742

       T/K    H(0)-H(T)+PV         H(T)/Eh          T*S/Eh         G(T)/Eh
   ------------------------------------------------------------------------
    298.15    0.360968E-01    0.542506E+00    0.988505E-01    0.443656E+00
   ------------------------------------------------------------------------

         :::::::::::::::::::::::::::::::::::::::::::::::::::::
         ::                  THERMODYNAMIC                  ::
         :::::::::::::::::::::::::::::::::::::::::::::::::::::
         :: total free energy        -110.412899144470 Eh   ::
         ::.................................................::
         :: total energy             -110.856555146948 Eh   ::
         :: zero point energy           0.506409669868 Eh   ::
         :: G(RRHO) w/o ZPVE           -0.062753667389 Eh   ::
         :: G(RRHO) contrib.            0.443656002479 Eh   ::
         :::::::::::::::::::::::::::::::::::::::::::::::::::::

           -------------------------------------------------
          | TOTAL ENERGY             -110.856555146948 Eh   |
          | TOTAL ENTHALPY           -110.314048670698 Eh   |
          | TOTAL FREE ENERGY        -110.412899144470 Eh   |
          | GRADIENT NORM               0.000045748963 Eh/α |
           -------------------------------------------------

 * finished run on 2025/09/13 at 09:09:49.882
