   * xtb version 6.7.1 (edcfbbe) compiled by 'albert@albert-system' on 2024-07-22

   ID    Z sym.   atoms
    1    6 C      1, 2, 4, 6, 8-24, 26-29, 33-40
    2    8 O      3, 5, 7, 31, 32
    3    7 N      25
    4   16 S      30
    5    1 H      41-67

          program call               : xtb data2507/gas/CzSO-1CO/CzSO-1CO.xyz --gfn 2 --ohess vtight --parallel 40 --molden --ceasefiles --namespace data2507/gas/CzSO-1CO/CzSO-1CO_gas_S0_preOpt
          :  Hamiltonian                  GFN2-xTB          :
 * total energy  :  -110.9065018 Eh     change       -0.8727596E-09 Eh
 * total energy  :  -110.9178954 Eh     change       -0.1139354E-01 Eh
 * total energy  :  -110.9205591 Eh     change       -0.2663756E-02 Eh
 * total energy  :  -110.9211120 Eh     change       -0.5529093E-03 Eh
 * total energy  :  -110.9213970 Eh     change       -0.2849323E-03 Eh
 * total energy  :  -110.9214800 Eh     change       -0.8303835E-04 Eh
 * total energy  :  -110.9215472 Eh     change       -0.6715640E-04 Eh
 * total energy  :  -110.9215920 Eh     change       -0.4480448E-04 Eh
 * total energy  :  -110.9216326 Eh     change       -0.4064000E-04 Eh
 * total energy  :  -110.9216685 Eh     change       -0.3588046E-04 Eh
 * total energy  :  -110.9232222 Eh     change       -0.3950269E-06 Eh
 * total energy  :  -110.9232224 Eh     change       -0.2029764E-06 Eh
 * total energy  :  -110.9232226 Eh     change       -0.2092278E-06 Eh
 * total energy  :  -110.9232227 Eh     change       -0.1646413E-06 Eh
 * total energy  :  -110.9232229 Eh     change       -0.1724346E-06 Eh
 * total energy  :  -110.9232232 Eh     change       -0.2528507E-06 Eh
 * total energy  :  -110.9232235 Eh     change       -0.2941944E-06 Eh
 * total energy  :  -110.9232237 Eh     change       -0.2791596E-06 Eh
 * total energy  :  -110.9232237 Eh     change       -0.8635254E-08 Eh
   *** GEOMETRY OPTIMIZATION CONVERGED AFTER 94 ITERATIONS ***

 final structure:
================
67
 xtb: 6.7.1 (edcfbbe)
C            2.62723715323855        1.16827733873267       -0.29868467580485
C            2.05003543426204        0.84498358977944        1.08482794928825
O            3.02677417056954        0.28796532411788        1.98340604760100
C            4.21704441453705        0.94812710567490        2.17011667138599
O            5.19391751304563        0.54028591925982        1.21018097647284
C            5.81213580124555        1.48473370173142        0.48490185940258
O            5.61410228880070        2.66923360869169        0.62056604539780
C            6.76198390535785        0.90801351897876       -0.49362931552487
C            6.87374405838077       -0.46689955268896       -0.68537835777223
C            7.77156032504312       -0.95903199745745       -1.61389914677039
C            8.55939747673655       -0.08895663474829       -2.35165746956209
C            8.44908189988250        1.28011498479815       -2.16481519984375
C            7.55227134301470        1.77945039671725       -1.24008167464457
C            1.41580973066199        2.10529990638625        1.71662327178159
C            0.01211658545642        2.38809943350644        1.27119626225491
C           -0.82988623624110        1.42571532825478        0.88841373075967
C           -0.33391378598667        0.07855391358043        0.82790693466013
C            1.00293529143826       -0.21870121561138        0.92190483527300
C            1.14452766546067       -1.61616195062240        0.70889153380317
C            2.23564268336324       -2.48486766282770        0.69919742895871
C            2.00512362431862       -3.82491520474503        0.48851096181394
C            0.71007201113793       -4.31746237148352        0.30859181658344
C           -0.38714423303778       -3.48097615089655        0.31539012815937
C           -0.16251223867891       -2.12237263418258        0.49292886661411
N           -1.05374556256005       -1.07116890332287        0.56283319673038
C           -2.43998941437639       -1.15383732297892        0.43318089145149
C           -3.26735684098332       -0.51876787992060        1.36169022821883
C           -4.64002451508044       -0.59879122351395        1.23016563925267
C           -5.18384307865173       -1.31976201792892        0.18342498566977
S           -6.96941978985275       -1.37772879874774        0.00127502744308
O           -7.29462561262272       -2.37312966725662       -0.98538747784224
O           -7.56695783210185       -1.47839695182555        1.30617840764034
C           -7.32869574460723        0.25079219934136       -0.66995528621477
C           -7.82851012751434        1.23538980653058        0.15888605154948
C           -8.06361557872254        2.49882123702033       -0.35846012565549
C           -7.79176819380597        2.75905492189306       -1.69243101014824
C           -7.29079133118264        1.76166674448141       -2.51532384738836
C           -7.05483132150716        0.49769374876552       -2.00122142816934
C           -4.37810795548964       -1.95513135892847       -0.74189093159125
C           -3.00392024840453       -1.87205908802006       -0.62205827968506
H            1.81224455297262        1.46592525530774       -0.95461676149029
H            3.11399687168306        0.28987956764525       -0.71676125257281
H            3.34152966830293        1.98719099146595       -0.25030100221832
H            4.13015893258319        2.04289836224299        2.13544587091934
H            4.59577431901711        0.63020795726016        3.14936002657734
H            6.25664109047889       -1.13569574261240       -0.10660411734050
H            7.85934796980037       -2.02479566349241       -1.76441200554952
H            9.26067585208908       -0.47938324465086       -3.07442545004724
H            9.06323608360992        1.95587217975935       -2.74099257168573
H            7.44765473732323        2.84139543094530       -1.07687715709841
H            2.04267758423535        2.97551160310197        1.51183821039709
H            1.40173484156261        1.95801446953227        2.80401589316990
H           -0.31271796550641        3.41564353795643        1.33409353288611
H           -1.84801255444935        1.63541266862428        0.59739686311551
H            3.22805643485470       -2.10078581714714        0.87280281500069
H            2.83385972627374       -4.51746944779981        0.47451473466151
H            0.56459057856886       -5.37805010737503        0.16694690443775
H           -1.38508342924519       -3.87624721452214        0.20009034374890
H           -2.82490816205778        0.01505503352804        2.18882644188753
H           -5.29941552770711       -0.13207796832640        1.94470076059984
H           -8.04029378838341        0.99025947026427        1.18788778550006
H           -8.46015924632900        3.27724409620260        0.27571465809691
H           -7.97652241031201        3.74373894446444       -2.09545686377195
H           -7.08746319743743        1.96899609481572       -3.55506039391103
H           -6.67956018364230       -0.30394860306619       -2.61769893627273
H           -4.84361658243024       -2.51284004247441       -1.53928423935179
H           -2.36027893037584       -2.34510295212092       -1.34745761128482

          :  Hamiltonian                  GFN2-xTB          :
         :: gradient norm              0.000062228141 Eh/a0 ::
         :: HOMO-LUMO gap              2.258777250046 eV    ::
         :: SCC energy              -112.625336617618 Eh    ::
         :: -> dispersion             -0.087045519229 Eh    ::
         :: repulsion energy           1.702112869716 Eh    ::

    * Orbital Energies and Occupations

         #    Occupation            Energy/Eh            Energy/eV
      -------------------------------------------------------------
         1        2.0000           -0.7692466             -20.9323
       ...           ...                  ...                  ...
        88        2.0000           -0.4321041             -11.7582
        89        2.0000           -0.4316288             -11.7452
        90        2.0000           -0.4288235             -11.6689
        91        2.0000           -0.4265029             -11.6057
        92        2.0000           -0.4235819             -11.5263
        93        2.0000           -0.4224301             -11.4949
        94        2.0000           -0.4221532             -11.4874
        95        2.0000           -0.4178973             -11.3716
        96        2.0000           -0.4157187             -11.3123
        97        2.0000           -0.4077497             -11.0954
        98        2.0000           -0.4045519             -11.0084
        99        2.0000           -0.3816903             -10.3863
       100        2.0000           -0.3620527              -9.8520 (HOMO)
       101                         -0.2790442              -7.5932 (LUMO)
       102                         -0.2730609              -7.4304
       103                         -0.2599418              -7.0734
       104                         -0.2535521              -6.8995
       105                         -0.2504668              -6.8155
       106                         -0.2490408              -6.7767
       107                         -0.2394429              -6.5156
       108                         -0.2103753              -5.7246
       109                         -0.1996362              -5.4324
       110                         -0.1947880              -5.3005
       111                         -0.1489935              -4.0543
       ...                                ...                  ...
       192                          1.2061499              32.8210
      -------------------------------------------------------------
                  HL-Gap            0.0830085 Eh            2.2588 eV

     #   Z          covCN         q      C6AA      α(0)
     1   6 C        3.758    -0.108    22.624     6.781
     2   6 C        3.787     0.149    18.201     6.076
     3   8 O        1.701    -0.309    19.154     5.909
     4   6 C        3.580     0.221    17.764     6.119
     5   8 O        1.704    -0.280    18.649     5.831
     6   6 C        2.718     0.357    20.948     7.492
     7   8 O        0.856    -0.424    22.177     6.314
     8   6 C        2.973    -0.018    28.459     8.751
     9   6 C        2.921    -0.021    28.520     8.758
    10   6 C        2.919    -0.026    28.641     8.776
    11   6 C        2.920    -0.021    28.520     8.758
    12   6 C        2.918    -0.025    28.633     8.775
    13   6 C        2.925    -0.018    28.469     8.750
    14   6 C        3.810    -0.073    21.885     6.659
    15   6 C        2.907    -0.037    28.915     8.817
    16   6 C        2.898    -0.051    29.261     8.869
    17   6 C        3.096     0.033    27.150     8.540
    18   6 C        3.073    -0.037    28.843     8.806
    19   6 C        3.095    -0.007    28.073     8.684
    20   6 C        2.911    -0.032    28.795     8.799
    21   6 C        2.920    -0.038    28.952     8.824
    22   6 C        2.924    -0.035    28.876     8.812
    23   6 C        2.908    -0.050    29.229     8.865
    24   6 C        3.089     0.037    27.066     8.528
    25   7 N        2.817    -0.029    21.806     6.935
    26   6 C        2.913     0.073    26.372     8.421
    27   6 C        2.924    -0.039    28.977     8.828
    28   6 C        2.957    -0.027    28.682     8.784
    29   6 C        2.970    -0.080    29.997     8.984
    30  16 S        3.815     0.941   108.373    17.521
    31   8 O        0.860    -0.538    24.633     6.654
    32   8 O        0.860    -0.537    24.630     6.654
    33   6 C        2.972    -0.073    29.827     8.958
    34   6 C        2.955    -0.026    28.643     8.778
    35   6 C        2.922    -0.024    28.592     8.769
    36   6 C        2.920    -0.024    28.606     8.771
    37   6 C        2.922    -0.024    28.594     8.769
    38   6 C        2.959    -0.027    28.679     8.784
    39   6 C        2.954    -0.026    28.641     8.778
    40   6 C        2.924    -0.040    28.994     8.830
    41   1 H        0.925     0.040     2.450     2.448
    42   1 H        0.925     0.047     2.358     2.401
    43   1 H        0.925     0.045     2.377     2.411
    44   1 H        0.923     0.047     2.357     2.401
    45   1 H        0.924     0.057     2.233     2.337
    46   1 H        0.926     0.057     2.236     2.338
    47   1 H        0.926     0.043     2.409     2.427
    48   1 H        0.926     0.043     2.412     2.428
    49   1 H        0.926     0.044     2.397     2.421
    50   1 H        0.926     0.062     2.179     2.308
    51   1 H        0.924     0.048     2.345     2.395
    52   1 H        0.924     0.059     2.216     2.328
    53   1 H        0.926     0.040     2.452     2.449
    54   1 H        0.926     0.034     2.529     2.487
    55   1 H        0.926     0.045     2.381     2.413
    56   1 H        0.926     0.030     2.580     2.512
    57   1 H        0.926     0.032     2.561     2.503
    58   1 H        0.926     0.029     2.597     2.520
    59   1 H        0.926     0.059     2.206     2.322
    60   1 H        0.926     0.058     2.223     2.332
    61   1 H        0.926     0.063     2.159     2.298
    62   1 H        0.926     0.051     2.308     2.376
    63   1 H        0.926     0.049     2.328     2.386
    64   1 H        0.926     0.050     2.321     2.382
    65   1 H        0.926     0.054     2.272     2.357
    66   1 H        0.926     0.067     2.113     2.273
    67   1 H        0.926     0.060     2.197     2.318

molecular dipole:
                 x           y           z       tot (Debye)
 q only:        1.416       1.420      -1.069
   full:        1.412       1.549      -1.020       5.923

 projected vibrational frequencies (cm⁻¹)
eigval :       -0.00    -0.00    -0.00    -0.00     0.00     0.00
eigval :        5.27     7.84     9.16    15.93    19.27    20.90
eigval :       28.09    41.49    51.45    56.70    69.23    84.28
eigval :       93.74   108.20   117.74   125.08   131.64   137.77
eigval :      147.49   161.36   182.91   194.50   214.12   232.55
eigval :      241.46   249.14   279.16   283.28   292.58   309.26
eigval :      315.52   326.18   337.70   348.97   363.02   364.27
eigval :      370.08   378.30   384.62   402.43   403.28   416.20
eigval :      424.18   434.76   444.39   458.49   477.41   485.96
eigval :      518.67   524.60   541.50   543.84   550.74   571.49
eigval :      585.07   587.30   599.01   600.70   626.19   639.72
eigval :      644.46   652.15   658.04   677.03   682.57   689.41
eigval :      698.47   707.60   731.79   749.65   767.06   775.40
eigval :      780.89   791.78   820.86   831.26   870.05   872.66
eigval :      878.75   880.00   882.05   899.69   904.78   906.33
eigval :      910.03   913.69   914.32   921.26   924.68   927.64
eigval :      931.78   932.88   933.01   935.25   935.81   951.57
eigval :      968.44   981.71   985.81   996.13  1027.39  1048.38
eigval :     1058.04  1069.80  1072.16  1077.39  1084.11  1088.94
eigval :     1102.58  1113.04  1115.10  1117.32  1122.35  1129.24
eigval :     1132.85  1135.89  1146.15  1168.36  1176.35  1177.88
eigval :     1178.79  1180.65  1181.22  1185.00  1192.95  1210.89
eigval :     1235.59  1239.86  1243.21  1248.11  1250.72  1260.51
eigval :     1266.86  1272.47  1300.59  1320.09  1320.33  1323.19
eigval :     1328.20  1338.17  1342.99  1366.17  1374.64  1395.31
eigval :     1397.06  1414.29  1427.13  1430.54  1434.13  1435.25
eigval :     1445.24  1452.18  1459.93  1476.51  1487.55  1492.16
eigval :     1502.27  1560.64  1575.24  1575.54  1577.60  1579.54
eigval :     1585.40  1592.30  1597.87  1609.99  1657.83  1735.93
eigval :     2900.01  2914.78  2929.55  2976.93  3032.58  3038.33
eigval :     3040.34  3077.36  3077.89  3079.14  3082.58  3083.20
eigval :     3086.05  3089.27  3091.74  3093.37  3094.06  3095.45
eigval :     3096.43  3098.26  3100.85  3104.94  3105.44  3107.70
eigval :     3107.98  3108.40  3110.10

   temp. (K)  partition function   enthalpy   heat capacity  entropy
                                   cal/mol     cal/K/mol   cal/K/mol   J/K/mol
 298.15  VIB  0.876E+18            20327.346    122.527    130.008
         ROT  0.655E+08              888.752      2.981     38.745
         INT  0.573E+26            21216.099    125.508    168.754
         TR   0.125E+29             1481.254      4.968     44.777
         TOT                       22697.3526   130.4763   213.5308   893.4127

       T/K    H(0)-H(T)+PV         H(T)/Eh          T*S/Eh         G(T)/Eh
   ------------------------------------------------------------------------
    298.15    0.361705E-01    0.545791E+00    0.101455E+00    0.444336E+00
   ------------------------------------------------------------------------

         :::::::::::::::::::::::::::::::::::::::::::::::::::::
         ::                  THERMODYNAMIC                  ::
         :::::::::::::::::::::::::::::::::::::::::::::::::::::
         :: total free energy        -110.478887860789 Eh   ::
         ::.................................................::
         :: total energy             -110.923223747900 Eh   ::
         :: zero point energy           0.509620705585 Eh   ::
         :: G(RRHO) w/o ZPVE           -0.065284818475 Eh   ::
         :: G(RRHO) contrib.            0.444335887111 Eh   ::
         :::::::::::::::::::::::::::::::::::::::::::::::::::::

           -------------------------------------------------
          | TOTAL ENERGY             -110.923223747900 Eh   |
          | TOTAL ENTHALPY           -110.377432508668 Eh   |
          | TOTAL FREE ENERGY        -110.478887860789 Eh   |
          | GRADIENT NORM               0.000062221095 Eh/α |
          | HOMO-LUMO GAP               2.258776376469 eV   |
           -------------------------------------------------

 * finished run on 2025/09/13 at 09:00:38.076
