   * xtb version 6.7.1 (edcfbbe) compiled by 'albert@albert-system' on 2024-07-22

   ID    Z sym.   atoms
    1    6 C      1-4, 6-11, 15-24, 26-40
    2    7 N      5, 25
    3   16 S      12
    4    8 O      13, 14
    5    1 H      41-70

          program call               : xtb data2507/toluene/DMACMNPTO/DMACMNPTO_toluene_T1_crest.xyz --gfn 2 --uhf 2 --gbsa toluene --ohess vtight --parallel 40 --molden --ceasefiles --namespace data2507/toluene/DMACMNPTO/DMACMNPTO_toluene_T1_finalOpt
      * Solvation model:               GBSA
        Solvent                        toluene
        Solvent mass                       9.2140E+01 g/mol
          :  Hamiltonian                  GFN2-xTB          :
 * total energy  :  -107.4545837 Eh     change       -0.9540173E-08 Eh
 * total energy  :  -107.4548406 Eh     change       -0.2568891E-03 Eh
 * total energy  :  -107.4550331 Eh     change       -0.1925187E-03 Eh
 * total energy  :  -107.4550601 Eh     change       -0.2705372E-04 Eh
 * total energy  :  -107.4550869 Eh     change       -0.2675205E-04 Eh
 * total energy  :  -107.4550961 Eh     change       -0.9200383E-05 Eh
 * total energy  :  -107.4551063 Eh     change       -0.1019871E-04 Eh
 * total energy  :  -107.4551131 Eh     change       -0.6834905E-05 Eh
 * total energy  :  -107.4551276 Eh     change       -0.1448143E-04 Eh
 * total energy  :  -107.4551420 Eh     change       -0.1438494E-04 Eh
 * total energy  :  -107.4552591 Eh     change       -0.2253446E-06 Eh
 * total energy  :  -107.4552594 Eh     change       -0.3360011E-06 Eh
 * total energy  :  -107.4552597 Eh     change       -0.2534000E-06 Eh
 * total energy  :  -107.4552599 Eh     change       -0.1973881E-06 Eh
 * total energy  :  -107.4552601 Eh     change       -0.2150053E-06 Eh
 * total energy  :  -107.4552603 Eh     change       -0.2169239E-06 Eh
 * total energy  :  -107.4552605 Eh     change       -0.1888994E-06 Eh
 * total energy  :  -107.4552606 Eh     change       -0.1422226E-06 Eh
 * total energy  :  -107.4552607 Eh     change       -0.9356484E-07 Eh
   *** GEOMETRY OPTIMIZATION CONVERGED AFTER 43 ITERATIONS ***

 final structure:
================
70
 xtb: 6.7.1 (edcfbbe)
C           -1.85171395067799        0.01359319758383        2.55036206515701
C           -0.99627557448899        0.00410237497237        1.32162288589617
C            0.38210703187862        0.00232485799885        1.39628425494142
C            1.17345388434367       -0.00429547152387        0.24057948306111
N            2.59874909767194       -0.00493164357109        0.35225608929259
C            3.22274221394143       -1.23343375438773        0.34607170293061
C            2.47935825291345       -2.40942424500320        0.57696746556563
C            3.07550988777163       -3.64634241868267        0.58028126323658
C            4.45185141132795       -3.78439054216937        0.33987582916027
C            5.19643681428181       -2.64725822448811        0.09434855695296
C            4.60583265143012       -1.39903018089291        0.10375164826415
S            5.59667065072766       -0.00195213727756       -0.33218451363787
O            5.76856625326651        0.01076973539724       -1.77969891132346
O            6.83466349336417       -0.00914817124071        0.42771472908587
C            4.60766748359938        1.38930157026165        0.12683160667655
C            5.20089009468939        2.63640712796215        0.13685907478133
C            4.45808723804504        3.77133195276106        0.39703342168705
C            3.08072992965993        3.63285636226105        0.63016083358584
C            2.48195212569745        2.39721911596913        0.60730155680628
C            3.22381368959532        1.22311194629423        0.36351114364416
C            0.58468331117295       -0.01012943750936       -1.03230521209107
C            1.43940834949591       -0.01690099299878       -2.25976888668170
C           -0.79368140532116       -0.00925748771749       -1.10902159065958
C           -1.58290233420427       -0.00218266065252        0.04715838182171
N           -3.00356147985040       -0.00030599618814       -0.07813519944438
C           -3.66354476240301       -1.20057975683678       -0.10300709864609
C           -2.92639736788774       -2.40459226770763       -0.07974793559657
C           -3.56166264098508       -3.61802578725597       -0.08609138271487
C           -4.95844119273238       -3.67253852395835       -0.11111812517817
C           -5.68922773952058       -2.49438320403156       -0.13558694201531
C           -5.08129554432710       -1.25101724282543       -0.13581677536976
C           -5.91816731192146        0.00569480389725       -0.16075686720645
C           -6.82145977665523        0.02269167586295        1.09044057401277
C           -6.78952015040542       -0.00727003211941       -1.43446543831611
C           -5.07524541025444        1.25860944701079       -0.16524534160302
C           -5.67728998999922        2.50452188195086       -0.19444652868235
C           -4.94096614401551        3.67942653869521       -0.19633696301717
C           -3.54454118843508        3.61896198242263       -0.16746395690799
C           -2.91498464162454        2.40300503375300       -0.13260784805508
C           -3.65778231933208        1.20229306696422       -0.13019004254315
H           -2.49526047026731       -0.86588173459829        2.57484368860528
H           -2.49024457996819        0.89698415159420        2.56404127260198
H           -1.23413534256925        0.01734860925292        3.44385428038441
H            0.87336563825433        0.00652741916975        2.35749133839266
H            1.42064987973020       -2.32976391239652        0.76453389689913
H            2.47832032832989       -4.52462243187373        0.77137206371718
H            4.91539010150112       -4.75733570582803        0.34014316023713
H            6.25654381074832       -2.69273111499091       -0.10820621964922
H            6.26156661660763        2.68252980983310       -0.06248465432531
H            4.92374322527736        4.74313873715652        0.41309198266104
H            2.48445619949032        4.50957786330470        0.83100639740125
H            1.42224675831431        2.31784554012890        0.78900681496966
H            2.08226041639443       -0.89783298773876       -2.27396462691541
H            0.82743113435249       -0.01586890424545       -3.15748717343533
H            2.09097885342301        0.85750620056899       -2.27776447726554
H           -1.28128731281901       -0.01367682361511       -2.07223334502514
H           -1.84940359578977       -2.35751096762581       -0.06174061505963
H           -2.98441667521996       -4.52984244025091       -0.07150276413720
H           -5.46551878115054       -4.62461950208259       -0.11234197661362
H           -6.76595322660953       -2.56064869382050       -0.15540094882951
H           -7.45867000066413       -0.85610624151660        1.11523590318057
H           -6.21119191083257        0.03220929440546        1.99143004886564
H           -7.45484466105645        0.90459146181593        1.09411211185271
H           -7.42631999722247       -0.88639841712784       -1.45519653873062
H           -7.42250889186317        0.87388454866612       -1.47574261086522
H           -6.15575278082264       -0.01899593052347       -2.31908416410340
H           -6.75366888658216        2.57543034703914       -0.21708085937640
H           -5.44354646926004        4.63358550101208       -0.22030341188538
H           -2.96300183210172        4.52815188670725       -0.17234366774412
H           -1.83823980955578        2.35146726529942       -0.11139790168283

          :  Hamiltonian                  GFN2-xTB          :
         :: gradient norm              0.000052338853 Eh/a0 ::
         :: HOMO-LUMO gap              0.049893882495 eV    ::
         :: SCC energy              -109.230077350253 Eh    ::
         :: -> dispersion             -0.102855768862 Eh    ::
         :: -> Gsolv                  -0.058546938408 Eh    ::
         :: repulsion energy           1.774816615333 Eh    ::

    * Orbital Energies and Occupations

         #    Occupation            Energy/Eh            Energy/eV
      -------------------------------------------------------------
         1        2.0000           -0.7607469             -20.7010
       ...           ...                  ...                  ...
        88        2.0000           -0.4175933             -11.3633
        89        2.0000           -0.4157089             -11.3120
        90        2.0000           -0.4151253             -11.2961
        91        2.0000           -0.4138277             -11.2608
        92        2.0000           -0.4129839             -11.2379
        93        2.0000           -0.4112254             -11.1900
        94        2.0000           -0.4095591             -11.1447
        95        2.0000           -0.4073960             -11.0858
        96        2.0000           -0.3986713             -10.8484
        97        2.0000           -0.3937502             -10.7145
        98        1.7409           -0.3650399              -9.9332
        99        1.2591           -0.3630435              -9.8789
       100        0.7141           -0.2457274              -6.6866 (HOMO)
       101        0.2660           -0.2438933              -6.6367 (LUMO)
       102        0.0155           -0.2409118              -6.5555
       103        0.0045           -0.2397245              -6.5232
       104        0.0000           -0.2315815              -6.3017
       105        0.0000           -0.2314688              -6.2986
       106        0.0000           -0.2306501              -6.2763
       107                         -0.2284248              -6.2158
       108                         -0.2075862              -5.6487
       109                         -0.2065995              -5.6219
       110                         -0.1152819              -3.1370
       111                         -0.1132866              -3.0827
       ...                                ...                  ...
       195                          1.1563414              31.4657
      -------------------------------------------------------------
                  HL-Gap            0.0018341 Eh            0.0499 eV

     #   Z          covCN         q      C6AA      α(0)
     1   6 C        3.757    -0.110    22.658     6.787
     2   6 C        2.962     0.009    27.811     8.650
     3   6 C        2.923    -0.057    29.408     8.893
     4   6 C        2.941     0.030    27.332     8.574
     5   7 N        2.748    -0.035    21.912     6.952
     6   6 C        2.952     0.044    27.012     8.524
     7   6 C        2.921    -0.049    29.220     8.864
     8   6 C        2.915    -0.038    28.933     8.821
     9   6 C        2.916    -0.047    29.158     8.855
    10   6 C        2.971    -0.023    28.579     8.769
    11   6 C        2.968    -0.105    30.654     9.082
    12  16 S        3.850     0.926   108.799    17.556
    13   8 O        0.860    -0.609    26.337     6.881
    14   8 O        0.860    -0.602    26.161     6.858
    15   6 C        2.968    -0.105    30.652     9.081
    16   6 C        2.971    -0.023    28.579     8.769
    17   6 C        2.916    -0.046    29.152     8.854
    18   6 C        2.916    -0.037    28.932     8.820
    19   6 C        2.921    -0.049    29.222     8.865
    20   6 C        2.952     0.044    27.005     8.523
    21   6 C        2.963     0.008    27.836     8.654
    22   6 C        3.757    -0.106    22.578     6.775
    23   6 C        2.923    -0.054    29.339     8.883
    24   6 C        2.936     0.023    27.496     8.600
    25   7 N        2.754     0.020    20.909     6.791
    26   6 C        2.931     0.048    26.913     8.508
    27   6 C        2.919    -0.045    29.127     8.850
    28   6 C        2.914    -0.030    28.758     8.794
    29   6 C        2.916    -0.035    28.881     8.813
    30   6 C        2.921    -0.033    28.825     8.804
    31   6 C        2.975    -0.001    28.050     8.688
    32   6 C        3.909     0.025    20.090     6.371
    33   6 C        3.761    -0.106    22.576     6.773
    34   6 C        3.761    -0.106    22.574     6.773
    35   6 C        2.975    -0.001    28.050     8.687
    36   6 C        2.921    -0.033    28.825     8.804
    37   6 C        2.916    -0.035    28.880     8.812
    38   6 C        2.914    -0.030    28.758     8.794
    39   6 C        2.919    -0.045    29.128     8.850
    40   6 C        2.931     0.048    26.912     8.508
    41   1 H        0.925     0.054     2.271     2.356
    42   1 H        0.925     0.054     2.271     2.357
    43   1 H        0.925     0.053     2.282     2.363
    44   1 H        0.926     0.048     2.342     2.393
    45   1 H        0.926     0.054     2.266     2.354
    46   1 H        0.926     0.049     2.328     2.386
    47   1 H        0.926     0.042     2.421     2.433
    48   1 H        0.926     0.029     2.605     2.524
    49   1 H        0.926     0.029     2.603     2.523
    50   1 H        0.926     0.042     2.419     2.432
    51   1 H        0.926     0.049     2.326     2.385
    52   1 H        0.926     0.055     2.262     2.352
    53   1 H        0.924     0.045     2.388     2.416
    54   1 H        0.925     0.054     2.266     2.354
    55   1 H        0.924     0.044     2.391     2.418
    56   1 H        0.926     0.048     2.343     2.394
    57   1 H        0.926     0.044     2.397     2.421
    58   1 H        0.926     0.039     2.457     2.451
    59   1 H        0.926     0.039     2.461     2.453
    60   1 H        0.926     0.046     2.371     2.408
    61   1 H        0.925     0.052     2.299     2.371
    62   1 H        0.925     0.040     2.455     2.450
    63   1 H        0.925     0.052     2.299     2.371
    64   1 H        0.925     0.052     2.298     2.371
    65   1 H        0.925     0.052     2.298     2.371
    66   1 H        0.925     0.038     2.469     2.457
    67   1 H        0.926     0.046     2.371     2.408
    68   1 H        0.926     0.039     2.461     2.453
    69   1 H        0.926     0.039     2.457     2.451
    70   1 H        0.926     0.044     2.397     2.421

molecular dipole:
                 x           y           z       tot (Debye)
 q only:       -8.680       0.005       1.088
   full:       -8.114       0.006       0.926      20.757

 projected vibrational frequencies (cm⁻¹)
eigval :       -0.00    -0.00     0.00     0.00     0.00     0.00
eigval :        9.30    11.93    17.69    19.20    26.35    44.09
eigval :       57.23    60.51    76.47    81.72    84.44    99.29
eigval :       99.83   110.37   122.90   127.67   145.76   146.89
eigval :      153.27   174.40   195.66   197.24   212.09   223.78
eigval :      224.47   235.16   239.00   255.48   278.80   296.23
eigval :      299.27   301.39   319.28   320.88   336.23   340.04
eigval :      354.01   361.73   378.10   388.48   397.08   397.55
eigval :      412.11   416.18   424.74   429.32   440.32   443.24
eigval :      453.15   471.73   482.48   486.55   497.53   503.24
eigval :      525.34   531.73   538.87   561.34   567.80   573.53
eigval :      580.06   608.03   618.59   619.83   630.09   656.71
eigval :      662.28   665.49   681.86   693.46   697.71   718.95
eigval :      738.48   740.62   749.60   752.03   763.69   812.45
eigval :      819.96   835.32   838.13   840.73   842.59   849.49
eigval :      853.07   854.56   888.42   889.68   890.85   896.39
eigval :      896.81   897.31   903.64   904.71   909.14   910.30
eigval :      922.36   935.39   940.67   959.35  1007.44  1008.30
eigval :     1018.97  1021.91  1025.49  1031.63  1054.34  1059.17
eigval :     1063.63  1067.19  1077.79  1085.03  1086.12  1106.08
eigval :     1112.07  1133.31  1133.84  1148.16  1154.19  1157.27
eigval :     1159.91  1166.04  1166.37  1172.88  1180.02  1181.14
eigval :     1189.84  1205.58  1212.01  1226.04  1235.22  1250.19
eigval :     1263.46  1269.05  1288.27  1292.68  1310.85  1317.11
eigval :     1322.91  1323.15  1327.40  1340.48  1343.18  1347.61
eigval :     1350.49  1355.95  1361.72  1373.00  1387.88  1395.61
eigval :     1403.55  1407.67  1407.78  1415.24  1421.14  1429.33
eigval :     1432.93  1443.76  1444.37  1459.30  1464.37  1470.89
eigval :     1471.76  1473.36  1473.44  1480.01  1480.54  1490.29
eigval :     1492.15  1494.51  1496.82  1498.17  1524.53  1553.22
eigval :     2989.84  2997.52  3006.56  3010.17  3029.96  3033.00
eigval :     3048.63  3049.81  3050.35  3055.58  3055.75  3059.33
eigval :     3080.74  3080.95  3085.44  3085.60  3087.64  3088.01
eigval :     3088.53  3089.87  3089.98  3091.63  3100.94  3101.17
eigval :     3104.27  3104.70  3109.00  3109.61  3109.90  3110.19

   temp. (K)  partition function   enthalpy   heat capacity  entropy
                                   cal/mol     cal/K/mol   cal/K/mol   J/K/mol
 298.15  VIB  0.174E+17            21112.997    131.951    131.230
         ROT  0.444E+08              888.752      2.981     37.974
         INT  0.772E+24            22001.749    134.932    169.204
         TR   0.122E+29             1481.254      4.968     44.739
         TOT                       23483.0034   139.9005   213.9429   895.1373

       T/K    H(0)-H(T)+PV         H(T)/Eh          T*S/Eh         G(T)/Eh
   ------------------------------------------------------------------------
    298.15    0.374225E-01    0.574959E+00    0.101651E+00    0.473307E+00
   ------------------------------------------------------------------------

         :::::::::::::::::::::::::::::::::::::::::::::::::::::
         ::                  THERMODYNAMIC                  ::
         :::::::::::::::::::::::::::::::::::::::::::::::::::::
         :: total free energy        -106.981953374722 Eh   ::
         ::.................................................::
         :: total energy             -107.455260735235 Eh   ::
         :: zero point energy           0.537536007572 Eh   ::
         :: G(RRHO) w/o ZPVE           -0.064228647059 Eh   ::
         :: G(RRHO) contrib.            0.473307360513 Eh   ::
         :::::::::::::::::::::::::::::::::::::::::::::::::::::

           -------------------------------------------------
          | TOTAL ENERGY             -107.455260735235 Eh   |
          | TOTAL ENTHALPY           -106.880302179749 Eh   |
          | TOTAL FREE ENERGY        -106.981953374722 Eh   |
          | GRADIENT NORM               0.000049922964 Eh/α |
          | HOMO-LUMO GAP               0.049908580160 eV   |
           -------------------------------------------------

 * finished run on 2025/09/04 at 15:26:10.504
