   * xtb version 6.7.1 (edcfbbe) compiled by 'albert@albert-system' on 2024-07-22

   ID    Z sym.   atoms
    1    6 C      1-4, 6-11, 15-24, 26-40
    2    7 N      5, 25
    3   16 S      12
    4    8 O      13, 14
    5    1 H      41-70

          program call               : xtb data2507/toluene/DMACMNPTO/DMACMNPTO_toluene_S0_crest.xyz --gfn 2 --gbsa toluene --ohess vtight --parallel 40 --molden --ceasefiles --namespace data2507/toluene/DMACMNPTO/DMACMNPTO_toluene_S0_finalOpt
      * Solvation model:               GBSA
        Solvent                        toluene
        Solvent mass                       9.2140E+01 g/mol
          :  Hamiltonian                  GFN2-xTB          :
 * total energy  :  -107.5662163 Eh     change       -0.6602363E-09 Eh
 * total energy  :  -107.5663636 Eh     change       -0.1473109E-03 Eh
 * total energy  :  -107.5664775 Eh     change       -0.1138694E-03 Eh
 * total energy  :  -107.5664982 Eh     change       -0.2075301E-04 Eh
 * total energy  :  -107.5665248 Eh     change       -0.2663166E-04 Eh
 * total energy  :  -107.5665357 Eh     change       -0.1088590E-04 Eh
 * total energy  :  -107.5665469 Eh     change       -0.1117774E-04 Eh
 * total energy  :  -107.5665584 Eh     change       -0.1150466E-04 Eh
 * total energy  :  -107.5665705 Eh     change       -0.1208387E-04 Eh
 * total energy  :  -107.5665856 Eh     change       -0.1509004E-04 Eh
 * total energy  :  -107.5667371 Eh     change       -0.2167761E-06 Eh
 * total energy  :  -107.5667373 Eh     change       -0.1737402E-06 Eh
 * total energy  :  -107.5667374 Eh     change       -0.1487580E-06 Eh
 * total energy  :  -107.5667376 Eh     change       -0.1622910E-06 Eh
 * total energy  :  -107.5667378 Eh     change       -0.1884240E-06 Eh
 * total energy  :  -107.5667380 Eh     change       -0.2104867E-06 Eh
 * total energy  :  -107.5667382 Eh     change       -0.2430388E-06 Eh
 * total energy  :  -107.5667385 Eh     change       -0.2930412E-06 Eh
 * total energy  :  -107.5667385 Eh     change       -0.2712454E-08 Eh
   *** GEOMETRY OPTIMIZATION CONVERGED AFTER 68 ITERATIONS ***

 final structure:
================
70
 xtb: 6.7.1 (edcfbbe)
C           -1.78782377318862       -0.01145565981786        2.51855369768281
C           -0.96853820213249       -0.00850277939847        1.26718683411927
C            0.41780737387745       -0.01291611637787        1.30499846627706
C            1.16723959988291       -0.00824563055988        0.13621654610088
N            2.60069695755108       -0.01247138658037        0.20812233139552
C            3.22715675205461       -1.24529834484449        0.23530066869097
C            2.46571403454725       -2.41551289725278        0.40016845754251
C            3.06584347735637       -3.65458599362573        0.46628145154903
C            4.44574330254029       -3.78804874066767        0.37943357654071
C            5.20953304977386       -2.65159260921141        0.20160783135278
C            4.60772182710684       -1.40826690623796        0.12468913472299
S            5.64319677393502       -0.01325525481450       -0.23236213237660
O            5.89649567734113        0.01357644124332       -1.66168611528187
O            6.82206292491165       -0.03273797726953        0.60833501296929
C            4.61592316275328        1.37312153928375        0.17819584591011
C            5.22584116916892        2.60864505699837        0.30256864583590
C            4.46949103958673        3.74230059604384        0.52447367894131
C            3.08874835004360        3.61452372024390        0.60556860418859
C            2.48046758190387        2.38285521771358        0.49164715769636
C            3.23427800770576        1.21482093516942        0.28262899677087
C            0.55403258682648       -0.00002679000496       -1.11635800218280
C            1.37233482437940        0.00460666020995       -2.36876067234290
C           -0.83389217711451        0.00224123930549       -1.15228265795009
C           -1.58688699543536       -0.00177396453795        0.01318587865762
N           -3.00802421433935        0.00229192905121       -0.07190776706166
C           -3.68458992482222       -1.20589028841029       -0.06458593640774
C           -2.96074645585002       -2.40138621285065       -0.02054053137043
C           -3.60349805489308       -3.62155925893742       -0.00665240617239
C           -4.98569575982375       -3.67080361100293       -0.03863081122642
C           -5.70361077408949       -2.48932265013061       -0.08584023414934
C           -5.08260203070478       -1.24778136575424       -0.10008073824078
C           -5.92746793231363        0.01210284103645       -0.14938925344323
C           -6.82881589356206        0.05007586130076        1.09940440334982
C           -6.78916478851401       -0.01961962462628       -1.42562222805848
C           -5.07219983833017        1.26585131648365       -0.16836871339802
C           -5.68323420200107        2.51126313984096       -0.22189474588302
C           -4.95612984004939        3.68797142532132       -0.23236721207392
C           -3.57468832362399        3.62977592568313       -0.18643085437236
C           -2.94158384719672        2.40558991879962       -0.13427623477699
C           -3.67459739128693        1.21494438907344       -0.12636410120132
H           -2.43973049689511        0.86135270864260        2.54461212434824
H           -1.15002702529667       -0.00137509193872        3.39762942279287
H           -2.42176616991255       -0.89730011030567        2.55231852589601
H            0.93169328024954       -0.01889591667493        2.25487394608421
H            1.39339802509147       -2.34338026462112        0.47798729275921
H            2.44859189939897       -4.53102134064019        0.59260378245080
H            4.91202001080163       -4.75817972473821        0.43893290912515
H            6.28459653443507       -2.69028964425203        0.11382232237766
H            6.30112508300918        2.64366378166144        0.21602634516431
H            4.94201659168888        4.70632820615048        0.62165722727925
H            2.47711767534166        4.48938377740276        0.76567541234604
H            1.40761627872562        2.31530018907756        0.56549593766245
H            0.73154825514364        0.02252727101875       -3.24562227898460
H            2.02786170062422        0.87493731115856       -2.39538598432841
H            2.00580167761613       -0.88114442490197       -2.41570152090471
H           -1.34657820146237        0.00798801642429       -2.10279249012656
H           -1.88246936672596       -2.36792899308776        0.00079904595461
H           -3.02325168948579       -4.53211589118587        0.02836014922615
H           -5.50240766709880       -4.61894819005691       -0.02765781737082
H           -6.78160243000667       -2.54366477473364       -0.11055391748452
H           -7.46073195056458        0.93402434165888        1.09450497062613
H           -7.47006695848336       -0.82614758398969        1.14100125478745
H           -6.21688863433289        0.07067411120477        1.99982172958178
H           -7.42886213112205       -0.89774485490558       -1.44057718575137
H           -7.42174744620439        0.86146900432843       -1.48916040350916
H           -6.14885013104556       -0.04660277515135       -2.30589041429134
H           -6.76062777561644        2.57258271619123       -0.25498364197764
H           -5.46520101271336        4.63938154298924       -0.27433390904679
H           -2.98739947157587        4.53646153030014       -0.19188411770709
H           -1.86387947095662        2.36535381088475       -0.10023577240246

          :  Hamiltonian                  GFN2-xTB          :
         :: gradient norm              0.000033988161 Eh/a0 ::
         :: HOMO-LUMO gap              2.429435137133 eV    ::
         :: SCC energy              -109.365561237110 Eh    ::
         :: -> dispersion             -0.102871218835 Eh    ::
         :: -> Gsolv                  -0.050885683287 Eh    ::
         :: repulsion energy           1.798822705808 Eh    ::

    * Orbital Energies and Occupations

         #    Occupation            Energy/Eh            Energy/eV
      -------------------------------------------------------------
         1        2.0000           -0.7741379             -21.0654
       ...           ...                  ...                  ...
        87        2.0000           -0.4276051             -11.6357
        88        2.0000           -0.4270383             -11.6203
        89        2.0000           -0.4268545             -11.6153
        90        2.0000           -0.4200347             -11.4297
        91        2.0000           -0.4096981             -11.1485
        92        2.0000           -0.4070841             -11.0773
        93        2.0000           -0.4059416             -11.0462
        94        2.0000           -0.4027293             -10.9588
        95        2.0000           -0.4017718             -10.9328
        96        2.0000           -0.3969038             -10.8003
        97        2.0000           -0.3915955             -10.6559
        98        2.0000           -0.3782358             -10.2923
        99        2.0000           -0.3452489              -9.3947 (HOMO)
       100                         -0.2559688              -6.9653 (LUMO)
       101                         -0.2551846              -6.9439
       102                         -0.2476198              -6.7381
       103                         -0.2456689              -6.6850
       104                         -0.2385899              -6.4924
       105                         -0.2231105              -6.0711
       106                         -0.2185027              -5.9458
       107                         -0.2181060              -5.9350
       108                         -0.2171308              -5.9084
       109                         -0.1887349              -5.1357
       110                         -0.1278752              -3.4797
       ...                                ...                  ...
       195                          1.1664989              31.7420
      -------------------------------------------------------------
                  HL-Gap            0.0892801 Eh            2.4294 eV

     #   Z          covCN         q      C6AA      α(0)
     1   6 C        3.757    -0.110    22.663     6.787
     2   6 C        2.966     0.012    27.737     8.639
     3   6 C        2.924    -0.051    29.260     8.871
     4   6 C        2.938     0.045    26.986     8.520
     5   7 N        2.750    -0.052    22.240     7.004
     6   6 C        2.953     0.062    26.620     8.463
     7   6 C        2.927    -0.050    29.237     8.867
     8   6 C        2.919    -0.023    28.575     8.766
     9   6 C        2.918    -0.034    28.846     8.807
    10   6 C        2.976    -0.021    28.523     8.761
    11   6 C        2.974    -0.097    30.439     9.050
    12  16 S        3.855     0.947   108.181    17.506
    13   8 O        0.860    -0.596    26.017     6.839
    14   8 O        0.860    -0.588    25.836     6.815
    15   6 C        2.974    -0.097    30.441     9.050
    16   6 C        2.976    -0.021    28.524     8.761
    17   6 C        2.918    -0.034    28.846     8.807
    18   6 C        2.919    -0.023    28.575     8.766
    19   6 C        2.927    -0.050    29.240     8.868
    20   6 C        2.953     0.061    26.622     8.463
    21   6 C        2.965     0.012    27.750     8.641
    22   6 C        3.757    -0.111    22.678     6.790
    23   6 C        2.927    -0.048    29.186     8.860
    24   6 C        2.930     0.058    26.700     8.474
    25   7 N        2.755    -0.065    22.501     7.045
    26   6 C        2.928     0.058    26.702     8.474
    27   6 C        2.924    -0.061    29.519     8.910
    28   6 C        2.919    -0.036    28.884     8.813
    29   6 C        2.917    -0.047    29.170     8.857
    30   6 C        2.928    -0.038    28.936     8.822
    31   6 C        2.979    -0.015    28.369     8.737
    32   6 C        3.908     0.021    20.164     6.383
    33   6 C        3.761    -0.103    22.514     6.764
    34   6 C        3.761    -0.103    22.512     6.764
    35   6 C        2.979    -0.015    28.370     8.737
    36   6 C        2.928    -0.038    28.937     8.822
    37   6 C        2.917    -0.047    29.170     8.857
    38   6 C        2.919    -0.035    28.882     8.813
    39   6 C        2.924    -0.061    29.520     8.910
    40   6 C        2.928     0.058    26.706     8.475
    41   1 H        0.925     0.058     2.218     2.329
    42   1 H        0.925     0.055     2.253     2.347
    43   1 H        0.925     0.059     2.210     2.325
    44   1 H        0.926     0.057     2.231     2.336
    45   1 H        0.926     0.062     2.180     2.309
    46   1 H        0.926     0.064     2.156     2.296
    47   1 H        0.926     0.058     2.226     2.333
    48   1 H        0.926     0.044     2.396     2.421
    49   1 H        0.926     0.044     2.397     2.421
    50   1 H        0.926     0.058     2.226     2.333
    51   1 H        0.926     0.064     2.156     2.296
    52   1 H        0.926     0.062     2.177     2.308
    53   1 H        0.925     0.060     2.203     2.321
    54   1 H        0.925     0.052     2.292     2.367
    55   1 H        0.925     0.053     2.286     2.365
    56   1 H        0.926     0.056     2.242     2.341
    57   1 H        0.926     0.025     2.652     2.547
    58   1 H        0.926     0.026     2.641     2.541
    59   1 H        0.926     0.023     2.686     2.563
    60   1 H        0.926     0.030     2.589     2.516
    61   1 H        0.925     0.040     2.449     2.447
    62   1 H        0.925     0.040     2.448     2.447
    63   1 H        0.925     0.031     2.575     2.509
    64   1 H        0.925     0.040     2.450     2.448
    65   1 H        0.925     0.040     2.450     2.448
    66   1 H        0.925     0.030     2.593     2.518
    67   1 H        0.926     0.030     2.590     2.517
    68   1 H        0.926     0.023     2.687     2.563
    69   1 H        0.926     0.026     2.642     2.542
    70   1 H        0.926     0.025     2.652     2.546

molecular dipole:
                 x           y           z       tot (Debye)
 q only:       -3.741      -0.012       1.069
   full:       -3.356      -0.012       0.972       8.880

 projected vibrational frequencies (cm⁻¹)
eigval :       -0.00    -0.00    -0.00    -0.00    -0.00     0.00
eigval :       -0.80    11.59    20.08    21.43    26.52    42.79
eigval :       56.97    62.51    88.00    92.93    97.07    97.95
eigval :      104.33   109.43   114.17   128.49   132.71   156.68
eigval :      165.88   183.24   193.47   200.02   220.48   225.88
eigval :      227.59   237.79   241.36   265.37   282.30   295.51
eigval :      303.29   304.85   315.56   329.99   339.68   346.37
eigval :      363.07   373.84   378.60   391.12   405.75   430.52
eigval :      436.06   439.13   444.91   451.67   454.19   457.80
eigval :      482.09   491.82   510.95   513.51   514.33   519.24
eigval :      546.71   552.93   554.30   564.03   581.19   588.71
eigval :      621.04   643.27   647.72   666.15   666.78   672.24
eigval :      682.22   693.10   696.48   701.82   727.96   730.23
eigval :      771.04   773.01   775.21   778.09   782.48   822.65
eigval :      851.67   861.95   863.20   863.63   866.65   867.27
eigval :      888.98   910.27   910.87   911.75   911.92   914.08
eigval :      918.23   919.86   920.70   921.33   922.53   932.25
eigval :      939.86   958.36  1008.51  1011.54  1021.77  1027.77
eigval :     1027.97  1032.96  1065.55  1070.19  1075.75  1084.59
eigval :     1092.29  1093.06  1110.23  1117.53  1128.16  1138.54
eigval :     1155.18  1158.34  1158.86  1163.41  1174.90  1178.48
eigval :     1181.09  1183.18  1184.82  1185.65  1187.12  1231.64
eigval :     1235.12  1238.21  1239.85  1246.72  1257.14  1265.02
eigval :     1283.76  1293.13  1301.17  1309.71  1324.65  1326.62
eigval :     1333.31  1338.50  1339.82  1354.98  1400.76  1401.50
eigval :     1404.20  1409.42  1419.14  1419.72  1419.97  1436.21
eigval :     1441.26  1462.03  1464.02  1466.38  1469.51  1476.07
eigval :     1477.84  1481.78  1487.09  1488.16  1489.23  1496.32
eigval :     1497.90  1502.75  1550.53  1555.53  1559.21  1573.54
eigval :     1588.54  1589.61  1590.57  1593.13  1598.87  1602.07
eigval :     3001.16  3004.85  3016.67  3019.11  3021.09  3024.30
eigval :     3036.84  3038.72  3045.85  3049.70  3055.93  3056.90
eigval :     3070.17  3071.06  3076.93  3077.84  3088.04  3088.36
eigval :     3089.56  3090.72  3091.53  3091.65  3093.97  3094.25
eigval :     3096.11  3097.62  3109.18  3110.48  3116.52  3118.30

   temp. (K)  partition function   enthalpy   heat capacity  entropy
                                   cal/mol     cal/K/mol   cal/K/mol   J/K/mol
 298.15  VIB  0.268E+15            19945.671    127.166    122.343
         ROT  0.445E+08              888.752      2.981     37.980
         INT  0.120E+23            20834.423    130.147    160.323
         TR   0.122E+29             1481.254      4.968     44.739
         TOT                       22315.6770   135.1147   205.0623   857.9808

       T/K    H(0)-H(T)+PV         H(T)/Eh          T*S/Eh         G(T)/Eh
   ------------------------------------------------------------------------
    298.15    0.355623E-01    0.582752E+00    0.974317E-01    0.485321E+00
   ------------------------------------------------------------------------

         :::::::::::::::::::::::::::::::::::::::::::::::::::::
         ::                  THERMODYNAMIC                  ::
         :::::::::::::::::::::::::::::::::::::::::::::::::::::
         :: total free energy        -107.081417945894 Eh   ::
         ::.................................................::
         :: total energy             -107.566738530712 Eh   ::
         :: zero point energy           0.547190020525 Eh   ::
         :: G(RRHO) w/o ZPVE           -0.061869435707 Eh   ::
         :: G(RRHO) contrib.            0.485320584818 Eh   ::
         :::::::::::::::::::::::::::::::::::::::::::::::::::::

           -------------------------------------------------
          | TOTAL ENERGY             -107.566738530712 Eh   |
          | TOTAL ENTHALPY           -106.983986215261 Eh   |
          | TOTAL FREE ENERGY        -107.081417945894 Eh   |
          | GRADIENT NORM               0.000033983158 Eh/α |
          | HOMO-LUMO GAP               2.429435457887 eV   |
           -------------------------------------------------

 * finished run on 2025/09/04 at 15:22:13.177
