   * xtb version 6.7.1 (edcfbbe) compiled by 'albert@albert-system' on 2024-07-22

   ID    Z sym.   atoms
    1    6 C      1-4, 6-11, 15-24, 26-40
    2    7 N      5, 25
    3   16 S      12
    4    8 O      13, 14
    5    1 H      41-70

          program call               : xtb data2507/toluene/DMACMNPTO/DMACMNPTO_toluene_S0_finalOpt.xtbopt.xyz --gfn 2 --uhf 2 --gbsa toluene --ohess vtight --parallel 40 --molden --ceasefiles --namespace data2507/toluene/DMACMNPTO/DMACMNPTO_toluene_T1_preOpt
      * Solvation model:               GBSA
        Solvent                        toluene
        Solvent mass                       9.2140E+01 g/mol
          :  Hamiltonian                  GFN2-xTB          :
 * total energy  :  -107.4521386 Eh     change       -0.1876786E-07 Eh
 * total energy  :  -107.4542851 Eh     change       -0.2146524E-02 Eh
 * total energy  :  -107.4548981 Eh     change       -0.6129657E-03 Eh
 * total energy  :  -107.4549974 Eh     change       -0.9937191E-04 Eh
 * total energy  :  -107.4550423 Eh     change       -0.4485124E-04 Eh
 * total energy  :  -107.4550618 Eh     change       -0.1956737E-04 Eh
 * total energy  :  -107.4550823 Eh     change       -0.2046213E-04 Eh
 * total energy  :  -107.4551025 Eh     change       -0.2016688E-04 Eh
 * total energy  :  -107.4551244 Eh     change       -0.2197310E-04 Eh
 * total energy  :  -107.4551472 Eh     change       -0.2274387E-04 Eh
 * total energy  :  -107.4552505 Eh     change       -0.2262093E-05 Eh
 * total energy  :  -107.4552525 Eh     change       -0.1953922E-05 Eh
 * total energy  :  -107.4552538 Eh     change       -0.1348052E-05 Eh
 * total energy  :  -107.4552552 Eh     change       -0.1336414E-05 Eh
 * total energy  :  -107.4552564 Eh     change       -0.1264072E-05 Eh
 * total energy  :  -107.4552575 Eh     change       -0.1058111E-05 Eh
 * total energy  :  -107.4552582 Eh     change       -0.7419010E-06 Eh
 * total energy  :  -107.4552586 Eh     change       -0.3166804E-06 Eh
 * total energy  :  -107.4552586 Eh     change       -0.1913608E-07 Eh
   *** GEOMETRY OPTIMIZATION CONVERGED AFTER 34 ITERATIONS ***

 final structure:
================
70
 xtb: 6.7.1 (edcfbbe)
C           -1.85997764474693       -0.01870878270302        2.53666250494006
C           -1.00262878969544       -0.01393188170854        1.30924031036240
C            0.37562373776007       -0.01777572334647        1.38592034851592
C            1.16879243102892       -0.01201943092616        0.23146797268729
N            2.59398399693253       -0.01542770298741        0.34490476837861
C            3.21679627621276       -1.24477281354295        0.33793057379253
C            2.47285533143761       -2.42002742444484        0.56890150705762
C            3.06888986204083       -3.65727349200869        0.57405319975047
C            4.44512008610485       -3.79582656540455        0.33540492361978
C            5.19005036883094       -2.65935236347942        0.08845405746658
C            4.59942396969191       -1.41094683728059        0.09584153179386
S            5.59006415837397       -0.01476719682858       -0.34388868692729
O            5.75444137681855       -0.00141124149171       -1.79228221567228
O            6.83173025317094       -0.02391136982561        0.40998141924977
C            4.60451902834669        1.37679651347405        0.12148140981469
C            5.19999657525299        2.62284567028798        0.13666331553896
C            4.45939427304794        3.75758722836779        0.40377877884883
C            3.08255015521730        3.62010198673636        0.63936353615727
C            2.48164524705314        2.38545036217853        0.61160164446424
C            3.22117332247138        1.21164616947225        0.36005631908714
C            0.58178426575446       -0.00251141615746       -1.04222610976181
C            1.43829382233380        0.00396919586429       -2.26846891102256
C           -0.79648739297713        0.00110984707417       -1.12105480384941
C           -1.58748652130117       -0.00450662821535        0.03391882723872
N           -3.00803761551138        0.00090381177273       -0.09239215850361
C           -3.67132223681649       -1.19745599109955       -0.10800698413206
C           -2.93715862685778       -2.40360251790494       -0.08490826580262
C           -3.57561792574386       -3.61513951515720       -0.07953678250067
C           -4.97302851742770       -3.66600610730593       -0.09230209115031
C           -5.70087210948038       -2.48595431298982       -0.11863144056631
C           -5.08979081986879       -1.24433958278394       -0.13125070828516
C           -5.92303463323451        0.01456134628479       -0.15988110589414
C           -6.81901929177944        0.04317546178653        1.09637854371991
C           -6.80187785296634       -0.00514302702959       -1.42843553174380
C           -5.07669075188360        1.26497194777549       -0.17830736809050
C           -5.67544074010483        2.51228941010980       -0.21305109519710
C           -4.93603113881252        3.68515826706448       -0.22630298177194
C           -3.53944708689484        3.62114563966244       -0.20234016434678
C           -2.91296968700673        2.40388002892846       -0.16183906202103
C           -3.65886388834855        1.20501652544198       -0.14953231578294
H           -2.50416859608677        0.86041701355128        2.55600340987797
H           -1.24385648010455       -0.01797303079726        3.43115565025847
H           -2.49801024017243       -0.90242075171774        2.55343681309234
H            0.86532815260918       -0.02476549507241        2.34790917786934
H            1.41397792461195       -2.34016383766482        0.75525351720744
H            2.47122380983967       -4.53514146709660        0.76555759906704
H            4.90855564339388       -4.76884765941216        0.33760862640646
H            6.25018336285106       -2.70514223712344       -0.11380167871174
H            6.26044799530400        2.66814819343532       -0.06390027127886
H            4.92668241806578        4.72854976809755        0.42385178704471
H            2.48807407224295        4.49674341559846        0.84582600961328
H            1.42226402728155        2.30660889767318        0.79547826939364
H            0.82766218244090        0.01175266223195       -3.16707583780241
H            2.08767962843831        0.88015698687581       -2.27749852763180
H            2.08346190677387       -0.87509755739715       -2.28984834175765
H           -1.28256121355451        0.00823189022011       -2.08502676830238
H           -1.85990804574826       -2.35910185579169       -0.07699641625490
H           -3.00084206284330       -4.52852542953866       -0.06545886142971
H           -5.48257581291681       -4.61671433042907       -0.08366977727228
H           -6.77789748954392       -2.54952582000337       -0.12983642693131
H           -7.44965091511017        0.92705166467563        1.09751564555283
H           -7.45881480747603       -0.83341112880618        1.13089065941356
H           -6.20361729222979        0.05703382750744        1.99380956691067
H           -7.44079390908370       -0.88290506920896       -1.43920921639195
H           -7.43309686381408        0.87716045732774       -1.47197426786627
H           -6.17345116940195       -0.02449908423396       -2.31672605787872
H           -6.75172286005231        2.58602388287066       -0.23093132908012
H           -5.43613198635852        4.64048154833307       -0.25468537974529
H           -2.95563844187252        4.52878726192777       -0.21541438887908
H           -1.83629762657779        2.34978821721808       -0.14390186148871

          :  Hamiltonian                  GFN2-xTB          :
         :: gradient norm              0.000187762145 Eh/a0 ::
         :: HOMO-LUMO gap              0.049253782891 eV    ::
         :: SCC energy              -109.230026952475 Eh    ::
         :: -> dispersion             -0.102861819068 Eh    ::
         :: -> Gsolv                  -0.058495487152 Eh    ::
         :: repulsion energy           1.774768370904 Eh    ::

    * Orbital Energies and Occupations

         #    Occupation            Energy/Eh            Energy/eV
      -------------------------------------------------------------
         1        2.0000           -0.7607880             -20.7021
       ...           ...                  ...                  ...
        88        2.0000           -0.4175497             -11.3621
        89        2.0000           -0.4156189             -11.3096
        90        2.0000           -0.4151611             -11.2971
        91        2.0000           -0.4138483             -11.2614
        92        2.0000           -0.4129334             -11.2365
        93        2.0000           -0.4112768             -11.1914
        94        2.0000           -0.4095470             -11.1443
        95        2.0000           -0.4073689             -11.0851
        96        2.0000           -0.3986531             -10.8479
        97        2.0000           -0.3937611             -10.7148
        98        1.7470           -0.3650549              -9.9336
        99        1.2530           -0.3629972              -9.8777
       100        0.7111           -0.2457219              -6.6864 (HOMO)
       101        0.2683           -0.2439128              -6.6372 (LUMO)
       102        0.0164           -0.2409768              -6.5573
       103        0.0042           -0.2396786              -6.5220
       104        0.0000           -0.2315831              -6.3017
       105        0.0000           -0.2313913              -6.2965
       106        0.0000           -0.2306206              -6.2755
       107                         -0.2284035              -6.2152
       108                         -0.2076013              -5.6491
       109                         -0.2066660              -5.6237
       110                         -0.1154175              -3.1407
       111                         -0.1132689              -3.0822
       ...                                ...                  ...
       195                          1.1562396              31.4629
      -------------------------------------------------------------
                  HL-Gap            0.0018092 Eh            0.0492 eV

     #   Z          covCN         q      C6AA      α(0)
     1   6 C        3.757    -0.110    22.658     6.787
     2   6 C        2.962     0.009    27.812     8.650
     3   6 C        2.923    -0.057    29.408     8.893
     4   6 C        2.940     0.030    27.331     8.574
     5   7 N        2.748    -0.035    21.926     6.954
     6   6 C        2.952     0.044    27.001     8.523
     7   6 C        2.921    -0.049    29.223     8.865
     8   6 C        2.916    -0.037    28.931     8.820
     9   6 C        2.916    -0.046    29.153     8.854
    10   6 C        2.971    -0.023    28.582     8.769
    11   6 C        2.968    -0.105    30.653     9.081
    12  16 S        3.850     0.926   108.797    17.555
    13   8 O        0.860    -0.609    26.336     6.880
    14   8 O        0.860    -0.602    26.159     6.857
    15   6 C        2.968    -0.105    30.652     9.081
    16   6 C        2.971    -0.023    28.582     8.769
    17   6 C        2.916    -0.046    29.152     8.854
    18   6 C        2.916    -0.037    28.930     8.820
    19   6 C        2.921    -0.049    29.224     8.865
    20   6 C        2.952     0.045    27.000     8.523
    21   6 C        2.963     0.008    27.837     8.654
    22   6 C        3.757    -0.106    22.577     6.774
    23   6 C        2.923    -0.054    29.340     8.883
    24   6 C        2.936     0.023    27.497     8.600
    25   7 N        2.754     0.020    20.900     6.790
    26   6 C        2.931     0.048    26.920     8.509
    27   6 C        2.918    -0.045    29.126     8.850
    28   6 C        2.914    -0.030    28.761     8.794
    29   6 C        2.916    -0.036    28.885     8.813
    30   6 C        2.921    -0.033    28.825     8.804
    31   6 C        2.975    -0.001    28.051     8.688
    32   6 C        3.909     0.025    20.090     6.371
    33   6 C        3.761    -0.106    22.576     6.773
    34   6 C        3.761    -0.106    22.573     6.773
    35   6 C        2.975    -0.001    28.051     8.688
    36   6 C        2.921    -0.033    28.825     8.804
    37   6 C        2.916    -0.035    28.881     8.813
    38   6 C        2.914    -0.030    28.760     8.794
    39   6 C        2.918    -0.045    29.126     8.850
    40   6 C        2.931     0.048    26.917     8.508
    41   1 H        0.925     0.054     2.274     2.358
    42   1 H        0.925     0.053     2.282     2.362
    43   1 H        0.925     0.054     2.269     2.355
    44   1 H        0.926     0.048     2.342     2.393
    45   1 H        0.926     0.055     2.264     2.353
    46   1 H        0.926     0.049     2.327     2.385
    47   1 H        0.926     0.042     2.419     2.432
    48   1 H        0.926     0.029     2.603     2.523
    49   1 H        0.926     0.029     2.602     2.523
    50   1 H        0.926     0.042     2.419     2.432
    51   1 H        0.926     0.049     2.326     2.385
    52   1 H        0.926     0.055     2.263     2.352
    53   1 H        0.925     0.054     2.266     2.354
    54   1 H        0.924     0.044     2.390     2.418
    55   1 H        0.924     0.044     2.390     2.418
    56   1 H        0.926     0.048     2.343     2.394
    57   1 H        0.926     0.044     2.398     2.422
    58   1 H        0.926     0.039     2.459     2.452
    59   1 H        0.926     0.039     2.463     2.454
    60   1 H        0.926     0.046     2.372     2.409
    61   1 H        0.925     0.052     2.300     2.371
    62   1 H        0.925     0.052     2.299     2.371
    63   1 H        0.925     0.040     2.454     2.450
    64   1 H        0.925     0.052     2.298     2.370
    65   1 H        0.925     0.052     2.298     2.370
    66   1 H        0.925     0.039     2.469     2.457
    67   1 H        0.926     0.046     2.371     2.408
    68   1 H        0.926     0.039     2.461     2.453
    69   1 H        0.926     0.039     2.457     2.451
    70   1 H        0.926     0.044     2.396     2.421

molecular dipole:
                 x           y           z       tot (Debye)
 q only:       -8.662       0.016       1.100
   full:       -8.096       0.016       0.939      20.717

 projected vibrational frequencies (cm⁻¹)
eigval :       -0.00    -0.00     0.00     0.00     0.00     0.00
eigval :        8.73    12.06    17.96    21.09    25.03    43.14
eigval :       56.92    60.42    75.85    80.96    82.98    98.28
eigval :      100.97   110.56   122.94   131.66   137.64   145.76
eigval :      152.43   174.48   195.63   200.69   212.62   223.77
eigval :      224.71   235.18   238.19   255.92   278.82   296.02
eigval :      299.39   301.40   319.34   320.30   335.93   339.64
eigval :      353.98   361.81   378.40   388.36   396.80   397.42
eigval :      411.74   415.75   425.28   429.12   440.62   443.91
eigval :      453.20   471.59   481.98   486.67   497.90   503.38
eigval :      525.00   532.32   538.91   561.50   567.87   573.68
eigval :      580.02   607.97   618.64   620.07   630.43   656.76
eigval :      662.19   664.97   681.49   693.46   697.84   718.82
eigval :      737.99   740.52   749.75   751.21   763.94   812.91
eigval :      820.07   835.18   837.33   840.54   842.04   849.77
eigval :      852.48   854.82   887.72   888.76   890.69   896.18
eigval :      896.50   897.20   903.35   904.44   909.67   910.21
eigval :      922.35   936.43   941.18   959.67  1007.35  1008.72
eigval :     1018.90  1021.89  1025.41  1031.48  1054.03  1059.04
eigval :     1064.02  1067.29  1078.03  1085.76  1086.00  1106.03
eigval :     1111.58  1133.03  1133.91  1148.56  1154.30  1157.34
eigval :     1159.47  1165.68  1166.27  1172.98  1179.96  1181.27
eigval :     1189.87  1206.12  1211.96  1226.04  1235.24  1250.09
eigval :     1263.14  1269.07  1288.26  1291.23  1311.05  1317.10
eigval :     1322.45  1322.74  1326.94  1340.31  1343.21  1347.32
eigval :     1350.20  1355.50  1361.74  1372.77  1387.84  1395.93
eigval :     1403.55  1407.54  1407.91  1415.37  1420.56  1429.32
eigval :     1433.16  1443.71  1444.33  1459.32  1464.28  1471.32
eigval :     1471.52  1472.63  1473.32  1480.43  1480.83  1490.53
eigval :     1491.75  1494.85  1496.57  1497.40  1523.70  1552.71
eigval :     2989.84  2997.99  3006.59  3010.75  3030.03  3032.70
eigval :     3048.78  3049.71  3050.44  3055.58  3055.73  3059.16
eigval :     3080.94  3081.22  3085.61  3085.71  3087.66  3087.97
eigval :     3088.82  3089.90  3090.03  3091.66  3100.94  3101.23
eigval :     3104.28  3104.87  3109.02  3109.53  3109.97  3110.18

   temp. (K)  partition function   enthalpy   heat capacity  entropy
                                   cal/mol     cal/K/mol   cal/K/mol   J/K/mol
 298.15  VIB  0.185E+17            21121.323    131.918    131.320
         ROT  0.444E+08              888.752      2.981     37.974
         INT  0.823E+24            22010.075    134.899    169.294
         TR   0.122E+29             1481.254      4.968     44.739
         TOT                       23491.3290   139.8671   214.0335   895.5160

       T/K    H(0)-H(T)+PV         H(T)/Eh          T*S/Eh         G(T)/Eh
   ------------------------------------------------------------------------
    298.15    0.374358E-01    0.574942E+00    0.101694E+00    0.473248E+00
   ------------------------------------------------------------------------

         :::::::::::::::::::::::::::::::::::::::::::::::::::::
         ::                  THERMODYNAMIC                  ::
         :::::::::::::::::::::::::::::::::::::::::::::::::::::
         :: total free energy        -106.982010580199 Eh   ::
         ::.................................................::
         :: total energy             -107.455258579565 Eh   ::
         :: zero point energy           0.537506389284 Eh   ::
         :: G(RRHO) w/o ZPVE           -0.064258389918 Eh   ::
         :: G(RRHO) contrib.            0.473247999366 Eh   ::
         :::::::::::::::::::::::::::::::::::::::::::::::::::::

           -------------------------------------------------
          | TOTAL ENERGY             -107.455258579565 Eh   |
          | TOTAL ENTHALPY           -106.880316374580 Eh   |
          | TOTAL FREE ENERGY        -106.982010580199 Eh   |
          | GRADIENT NORM               0.000183522112 Eh/α |
          | HOMO-LUMO GAP               0.049230139437 eV   |
           -------------------------------------------------

 * finished run on 2025/09/04 at 15:22:19.668
