   * xtb version 6.7.1 (edcfbbe) compiled by 'albert@albert-system' on 2024-07-22

   ID    Z sym.   atoms
    1    6 C      1-4, 6-11, 15-24, 26-40
    2    7 N      5, 25
    3   16 S      12
    4    8 O      13, 14
    5    1 H      41-70

          program call               : xtb data2507/toluene/DMACMNPTO/DMACMNPTO.xyz --gfn 2 --gbsa toluene --ohess vtight --parallel 40 --molden --ceasefiles --namespace data2507/toluene/DMACMNPTO/DMACMNPTO_toluene_S0_preOpt
      * Solvation model:               GBSA
        Solvent                        toluene
        Solvent mass                       9.2140E+01 g/mol
          :  Hamiltonian                  GFN2-xTB          :
 * total energy  :  -107.5375937 Eh     change       -0.6988330E-09 Eh
 * total energy  :  -107.5554719 Eh     change       -0.1787811E-01 Eh
 * total energy  :  -107.5629308 Eh     change       -0.7458896E-02 Eh
 * total energy  :  -107.5623852 Eh     change        0.5455653E-03 Eh
 * total energy  :  -107.5638251 Eh     change       -0.1439939E-02 Eh
 * total energy  :  -107.5628408 Eh     change        0.9842976E-03 Eh
 * total energy  :  -107.5656894 Eh     change       -0.2848580E-02 Eh
 * total energy  :  -107.5661207 Eh     change       -0.4312580E-03 Eh
 * total energy  :  -107.5663564 Eh     change       -0.2357454E-03 Eh
 * total energy  :  -107.5664758 Eh     change       -0.1194232E-03 Eh
 * total energy  :  -107.5667229 Eh     change       -0.1552903E-05 Eh
 * total energy  :  -107.5667239 Eh     change       -0.1013347E-05 Eh
 * total energy  :  -107.5667247 Eh     change       -0.7714616E-06 Eh
 * total energy  :  -107.5667253 Eh     change       -0.6570854E-06 Eh
 * total energy  :  -107.5667261 Eh     change       -0.7128123E-06 Eh
 * total energy  :  -107.5667267 Eh     change       -0.6575301E-06 Eh
 * total energy  :  -107.5667271 Eh     change       -0.3455787E-06 Eh
 * total energy  :  -107.5667273 Eh     change       -0.2001215E-06 Eh
 * total energy  :  -107.5667273 Eh     change       -0.6101672E-08 Eh
   *** GEOMETRY OPTIMIZATION CONVERGED AFTER 68 ITERATIONS ***

 final structure:
================
70
 xtb: 6.7.1 (edcfbbe)
C           -0.92862843199634        0.00062142473493        2.47528468022055
C           -0.13185803960055       -0.00068536975697        1.20945937718355
C            1.25495363413013       -0.00074085956651        1.22153822624989
C            1.98216863365881       -0.00111701124408        0.03881404425304
N            3.41675879754725       -0.00043158052713        0.08452227658172
C            4.04765911529757       -1.23063248028260        0.12226748992346
C            3.29176904134275       -2.40112343467358        0.30970801447843
C            3.89626462547030       -3.63752873688432        0.38483651850800
C            5.27558975809008       -3.76807302098043        0.28518445769529
C            6.03377965424715       -2.63160938737461        0.08520549801541
C            5.42750494310912       -1.39096289907072       -0.00037402121983
S            6.45825587975958        0.00099892427510       -0.38264355139059
O            6.71592746476136        0.00040052144331       -1.81137574673256
O            7.63487095492267        0.00207314549486        0.46154907341851
C            5.42596502750115        1.39223441735532       -0.00187023455280
C            6.03084763144935        2.63364906719294        0.08242927730354
C            5.27134701742449        3.76950938564476        0.28085917993159
C            3.89212740015351        3.63758520301093        0.38014252716314
C            3.28901016040416        2.40043095566274        0.30632594668245
C            4.04627076747584        1.23053106118435        0.12066551097751
C            1.34584105838026       -0.00153871037307       -1.20220294433176
C            2.14148390981517       -0.00089877638594       -2.46914304960954
C           -0.04251072200890       -0.00198440270731       -1.21236805858034
C           -0.77340643539494       -0.00151150442061       -0.03288488463628
N           -2.19595577964151       -0.00104175897333       -0.09134214444164
C           -2.86849800907694       -1.21149321732536       -0.09880223698811
C           -2.14056701928724       -2.40523278780430       -0.08844862352997
C           -2.77940610851876       -3.62753460482528       -0.09271000821860
C           -4.16173246396526       -3.68069564744795       -0.10906580331699
C           -4.88376739403137       -2.50085700580965       -0.11995873838870
C           -4.26678918041378       -1.25724695225997       -0.11397903102658
C           -5.11628956650158        0.00047325212212       -0.12015249614505
C           -6.00670028628683       -0.00025265858099        1.13694155817906
C           -5.98898666345466        0.00195022693554       -1.38932343907505
C           -4.26551035687668        1.25732599002831       -0.11218106943646
C           -4.88117102847123        2.50160670897105       -0.11646497169653
C           -4.15790448685775        3.68068011404841       -0.10475391789766
C           -2.77562322396551        3.62606163819713       -0.08957606170880
C           -2.13807174162227        2.40309152493448       -0.08687330140018
C           -2.86727104677560        1.21010893921395       -0.09767409898103
H           -1.56944583179300       -0.87980843439044        2.51850672103727
H           -1.57266534224050        0.87887858238407        2.51454412501820
H           -0.27543641875367        0.00376002634796        3.34299696586280
H            1.78671500353456       -0.00021483823708        2.16154391906612
H            2.22007180203248       -2.33147660215736        0.39736737227036
H            3.28300672996360       -4.51409042215011        0.52853551562093
H            5.74545907079925       -4.73601210985642        0.35156225404505
H            7.10798537188779       -2.66817556568837       -0.01348008592773
H            7.10503983217911        2.67127543532689       -0.01599557858748
H            5.74013611285409        4.73803726415173        0.34629484416624
H            3.27784103885953        4.51365045223228        0.52247431027031
H            2.21734160803394        2.32975482636426        0.39362491772983
H            1.48512524627862       -0.00096452425430       -3.33455155374492
H            2.78474852945624        0.87769474370518       -2.51698600800706
H            2.78572447072310       -0.87873332103060       -2.51753042338601
H           -0.57302782701990       -0.00237076751558       -2.15305591479030
H           -1.06224986391585       -2.36872962749472       -0.07823870480387
H           -2.19600608846493       -4.53670210679784       -0.08371755457399
H           -4.67536438381006       -4.63057125126215       -0.11304064882281
H           -5.96182012859782       -2.55817278753485       -0.13211488677955
H           -6.64073809160835        0.88172091633037        1.16345773421296
H           -6.64583396456488       -0.87868199777356        1.15873102920054
H           -5.38678090086485       -0.00443888264520        2.03210043029823
H           -6.62613034818099       -0.87755268069050       -1.42324834658986
H           -6.62433944094973        0.88277337940155       -1.42241116673728
H           -5.35635466173680        0.00172910840550       -2.27557870535826
H           -5.95917566630578        2.56009064012723       -0.12798922163330
H           -4.67054881071511        4.63109192373980       -0.10742031800461
H           -2.19124394159504        4.53459565324595       -0.08034565286878
H           -1.05977959567919        2.36550227454037       -0.07759959164885

          :  Hamiltonian                  GFN2-xTB          :
         :: gradient norm              0.000053960896 Eh/a0 ::
         :: HOMO-LUMO gap              2.428591015977 eV    ::
         :: SCC energy              -109.365552034760 Eh    ::
         :: -> dispersion             -0.102880117150 Eh    ::
         :: -> Gsolv                  -0.050901464118 Eh    ::
         :: repulsion energy           1.798824763325 Eh    ::

    * Orbital Energies and Occupations

         #    Occupation            Energy/Eh            Energy/eV
      -------------------------------------------------------------
         1        2.0000           -0.7741351             -21.0653
       ...           ...                  ...                  ...
        87        2.0000           -0.4275962             -11.6355
        88        2.0000           -0.4270372             -11.6203
        89        2.0000           -0.4268603             -11.6155
        90        2.0000           -0.4201081             -11.4317
        91        2.0000           -0.4097273             -11.1492
        92        2.0000           -0.4071292             -11.0785
        93        2.0000           -0.4059514             -11.0465
        94        2.0000           -0.4027261             -10.9587
        95        2.0000           -0.4017723             -10.9328
        96        2.0000           -0.3969151             -10.8006
        97        2.0000           -0.3916077             -10.6562
        98        2.0000           -0.3782605             -10.2930
        99        2.0000           -0.3452590              -9.3950 (HOMO)
       100                         -0.2560100              -6.9664 (LUMO)
       101                         -0.2551704              -6.9435
       102                         -0.2476440              -6.7387
       103                         -0.2457311              -6.6867
       104                         -0.2386319              -6.4935
       105                         -0.2231197              -6.0714
       106                         -0.2183299              -5.9411
       107                         -0.2181127              -5.9351
       108                         -0.2171442              -5.9088
       109                         -0.1887431              -5.1360
       110                         -0.1275593              -3.4711
       ...                                ...                  ...
       195                          1.1663610              31.7383
      -------------------------------------------------------------
                  HL-Gap            0.0892490 Eh            2.4286 eV

     #   Z          covCN         q      C6AA      α(0)
     1   6 C        3.757    -0.110    22.663     6.787
     2   6 C        2.966     0.012    27.736     8.638
     3   6 C        2.924    -0.051    29.258     8.870
     4   6 C        2.938     0.045    26.987     8.520
     5   7 N        2.750    -0.051    22.234     7.003
     6   6 C        2.953     0.061    26.622     8.463
     7   6 C        2.927    -0.050    29.238     8.868
     8   6 C        2.919    -0.023    28.575     8.766
     9   6 C        2.918    -0.034    28.846     8.807
    10   6 C        2.976    -0.021    28.521     8.760
    11   6 C        2.973    -0.097    30.439     9.050
    12  16 S        3.855     0.947   108.182    17.506
    13   8 O        0.860    -0.596    26.017     6.839
    14   8 O        0.860    -0.589    25.842     6.816
    15   6 C        2.973    -0.097    30.439     9.050
    16   6 C        2.976    -0.021    28.521     8.760
    17   6 C        2.918    -0.034    28.846     8.807
    18   6 C        2.919    -0.023    28.575     8.766
    19   6 C        2.927    -0.050    29.238     8.868
    20   6 C        2.953     0.061    26.622     8.463
    21   6 C        2.965     0.012    27.749     8.641
    22   6 C        3.757    -0.111    22.680     6.790
    23   6 C        2.927    -0.048    29.186     8.860
    24   6 C        2.930     0.058    26.701     8.474
    25   7 N        2.755    -0.065    22.501     7.045
    26   6 C        2.928     0.058    26.704     8.475
    27   6 C        2.924    -0.061    29.519     8.910
    28   6 C        2.919    -0.035    28.883     8.813
    29   6 C        2.917    -0.047    29.170     8.857
    30   6 C        2.928    -0.038    28.936     8.822
    31   6 C        2.979    -0.015    28.370     8.737
    32   6 C        3.908     0.021    20.164     6.383
    33   6 C        3.761    -0.103    22.515     6.764
    34   6 C        3.761    -0.103    22.510     6.764
    35   6 C        2.979    -0.015    28.370     8.737
    36   6 C        2.928    -0.038    28.936     8.822
    37   6 C        2.917    -0.047    29.170     8.857
    38   6 C        2.919    -0.035    28.883     8.813
    39   6 C        2.924    -0.061    29.520     8.910
    40   6 C        2.928     0.058    26.704     8.475
    41   1 H        0.925     0.059     2.213     2.327
    42   1 H        0.925     0.059     2.214     2.327
    43   1 H        0.925     0.055     2.254     2.348
    44   1 H        0.926     0.057     2.233     2.337
    45   1 H        0.926     0.062     2.179     2.308
    46   1 H        0.926     0.064     2.156     2.296
    47   1 H        0.926     0.058     2.226     2.333
    48   1 H        0.926     0.044     2.399     2.422
    49   1 H        0.926     0.044     2.399     2.422
    50   1 H        0.926     0.058     2.226     2.333
    51   1 H        0.926     0.064     2.156     2.296
    52   1 H        0.926     0.062     2.179     2.308
    53   1 H        0.925     0.060     2.202     2.321
    54   1 H        0.925     0.053     2.288     2.365
    55   1 H        0.925     0.053     2.288     2.365
    56   1 H        0.926     0.056     2.241     2.341
    57   1 H        0.926     0.025     2.652     2.547
    58   1 H        0.926     0.026     2.641     2.541
    59   1 H        0.926     0.023     2.687     2.563
    60   1 H        0.926     0.030     2.590     2.517
    61   1 H        0.925     0.040     2.448     2.447
    62   1 H        0.925     0.040     2.448     2.447
    63   1 H        0.925     0.031     2.575     2.509
    64   1 H        0.925     0.040     2.450     2.448
    65   1 H        0.925     0.040     2.450     2.448
    66   1 H        0.925     0.030     2.593     2.518
    67   1 H        0.926     0.030     2.590     2.517
    68   1 H        0.926     0.023     2.687     2.563
    69   1 H        0.926     0.026     2.641     2.541
    70   1 H        0.926     0.025     2.652     2.547

molecular dipole:
                 x           y           z       tot (Debye)
 q only:       -3.745      -0.001       1.073
   full:       -3.359      -0.001       0.975       8.891

 projected vibrational frequencies (cm⁻¹)
eigval :       -0.00    -0.00    -0.00     0.00     0.00     0.00
eigval :       -6.19     5.27    13.99    16.24    19.47    41.76
eigval :       56.73    62.10    87.30    88.03    95.35    97.40
eigval :      100.51   108.59   116.65   125.13   127.13   158.43
eigval :      166.41   181.18   189.27   199.35   219.63   225.68
eigval :      227.06   237.63   239.49   264.71   283.79   295.90
eigval :      302.89   305.05   316.01   329.51   339.25   345.08
eigval :      363.10   373.75   378.15   390.84   405.73   431.02
eigval :      436.15   440.08   444.24   450.42   454.16   458.22
eigval :      481.63   491.74   510.56   513.41   513.52   519.12
eigval :      545.57   552.76   554.44   563.56   581.06   588.62
eigval :      620.90   643.23   647.71   666.02   666.28   671.24
eigval :      681.76   692.70   696.45   701.85   728.06   730.29
eigval :      770.86   772.58   774.94   776.75   782.44   822.35
eigval :      851.70   860.35   860.93   863.51   866.16   866.94
eigval :      888.87   910.36   910.60   911.72   911.82   912.47
eigval :      918.29   920.62   920.93   921.28   921.42   932.02
eigval :      939.17   957.30  1008.38  1010.74  1021.73  1027.80
eigval :     1028.46  1032.79  1065.56  1070.09  1075.54  1084.45
eigval :     1092.48  1093.15  1110.60  1118.11  1128.05  1138.16
eigval :     1155.21  1158.09  1158.98  1163.37  1175.12  1178.28
eigval :     1181.38  1183.17  1185.49  1185.71  1186.98  1231.90
eigval :     1235.02  1238.12  1239.90  1247.59  1257.18  1265.12
eigval :     1284.16  1293.18  1300.83  1309.72  1324.58  1326.76
eigval :     1333.21  1338.79  1339.77  1355.01  1400.04  1401.19
eigval :     1404.09  1409.32  1419.04  1419.30  1420.04  1436.07
eigval :     1441.14  1462.15  1464.05  1466.45  1469.76  1475.82
eigval :     1477.71  1481.59  1486.57  1487.99  1489.12  1496.20
eigval :     1497.67  1502.24  1550.46  1555.46  1559.21  1573.50
eigval :     1588.54  1589.86  1590.49  1592.99  1598.94  1602.00
eigval :     3001.30  3003.66  3016.74  3017.89  3020.49  3023.24
eigval :     3037.06  3038.82  3046.00  3049.73  3056.24  3057.35
eigval :     3070.86  3070.95  3077.61  3077.73  3087.77  3087.97
eigval :     3089.32  3090.92  3091.41  3091.55  3093.70  3093.95
eigval :     3094.98  3096.17  3109.98  3110.18  3116.48  3117.02

   temp. (K)  partition function   enthalpy   heat capacity  entropy
                                   cal/mol     cal/K/mol   cal/K/mol   J/K/mol
 298.15  VIB  0.592E+17            20601.048    128.060    129.923
         ROT  0.445E+08              888.752      2.981     37.980
         INT  0.264E+25            21489.800    131.041    167.903
         TR   0.122E+29             1481.254      4.968     44.739
         TOT                       22971.0542   136.0091   212.6427   889.6970

       T/K    H(0)-H(T)+PV         H(T)/Eh          T*S/Eh         G(T)/Eh
   ------------------------------------------------------------------------
    298.15    0.366067E-01    0.583626E+00    0.101033E+00    0.482592E+00
   ------------------------------------------------------------------------

         :::::::::::::::::::::::::::::::::::::::::::::::::::::
         ::                  THERMODYNAMIC                  ::
         :::::::::::::::::::::::::::::::::::::::::::::::::::::
         :: total free energy        -107.084134864737 Eh   ::
         ::.................................................::
         :: total energy             -107.566727267652 Eh   ::
         :: zero point energy           0.547019105148 Eh   ::
         :: G(RRHO) w/o ZPVE           -0.064426702233 Eh   ::
         :: G(RRHO) contrib.            0.482592402915 Eh   ::
         :::::::::::::::::::::::::::::::::::::::::::::::::::::

           -------------------------------------------------
          | TOTAL ENERGY             -107.566727267652 Eh   |
          | TOTAL ENTHALPY           -106.983101457585 Eh   |
          | TOTAL FREE ENERGY        -107.084134864737 Eh   |
          | GRADIENT NORM               0.000053917207 Eh/α |
          | HOMO-LUMO GAP               2.428588877080 eV   |
           -------------------------------------------------

 * finished run on 2025/09/04 at 15:19:46.076
