   * xtb version 6.7.1 (edcfbbe) compiled by 'albert@albert-system' on 2024-07-22

   ID    Z sym.   atoms
    1    8 O      1, 3, 11, 26, 33, 35
    2    6 C      2, 4-10, 12-25, 27-32, 34
    3    1 H      36-53

          program call               : xtb data2507/gas/3,3−NHC/3,3−NHC.xyz --gfn 2 --ohess vtight --parallel 40 --molden --ceasefiles --namespace data2507/gas/3,3−NHC/3,3−NHC_gas_S0_preOpt
          :  Hamiltonian                  GFN2-xTB          :
 * total energy  :   -95.6886263 Eh     change       -0.2506297E-08 Eh
 * total energy  :   -95.7034242 Eh     change       -0.1479784E-01 Eh
 * total energy  :   -95.7096087 Eh     change       -0.6184533E-02 Eh
 * total energy  :   -95.7116043 Eh     change       -0.1995572E-02 Eh
 * total energy  :   -95.7129007 Eh     change       -0.1296396E-02 Eh
 * total energy  :   -95.7135777 Eh     change       -0.6770262E-03 Eh
 * total energy  :   -95.7141198 Eh     change       -0.5420888E-03 Eh
 * total energy  :   -95.7145978 Eh     change       -0.4780078E-03 Eh
 * total energy  :   -95.7150142 Eh     change       -0.4164353E-03 Eh
 * total energy  :   -95.7151343 Eh     change       -0.1200152E-03 Eh
 * total energy  :   -95.7166242 Eh     change       -0.9943102E-06 Eh
 * total energy  :   -95.7166252 Eh     change       -0.9806459E-06 Eh
 * total energy  :   -95.7166261 Eh     change       -0.8997527E-06 Eh
 * total energy  :   -95.7166269 Eh     change       -0.8068179E-06 Eh
 * total energy  :   -95.7166277 Eh     change       -0.7790882E-06 Eh
 * total energy  :   -95.7166284 Eh     change       -0.6848355E-06 Eh
 * total energy  :   -95.7166290 Eh     change       -0.6274859E-06 Eh
 * total energy  :   -95.7166296 Eh     change       -0.5343389E-06 Eh
 * total energy  :   -95.7166296 Eh     change       -0.9421200E-08 Eh
   *** GEOMETRY OPTIMIZATION CONVERGED AFTER 68 ITERATIONS ***

 final structure:
================
53
 xtb: 6.7.1 (edcfbbe)
O           -0.54317992870123       -2.00831097055147       -1.34009478391813
C           -1.49781089624469       -1.54187810674641       -0.75646308005497
O           -2.73199541366768       -1.94006382593577       -1.17602939534559
C           -3.87089678928889       -1.45151661494098       -0.64359762920959
C           -5.08340743208049       -1.94477047337964       -1.12186238179617
C           -6.26621394368579       -1.45096182626977       -0.61465653102327
C           -6.25866302564237       -0.46331426968386        0.36674257172746
C           -5.06566564871082        0.02796742933184        0.84465484277678
C           -3.85467450507692       -0.46240597567340        0.34668195541959
C           -2.56734814003141       -0.01933314983679        0.82430817090845
O           -2.58689924535970        0.94354305693322        1.76316374189523
C           -1.42872157675504       -0.57878219521965        0.32646060636049
C           -0.06339937131965       -0.17808021395495        0.86696308439897
C            0.33559398670297        1.14967398239132        0.26834420297833
C            0.30632183691538        1.31913503810301       -1.13105941010378
C            0.61698664712184        2.52348440798252       -1.69063634344284
C            0.96845215234861        3.62968679812559       -0.88745520279143
C            1.29357323222419        4.88716210495052       -1.43516352526573
C            1.63401108901079        5.93501988666182       -0.62566390742600
C            1.66389301122051        5.77285517494789        0.76796442198695
C            1.35182364861132        4.56624146205913        1.32940262509106
C            0.99790944708101        3.46645402982882        0.52123456628059
C            0.66813338158419        2.20960445869308        1.06930830045024
C            0.92895950456944       -1.30342231745200        0.67787825174082
C            2.16613025790736       -1.20334860335838        0.12246814177446
O            2.65128132322033       -0.01000456088748       -0.27663273721226
C            2.96597754485733       -2.40196498436826       -0.03170139171314
C            4.22732361960229       -2.43381394483909       -0.64085418460966
C            4.91530541776607       -3.61790274467039       -0.78113039160591
C            4.36418377649191       -4.80798027904153       -0.31836757097438
C            3.12729997819708       -4.80623090998239        0.28735690539494
C            2.42648835295092       -3.61014723423011        0.43401362061638
O            1.23499586653531       -3.66829088542287        1.05859406654088
C            0.45180144588957       -2.56871822634714        1.21655734726596
O           -0.58834574184444       -2.69857551133843        1.82123645180411
H           -5.06802288787816       -2.70858096911203       -1.88254043426430
H           -7.20550563391631       -1.83452549404610       -0.98301911774451
H           -7.19212903565353       -0.08502472653349        0.75421934301021
H           -5.03727843869634        0.78907159720729        1.60786230366124
H           -1.68680190423112        1.19416126878278        2.01021515164504
H           -0.16178183397969       -0.06769474336929        1.95887361289447
H            0.05264439810665        0.47286664305529       -1.75068614559932
H            0.59808917315050        2.64805212975662       -2.76403893717480
H            1.26882533892465        5.00728855256967       -2.50907866438126
H            1.88269167408158        6.89588856548807       -1.05215572220050
H            1.93562713136921        6.61101829716969        1.39303009746256
H            1.37381402845967        4.43762731921383        2.40256755137302
H            0.70279331661298        2.09677584837172        2.14612459237808
H            3.49760893865902       -0.12396599521420       -0.72650286966095
H            4.68346733228205       -1.52648749042045       -1.01519973331510
H            5.88508529665610       -3.62143103498386       -1.25454560008274
H            4.90633282915889       -5.73354592816101       -0.43372693811368
H            2.67531541446690       -5.71250084564429        0.65663510118810

          :  Hamiltonian                  GFN2-xTB          :
         :: gradient norm              0.000063280670 Eh/a0 ::
         :: HOMO-LUMO gap              2.751934666301 eV    ::
         :: SCC energy               -97.160963682986 Eh    ::
         :: -> dispersion             -0.072641536036 Eh    ::
         :: repulsion energy           1.444334111285 Eh    ::

    * Orbital Energies and Occupations

         #    Occupation            Energy/Eh            Energy/eV
      -------------------------------------------------------------
         1        2.0000           -0.7474773             -20.3399
       ...           ...                  ...                  ...
        73        2.0000           -0.4382903             -11.9265
        74        2.0000           -0.4337632             -11.8033
        75        2.0000           -0.4273454             -11.6287
        76        2.0000           -0.4210882             -11.4584
        77        2.0000           -0.4176599             -11.3651
        78        2.0000           -0.4156698             -11.3110
        79        2.0000           -0.4137383             -11.2584
        80        2.0000           -0.4098445             -11.1524
        81        2.0000           -0.4062061             -11.0534
        82        2.0000           -0.3971291             -10.8064
        83        2.0000           -0.3864863             -10.5168
        84        2.0000           -0.3834251             -10.4335
        85        2.0000           -0.3800008             -10.3403 (HOMO)
        86                         -0.2788690              -7.5884 (LUMO)
        87                         -0.2764065              -7.5214
        88                         -0.2607187              -7.0945
        89                         -0.2448031              -6.6614
        90                         -0.2383581              -6.4861
        91                         -0.2302212              -6.2646
        92                         -0.2219739              -6.0402
        93                         -0.2172214              -5.9109
        94                         -0.1907070              -5.1894
        95                         -0.1613887              -4.3916
        96                         -0.1571387              -4.2760
       ...                                ...                  ...
       158                          0.6977334              18.9863
      -------------------------------------------------------------
                  HL-Gap            0.1011318 Eh            2.7519 eV

     #   Z          covCN         q      C6AA      α(0)
     1   8 O        0.857    -0.425    22.191     6.316
     2   6 C        2.721     0.348    21.091     7.518
     3   8 O        1.710    -0.221    17.660     5.674
     4   6 C        2.879     0.145    24.846     8.171
     5   6 C        2.915    -0.046    29.143     8.852
     6   6 C        2.921    -0.024    28.596     8.769
     7   6 C        2.917    -0.034    28.840     8.806
     8   6 C        2.921    -0.024    28.598     8.770
     9   6 C        2.981    -0.018    28.463     8.751
    10   6 C        2.842     0.157    24.596     8.128
    11   8 O        1.660    -0.365    20.173     6.063
    12   6 C        2.959    -0.068    29.693     8.938
    13   6 C        3.869     0.001    20.525     6.442
    14   6 C        2.971     0.015    27.667     8.628
    15   6 C        2.919    -0.029    28.734     8.790
    16   6 C        2.917    -0.035    28.864     8.810
    17   6 C        2.987     0.012    27.743     8.640
    18   6 C        2.918    -0.035    28.866     8.810
    19   6 C        2.916    -0.031    28.767     8.795
    20   6 C        2.916    -0.030    28.755     8.793
    21   6 C        2.918    -0.036    28.900     8.816
    22   6 C        2.987     0.013    27.708     8.635
    23   6 C        2.922    -0.049    29.228     8.866
    24   6 C        2.957    -0.045    29.119     8.851
    25   6 C        2.836     0.157    24.604     8.129
    26   8 O        1.660    -0.370    20.275     6.079
    27   6 C        2.977    -0.032    28.795     8.802
    28   6 C        2.921    -0.032    28.801     8.801
    29   6 C        2.917    -0.034    28.843     8.807
    30   6 C        2.920    -0.024    28.608     8.771
    31   6 C        2.916    -0.044    29.084     8.843
    32   6 C        2.882     0.149    24.767     8.159
    33   8 O        1.710    -0.214    17.554     5.657
    34   6 C        2.728     0.346    21.124     7.524
    35   8 O        0.857    -0.417    22.030     6.293
    36   1 H        0.926     0.065     2.140     2.288
    37   1 H        0.926     0.052     2.300     2.372
    38   1 H        0.926     0.048     2.339     2.392
    39   1 H        0.926     0.067     2.122     2.278
    40   1 H        0.805     0.317     0.673     1.288
    41   1 H        0.923     0.051     2.313     2.378
    42   1 H        0.926     0.046     2.370     2.408
    43   1 H        0.926     0.034     2.525     2.485
    44   1 H        0.926     0.031     2.568     2.506
    45   1 H        0.926     0.030     2.587     2.515
    46   1 H        0.926     0.030     2.587     2.515
    47   1 H        0.926     0.030     2.590     2.517
    48   1 H        0.925     0.022     2.701     2.570
    49   1 H        0.805     0.313     0.682     1.297
    50   1 H        0.925     0.035     2.513     2.479
    51   1 H        0.926     0.047     2.359     2.402
    52   1 H        0.926     0.053     2.282     2.362
    53   1 H        0.926     0.068     2.106     2.269

molecular dipole:
                 x           y           z       tot (Debye)
 q only:        0.766       1.070      -0.157
   full:        1.224       1.125      -0.188       4.253

 projected vibrational frequencies (cm⁻¹)
eigval :       -0.00    -0.00     0.00     0.00     0.00     0.00
eigval :       14.08    20.18    28.58    32.54    34.71    49.41
eigval :       77.31    86.67    99.75   110.26   117.49   151.60
eigval :      155.82   166.66   169.75   175.73   178.85   256.95
eigval :      259.46   264.98   275.44   299.98   302.99   331.79
eigval :      338.52   364.33   369.83   376.01   379.51   402.09
eigval :      417.78   430.52   437.50   447.75   453.28   457.78
eigval :      479.65   496.86   500.19   504.71   520.92   526.04
eigval :      530.98   561.65   584.95   597.21   604.35   611.40
eigval :      617.35   623.60   649.99   652.40   680.96   692.37
eigval :      708.83   713.89   718.82   729.62   756.41   761.77
eigval :      771.86   775.05   785.43   806.37   839.82   850.21
eigval :      863.80   865.32   870.13   874.24   879.86   882.66
eigval :      900.05   905.73   914.82   915.51   924.69   926.90
eigval :      927.99   931.14   949.36   964.82  1050.01  1058.36
eigval :     1076.17  1080.20  1083.75  1101.26  1122.59  1144.58
eigval :     1160.71  1162.62  1168.58  1169.83  1177.13  1178.81
eigval :     1180.36  1185.73  1195.15  1206.23  1218.83  1230.30
eigval :     1236.08  1243.03  1249.31  1257.65  1262.88  1265.65
eigval :     1276.59  1294.05  1336.27  1341.47  1347.05  1349.86
eigval :     1357.61  1371.91  1405.69  1431.15  1432.07  1434.64
eigval :     1456.86  1464.01  1464.68  1508.48  1557.01  1559.78
eigval :     1568.33  1591.69  1592.24  1603.86  1610.69  1614.55
eigval :     1626.67  1705.12  1717.78  2848.54  3042.53  3047.52
eigval :     3067.33  3069.17  3074.31  3079.68  3089.22  3089.70
eigval :     3093.05  3098.52  3103.08  3105.99  3114.08  3114.94
eigval :     3117.35  3481.43  3491.98

   temp. (K)  partition function   enthalpy   heat capacity  entropy
                                   cal/mol     cal/K/mol   cal/K/mol   J/K/mol
 298.15  VIB  0.416E+12            15774.905    100.968     96.103
         ROT  0.289E+08              888.752      2.981     37.118
         INT  0.120E+20            16663.658    103.949    133.221
         TR   0.962E+28             1481.254      4.968     44.263
         TOT                       18144.9118   108.9175   177.4839   742.5927

       T/K    H(0)-H(T)+PV         H(T)/Eh          T*S/Eh         G(T)/Eh
   ------------------------------------------------------------------------
    298.15    0.289158E-01    0.414612E+00    0.843283E-01    0.330283E+00
   ------------------------------------------------------------------------

         :::::::::::::::::::::::::::::::::::::::::::::::::::::
         ::                  THERMODYNAMIC                  ::
         :::::::::::::::::::::::::::::::::::::::::::::::::::::
         :: total free energy         -95.386346383042 Eh   ::
         ::.................................................::
         :: total energy              -95.716629571689 Eh   ::
         :: zero point energy           0.385695768380 Eh   ::
         :: G(RRHO) w/o ZPVE           -0.055412579733 Eh   ::
         :: G(RRHO) contrib.            0.330283188647 Eh   ::
         :::::::::::::::::::::::::::::::::::::::::::::::::::::

           -------------------------------------------------
          | TOTAL ENERGY              -95.716629571689 Eh   |
          | TOTAL ENTHALPY            -95.302018045839 Eh   |
          | TOTAL FREE ENERGY         -95.386346383042 Eh   |
          | GRADIENT NORM               0.000063267628 Eh/α |
          | HOMO-LUMO GAP               2.751936017763 eV   |
           -------------------------------------------------

 * finished run on 2025/07/20 at 12:56:34.282
