   * xtb version 6.7.1 (edcfbbe) compiled by 'albert@albert-system' on 2024-07-22

   ID    Z sym.   atoms
    1    8 O      1, 3, 11, 26, 33, 35
    2    6 C      2, 4-10, 12-25, 27-32, 34
    3    1 H      36-53

          program call               : xtb data2507/gas/3,3−NHC/3,3−NHC_gas_S0_finalOpt.xtbopt.xyz --gfn 2 --spinpol --tblite --uhf 2 --ohess vtight --parallel 40 --molden --ceasefiles --namespace data2507/gas/3,3−NHC/3,3−NHC_gas_T1_preOpt
 * total energy  :   -95.6355007 Eh     change        0.1422023E-08 Eh
 * total energy  :   -95.6409973 Eh     change       -0.5496603E-02 Eh
 * total energy  :   -95.6425613 Eh     change       -0.1564021E-02 Eh
 * total energy  :   -95.6427396 Eh     change       -0.1782806E-03 Eh
 * total energy  :   -95.6428405 Eh     change       -0.1008905E-03 Eh
 * total energy  :   -95.6428878 Eh     change       -0.4726793E-04 Eh
 * total energy  :   -95.6429231 Eh     change       -0.3536068E-04 Eh
 * total energy  :   -95.6429492 Eh     change       -0.2603397E-04 Eh
 * total energy  :   -95.6429739 Eh     change       -0.2474486E-04 Eh
 * total energy  :   -95.6429995 Eh     change       -0.2557028E-04 Eh
 * total energy  :   -95.6431426 Eh     change       -0.6145307E-06 Eh
 * total energy  :   -95.6431430 Eh     change       -0.4801967E-06 Eh
 * total energy  :   -95.6431434 Eh     change       -0.3891448E-06 Eh
 * total energy  :   -95.6431440 Eh     change       -0.5614889E-06 Eh
 * total energy  :   -95.6431442 Eh     change       -0.1940789E-06 Eh
 * total energy  :   -95.6431445 Eh     change       -0.3419307E-06 Eh
 * total energy  :   -95.6431447 Eh     change       -0.1906877E-06 Eh
 * total energy  :   -95.6431449 Eh     change       -0.2281296E-06 Eh
 * total energy  :   -95.6431450 Eh     change       -0.4479114E-07 Eh
   *** GEOMETRY OPTIMIZATION CONVERGED AFTER 38 ITERATIONS ***

 final structure:
================
53
 xtb: 6.7.1 (edcfbbe)
O           -0.58998968990838        1.04731042476314       -1.78402837887504
C           -1.56856613257038        0.73465055876852       -1.09973775334427
O           -2.78053314855770        0.92039681396177       -1.68333324166451
C           -3.94288269048849        0.66588743250180       -1.01536996565224
C           -5.12936381365794        0.91931347134540       -1.67066205871039
C           -6.34165298711787        0.66291355096960       -1.03183548447422
C           -6.35582115057949        0.14616433618177        0.25890513490722
C           -5.17982715192494       -0.11115407287762        0.92205449802358
C           -3.93531701476685        0.13982417118023        0.29638515607592
C           -2.69768492445014       -0.13784159068490        0.92236787881065
O           -2.72190299216884       -0.65821259747807        2.14666136126281
C           -1.49656518079082        0.23928176621440        0.23670214848179
C           -0.15611818108872        0.21589453374726        0.93078191892988
C            0.72295507531484        1.41251251474541        0.66277727786039
C            0.12872319016659        2.68509781721162        0.56190885701234
C            0.89082936940786        3.80047021860245        0.36449531758459
C            2.29529358860243        3.71041496328510        0.26757396471314
C            3.11126309677808        4.83880028600248        0.05391933844503
C            4.47287536988455        4.71225093143825       -0.02013026545246
C            5.07532329488195        3.45382044656671        0.11717042414768
C            4.30901953342882        2.33902917018342        0.32590230440689
C            2.90441576458057        2.43648533445011        0.40465108158786
C            2.09030500265543        1.30601871557100        0.61221119307675
C            0.40895904134828       -1.13790587704784        0.55431281979810
C            1.17082855252408       -1.41425913627886       -0.60697288039533
O            1.39533727474784       -0.56320271922520       -1.59339458232916
C            1.80345376903975       -2.69016088091459       -0.69935553868162
C            2.65605639419317       -3.03102222249219       -1.76996296040498
C            3.22902868684106       -4.27930113797603       -1.83115996039326
C            2.97825246117868       -5.22049161279932       -0.83814587575630
C            2.14167488942543       -4.90936373014860        0.22620248093711
C            1.56247308595698       -3.65499292456902        0.29769286346630
O            0.74083198854387       -3.39367596305002        1.34958191475788
C            0.16824580755844       -2.17715578904089        1.51196416185740
O           -0.52836777042136       -2.03242151736491        2.51850855137111
H           -5.09764416188077        1.31398796421661       -2.67327898067037
H           -7.26662207141480        0.87036514812876       -1.54588432107259
H           -7.29877597603658       -0.05192494761643        0.74548153192149
H           -5.17016309397670       -0.50862548053656        1.92359946269035
H           -1.87176062070625       -1.10892090448991        2.40477648118759
H           -0.33051713206249        0.19650254167006        2.01610610058763
H           -0.94605515743900        2.76859648902841        0.64108741034807
H            0.42429422395977        4.77128739791019        0.28176344683180
H            2.64264331264121        5.80675726016152       -0.05133619330258
H            5.09221430620762        5.58154843249725       -0.18492208653749
H            6.15042946058530        3.37131205549836        0.05549822793190
H            4.76874920636007        1.36655869511070        0.42880274151614
H            2.57115788687042        0.34507750092816        0.73207225506930
H            0.74429500593972        0.19779767462811       -1.61750597424459
H            2.83899962379589       -2.28727413685134       -2.52824101822681
H            3.87913033001482       -4.53077633600405       -2.65516782348080
H            3.43304019139013       -6.19717498327117       -0.88868361424884
H            1.93046624938274       -5.62531850099889        1.00380822255103

 projected vibrational frequencies (cm⁻¹)
eigval :       -0.00    -0.00    -0.00     0.00     0.00     0.00
eigval :       18.36    23.26    28.49    37.35    47.08    68.27
eigval :       84.14   106.25   119.31   121.89   147.92   151.31
eigval :      156.12   167.77   180.73   195.74   213.49   244.29
eigval :      250.59   257.43   277.84   295.49   311.87   325.88
eigval :      359.90   367.30   388.54   389.05   399.03   406.80
eigval :      410.96   427.10   443.85   446.96   470.55   477.37
eigval :      488.97   494.15   496.87   516.52   521.38   534.94
eigval :      545.88   569.68   583.39   599.53   612.97   613.83
eigval :      623.33   649.70   654.14   660.35   675.56   687.79
eigval :      693.04   716.62   721.86   746.55   756.12   764.63
eigval :      769.02   774.66   779.12   804.66   831.88   834.92
eigval :      847.76   851.48   859.75   862.92   868.90   880.94
eigval :      883.93   893.53   897.68   913.03   913.70   916.80
eigval :      919.64   922.53   926.52   946.63   979.84  1045.17
eigval :     1063.65  1066.55  1072.55  1080.26  1093.73  1107.42
eigval :     1141.21  1154.51  1166.33  1169.76  1172.85  1178.83
eigval :     1179.89  1186.74  1200.01  1205.76  1218.09  1227.06
eigval :     1228.68  1232.52  1235.81  1243.34  1258.36  1262.00
eigval :     1280.47  1292.66  1302.47  1333.79  1340.64  1343.42
eigval :     1365.68  1369.82  1377.26  1388.63  1397.63  1407.18
eigval :     1425.50  1432.86  1447.96  1451.29  1457.67  1503.34
eigval :     1511.05  1528.13  1537.06  1541.69  1550.10  1562.54
eigval :     1578.51  1585.70  1600.49  2744.61  2848.14  2889.00
eigval :     3068.37  3068.96  3073.65  3075.36  3083.87  3085.16
eigval :     3089.83  3091.34  3093.50  3102.49  3102.75  3115.35
eigval :     3116.25  3118.64  3119.75

   temp. (K)  partition function   enthalpy   heat capacity  entropy
                                   cal/mol     cal/K/mol   cal/K/mol   J/K/mol
 298.15  VIB  0.601E+11            15527.847    102.020     93.291
         ROT  0.284E+08              888.752      2.981     37.084
         INT  0.170E+19            16416.600    105.001    130.375
         TR   0.962E+28             1481.254      4.968     44.263
         TOT                       17897.8535   109.9693   174.6380   730.6856

       T/K    H(0)-H(T)+PV         H(T)/Eh          T*S/Eh         G(T)/Eh
   ------------------------------------------------------------------------
    298.15    0.285220E-01    0.408560E+00    0.829762E-01    0.325584E+00
   ------------------------------------------------------------------------

         :::::::::::::::::::::::::::::::::::::::::::::::::::::
         ::                  THERMODYNAMIC                  ::
         :::::::::::::::::::::::::::::::::::::::::::::::::::::
         :: total free energy         -95.317560718092 Eh   ::
         ::.................................................::
         :: total energy              -95.643144989008 Eh   ::
         :: zero point energy           0.380038398593 Eh   ::
         :: G(RRHO) w/o ZPVE           -0.054454127676 Eh   ::
         :: G(RRHO) contrib.            0.325584270917 Eh   ::
         :::::::::::::::::::::::::::::::::::::::::::::::::::::

           -------------------------------------------------
          | TOTAL ENERGY              -95.643144989008 Eh   |
          | TOTAL ENTHALPY            -95.234584545302 Eh   |
          | TOTAL FREE ENERGY         -95.317560718092 Eh   |
          | GRADIENT NORM               0.000154219304 Eh/α |
           -------------------------------------------------

 * finished run on 2025/07/20 at 12:58:43.907
