   * xtb version 6.7.1 (edcfbbe) compiled by 'albert@albert-system' on 2024-07-22

   ID    Z sym.   atoms
    1    8 O      1, 3, 11, 26, 33, 35
    2    6 C      2, 4-10, 12-25, 27-32, 34
    3    1 H      36-53

          program call               : xtb data2507/gas/3,3−NHC/3,3−NHC_gas_S0_crest.xyz --gfn 2 --ohess vtight --parallel 40 --molden --ceasefiles --namespace data2507/gas/3,3−NHC/3,3−NHC_gas_S0_finalOpt
          :  Hamiltonian                  GFN2-xTB          :
 * total energy  :   -95.7388302 Eh     change       -0.2506738E-08 Eh
 * total energy  :   -95.7388311 Eh     change       -0.9627249E-06 Eh
 * total energy  :   -95.7388311 Eh     change        0.1990843E-07 Eh
 * total energy  :   -95.7388323 Eh     change       -0.1200609E-05 Eh
 * total energy  :   -95.7388336 Eh     change       -0.1254856E-05 Eh
 * total energy  :   -95.7388342 Eh     change       -0.6862160E-06 Eh
 * total energy  :   -95.7388348 Eh     change       -0.6026721E-06 Eh
 * total energy  :   -95.7388354 Eh     change       -0.5780450E-06 Eh
 * total energy  :   -95.7388359 Eh     change       -0.4532982E-06 Eh
 * total energy  :   -95.7388362 Eh     change       -0.3553770E-06 Eh
 * total energy  :   -95.7388377 Eh     change       -0.5574758E-06 Eh
 * total energy  :   -95.7388382 Eh     change       -0.4799172E-06 Eh
 * total energy  :   -95.7388385 Eh     change       -0.3571569E-06 Eh
 * total energy  :   -95.7388388 Eh     change       -0.2756457E-06 Eh
 * total energy  :   -95.7388390 Eh     change       -0.2187167E-06 Eh
 * total energy  :   -95.7388392 Eh     change       -0.1651269E-06 Eh
 * total energy  :   -95.7388393 Eh     change       -0.1250971E-06 Eh
 * total energy  :   -95.7388394 Eh     change       -0.1046608E-06 Eh
 * total energy  :   -95.7388395 Eh     change       -0.8687971E-07 Eh
   *** GEOMETRY OPTIMIZATION CONVERGED AFTER 21 ITERATIONS ***

 final structure:
================
53
 xtb: 6.7.1 (edcfbbe)
O           -0.60185008254583        1.08362461209320       -1.78776084067513
C           -1.58341538209754        0.82714081015884       -1.10403414082458
O           -2.79446888254645        1.07507506485977       -1.66184633998629
C           -3.94683210077420        0.78778325909137       -1.01600528579676
C           -5.14718185279045        1.10637933935688       -1.64812884347147
C           -6.34104099012768        0.80735301851189       -1.02788512721871
C           -6.35541632206788        0.18872558724827        0.21989581614535
C           -5.17394220028614       -0.12829293463255        0.84884816784064
C           -3.95043452918195        0.17062873517887        0.23996465421316
C           -2.67609798264018       -0.11499006427688        0.86735615848752
O           -2.73280480469263       -0.72234044320339        2.04386456820220
C           -1.52823360868795        0.27727139737934        0.22495449287327
C           -0.16273729078556        0.14788860334803        0.87736367754086
C            0.71348833172204        1.36247270452348        0.63843037348186
C            0.10927801616777        2.63728539669748        0.66574263838989
C            0.85003756569469        3.77107648530708        0.50802760282176
C            2.24718261853057        3.70452614863268        0.32875912016884
C            3.04404862174080        4.85390832765145        0.15481942012962
C            4.39798834153895        4.74607490225751        0.00038326052371
C            5.01435335270014        3.48518225766503        0.01447618211600
C            4.26761882518331        2.35265858453604        0.18144590640070
C            2.86877155072284        2.43063172328871        0.34041493081138
C            2.07422692271725        1.27802017118365        0.50759398420179
C            0.47661457841879       -1.18803259058866        0.54868739122822
C            1.16980414550254       -1.48155975122296       -0.59982650109055
O            1.33138809053747       -0.68519420602199       -1.63986310791331
C            1.82029527859466       -2.77546782851696       -0.69241780535151
C            2.61601605589935       -3.13474166416443       -1.78560933572844
C            3.23386382663215       -4.36326579575964       -1.81860905290518
C            3.06942017746329       -5.25894504418143       -0.76485930486485
C            2.28667377790455       -4.92766315050273        0.31998178448731
C            1.65934877580681       -3.68395556010098        0.35916875156402
O            0.88240742629684       -3.39946345671295        1.42881993055923
C            0.27264124922051       -2.19838281430952        1.55498573598780
O           -0.45002521845352       -2.04300403250762        2.53346872030513
H           -5.11285585322633        1.58149182641286       -2.61525480052274
H           -7.27147756121553        1.05378217030055       -1.51602876694903
H           -7.29723675901474       -0.04202930775270        0.69310933688158
H           -5.16032413595598       -0.60510918276785        1.81586772086076
H           -1.86569138508604       -1.10459588918074        2.34029570582204
H           -0.33195070598445        0.13041805175677        1.96480479656724
H           -0.95881344926530        2.70969090416095        0.81606109654641
H            0.37249410353990        4.74033796775956        0.52364663477021
H            2.56385225762841        5.82217254107059        0.14521472447912
H            5.00419612603706        5.63017946250875       -0.13353544519002
H            6.08557284234462        3.41852010834812       -0.10897799585876
H            4.73794301502279        1.37941668286860        0.19001385669795
H            2.57819262894416        0.32241952976839        0.53400902618744
H            0.74196118117545        0.11729765767925       -1.62069191668399
H            2.73052992151486       -2.42405163453876       -2.58845772883287
H            3.84823113042857       -4.63548049796767       -2.66282708442885
H            3.55683336058371       -6.22131158256950       -0.79638839496829
H            2.14296003341119       -5.60636317462274        1.14518745536808

          :  Hamiltonian                  GFN2-xTB          :
         :: gradient norm              0.000022250468 Eh/a0 ::
         :: HOMO-LUMO gap              2.389735462183 eV    ::
         :: SCC energy               -97.172118759981 Eh    ::
         :: -> dispersion             -0.072236685770 Eh    ::
         :: repulsion energy           1.433279269342 Eh    ::

    * Orbital Energies and Occupations

         #    Occupation            Energy/Eh            Energy/eV
      -------------------------------------------------------------
         1        2.0000           -0.7601583             -20.6850
       ...           ...                  ...                  ...
        73        2.0000           -0.4393140             -11.9543
        74        2.0000           -0.4381766             -11.9234
        75        2.0000           -0.4242983             -11.5457
        76        2.0000           -0.4226005             -11.4995
        77        2.0000           -0.4209062             -11.4534
        78        2.0000           -0.4186051             -11.3908
        79        2.0000           -0.4182549             -11.3813
        80        2.0000           -0.4171006             -11.3499
        81        2.0000           -0.4130178             -11.2388
        82        2.0000           -0.4066720             -11.0661
        83        2.0000           -0.3933566             -10.7038
        84        2.0000           -0.3926954             -10.6858
        85        2.0000           -0.3755922             -10.2204 (HOMO)
        86                         -0.2877710              -7.8306 (LUMO)
        87                         -0.2864477              -7.7946
        88                         -0.2566340              -6.9834
        89                         -0.2507775              -6.8240
        90                         -0.2492514              -6.7825
        91                         -0.2307834              -6.2799
        92                         -0.2291697              -6.2360
        93                         -0.2260311              -6.1506
        94                         -0.1860830              -5.0636
        95                         -0.1740847              -4.7371
        96                         -0.1662017              -4.5226
       ...                                ...                  ...
       158                          0.6988257              19.0160
      -------------------------------------------------------------
                  HL-Gap            0.0878212 Eh            2.3897 eV

     #   Z          covCN         q      C6AA      α(0)
     1   8 O        0.858    -0.444    22.589     6.372
     2   6 C        2.726     0.338    21.252     7.547
     3   8 O        1.710    -0.220    17.647     5.672
     4   6 C        2.881     0.140    24.938     8.187
     5   6 C        2.915    -0.046    29.152     8.854
     6   6 C        2.921    -0.023    28.570     8.765
     7   6 C        2.917    -0.032    28.809     8.802
     8   6 C        2.921    -0.023    28.583     8.767
     9   6 C        2.981    -0.023    28.582     8.770
    10   6 C        2.839     0.164    24.452     8.104
    11   8 O        1.657    -0.368    20.243     6.074
    12   6 C        2.956    -0.092    30.312     9.030
    13   6 C        3.867    -0.011    20.737     6.476
    14   6 C        2.966     0.011    27.764     8.643
    15   6 C        2.921    -0.032    28.796     8.800
    16   6 C        2.917    -0.033    28.812     8.802
    17   6 C        2.988     0.013    27.714     8.636
    18   6 C        2.918    -0.034    28.845     8.807
    19   6 C        2.916    -0.030    28.753     8.793
    20   6 C        2.916    -0.030    28.739     8.791
    21   6 C        2.919    -0.034    28.857     8.809
    22   6 C        2.987     0.015    27.675     8.629
    23   6 C        2.923    -0.043    29.067     8.841
    24   6 C        2.955    -0.097    30.428     9.048
    25   6 C        2.837     0.171    24.327     8.083
    26   8 O        1.657    -0.364    20.161     6.061
    27   6 C        2.981    -0.024    28.603     8.773
    28   6 C        2.921    -0.023    28.583     8.767
    29   6 C        2.917    -0.032    28.810     8.802
    30   6 C        2.921    -0.023    28.573     8.766
    31   6 C        2.915    -0.046    29.154     8.854
    32   6 C        2.883     0.140    24.951     8.189
    33   8 O        1.710    -0.217    17.608     5.666
    34   6 C        2.731     0.333    21.346     7.564
    35   8 O        0.857    -0.457    22.858     6.410
    36   1 H        0.926     0.066     2.135     2.285
    37   1 H        0.926     0.054     2.276     2.359
    38   1 H        0.926     0.051     2.304     2.374
    39   1 H        0.926     0.072     2.059     2.244
    40   1 H        0.801     0.356     0.576     1.192
    41   1 H        0.923     0.070     2.085     2.258
    42   1 H        0.926     0.022     2.700     2.569
    43   1 H        0.926     0.034     2.530     2.487
    44   1 H        0.926     0.032     2.564     2.504
    45   1 H        0.926     0.030     2.587     2.515
    46   1 H        0.926     0.030     2.588     2.516
    47   1 H        0.926     0.030     2.582     2.513
    48   1 H        0.926     0.029     2.607     2.525
    49   1 H        0.800     0.361     0.564     1.180
    50   1 H        0.926     0.073     2.053     2.241
    51   1 H        0.926     0.051     2.306     2.375
    52   1 H        0.926     0.053     2.278     2.360
    53   1 H        0.926     0.065     2.136     2.285

molecular dipole:
                 x           y           z       tot (Debye)
 q only:       -0.367      -0.536      -0.499
   full:       -0.360      -0.488      -0.434       1.896

 projected vibrational frequencies (cm⁻¹)
eigval :       -0.00    -0.00    -0.00    -0.00     0.00     0.00
eigval :       22.82    24.07    31.93    38.89    49.83    71.95
eigval :       88.46   108.91   123.49   129.34   147.86   157.12
eigval :      169.12   172.49   180.77   194.94   217.46   256.46
eigval :      265.02   266.98   282.08   310.56   322.28   342.90
eigval :      363.71   380.45   395.45   408.67   413.03   419.62
eigval :      432.77   445.20   450.18   473.61   488.23   495.38
eigval :      501.13   506.05   527.73   531.01   537.19   548.55
eigval :      588.80   604.67   612.33   613.79   619.67   624.05
eigval :      650.96   661.84   685.15   686.87   709.36   712.76
eigval :      718.89   727.27   749.20   760.75   775.13   782.72
eigval :      784.16   791.81   796.89   807.05   837.66   856.60
eigval :      866.35   874.95   880.72   882.13   882.46   888.03
eigval :      908.85   914.86   918.22   918.82   924.68   928.71
eigval :      928.88   929.09   957.78   986.30  1062.55  1074.68
eigval :     1075.86  1079.98  1081.60  1110.61  1121.69  1145.41
eigval :     1166.49  1169.05  1177.35  1179.44  1180.15  1187.17
eigval :     1192.67  1198.70  1220.52  1231.93  1233.01  1235.38
eigval :     1238.83  1246.46  1249.41  1260.81  1266.24  1268.52
eigval :     1305.68  1318.97  1338.18  1347.40  1348.27  1364.94
eigval :     1366.53  1372.34  1405.22  1430.72  1432.69  1433.60
eigval :     1456.74  1458.03  1460.03  1506.79  1541.52  1555.50
eigval :     1568.26  1580.79  1591.10  1593.31  1594.58  1611.29
eigval :     1616.67  1652.48  1667.28  2878.96  2902.12  2959.64
eigval :     3065.83  3067.35  3070.03  3075.72  3079.40  3081.02
eigval :     3089.49  3091.89  3091.98  3100.93  3101.09  3114.80
eigval :     3114.96  3115.88  3116.08

   temp. (K)  partition function   enthalpy   heat capacity  entropy
                                   cal/mol     cal/K/mol   cal/K/mol   J/K/mol
 298.15  VIB  0.192E+11            15035.596     99.460     90.117
         ROT  0.286E+08              888.752      2.981     37.103
         INT  0.551E+18            15924.348    102.441    127.220
         TR   0.962E+28             1481.254      4.968     44.263
         TOT                       17405.6019   107.4088   171.4824   717.4823

       T/K    H(0)-H(T)+PV         H(T)/Eh          T*S/Eh         G(T)/Eh
   ------------------------------------------------------------------------
    298.15    0.277376E-01    0.414419E+00    0.814768E-01    0.332942E+00
   ------------------------------------------------------------------------

         :::::::::::::::::::::::::::::::::::::::::::::::::::::
         ::                  THERMODYNAMIC                  ::
         :::::::::::::::::::::::::::::::::::::::::::::::::::::
         :: total free energy         -95.405897348190 Eh   ::
         ::.................................................::
         :: total energy              -95.738839490639 Eh   ::
         :: zero point energy           0.386681368731 Eh   ::
         :: G(RRHO) w/o ZPVE           -0.053739226283 Eh   ::
         :: G(RRHO) contrib.            0.332942142448 Eh   ::
         :::::::::::::::::::::::::::::::::::::::::::::::::::::

           -------------------------------------------------
          | TOTAL ENERGY              -95.738839490639 Eh   |
          | TOTAL ENTHALPY            -95.324420529694 Eh   |
          | TOTAL FREE ENERGY         -95.405897348190 Eh   |
          | GRADIENT NORM               0.000022273939 Eh/α |
          | HOMO-LUMO GAP               2.389736351734 eV   |
           -------------------------------------------------

 * finished run on 2025/07/20 at 12:58:37.933
