   * xtb version 6.7.1 (edcfbbe) compiled by 'albert@albert-system' on 2024-07-22

   ID    Z sym.   atoms
    1    8 O      1, 3, 11, 26, 33, 35
    2    6 C      2, 4-10, 12-25, 27-32, 34
    3    1 H      36-53

          program call               : xtb data2507/gas/3,3−NHC/3,3−NHC_gas_T1_crest.xyz --gfn 2 --spinpol --tblite --uhf 2 --ohess vtight --parallel 40 --molden --ceasefiles --namespace data2507/gas/3,3−NHC/3,3−NHC_gas_T1_finalOpt
 * total energy  :   -95.6431049 Eh     change        0.6906305E-08 Eh
 * total energy  :   -95.6431228 Eh     change       -0.1789987E-04 Eh
 * total energy  :   -95.6431357 Eh     change       -0.1289548E-04 Eh
 * total energy  :   -95.6431392 Eh     change       -0.3510138E-05 Eh
 * total energy  :   -95.6431422 Eh     change       -0.3011997E-05 Eh
 * total energy  :   -95.6431433 Eh     change       -0.1058019E-05 Eh
 * total energy  :   -95.6431437 Eh     change       -0.4541049E-06 Eh
 * total energy  :   -95.6431436 Eh     change        0.9980795E-07 Eh
 * total energy  :   -95.6431439 Eh     change       -0.3099499E-06 Eh
 * total energy  :   -95.6431441 Eh     change       -0.1216825E-06 Eh
 * total energy  :   -95.6431442 Eh     change       -0.1344600E-06 Eh
 * total energy  :   -95.6431442 Eh     change        0.2677724E-07 Eh
 * total energy  :   -95.6431443 Eh     change       -0.1337155E-06 Eh
 * total energy  :   -95.6431437 Eh     change        0.6178744E-06 Eh
 * total energy  :   -95.6431445 Eh     change       -0.8204034E-06 Eh
 * total energy  :   -95.6431446 Eh     change       -0.6387320E-07 Eh
   *** GEOMETRY OPTIMIZATION CONVERGED AFTER 16 ITERATIONS ***

 final structure:
================
53
 xtb: 6.7.1 (edcfbbe)
O           -0.49407451139970        1.07519664360497       -1.79568544184019
C           -1.49814974870351        0.84230974839239       -1.11648531780871
O           -2.68860380217926        1.11441794405000       -1.71020805744127
C           -3.87115243476725        0.95558367309311       -1.04808826850012
C           -5.03058074945628        1.29371430210040       -1.71350048432402
C           -6.26283915046802        1.13736793877071       -1.08061613650016
C           -6.32455732989997        0.63512205410950        0.21442940062019
C           -5.17595260237598        0.29347475669766        0.88745556653289
C           -3.91210008671689        0.44178947581511        0.26788519336370
C           -2.70335848141646        0.07415845581305        0.90398589563148
O           -2.77494177974895       -0.43381100040662        2.13162522670438
C           -1.47272331011619        0.35277090284578        0.22376541315968
C           -0.14225761947451        0.23269680463708        0.92709081613633
C            0.82574387840904        1.35814056232248        0.65735557353074
C            0.32884970410406        2.67125452725956        0.54937530654212
C            1.17297909486325        3.72564333666724        0.35068105067773
C            2.56705359966061        3.53019782958947        0.25890930662305
C            3.46594415339208        4.59338102509749        0.04371121600421
C            4.81441465265680        4.36474031547775       -0.02598265020121
C            5.32035742024124        3.06519023169956        0.11747610317315
C            4.47203589267604        2.01186724482383        0.32824965600239
C            3.07851581355002        2.21474511047859        0.40264545373937
C            2.18140061660470        1.14930377853923        0.61213630227229
C            0.32130041643520       -1.16253434148411        0.56357238821835
C            1.06750273363682       -1.50443807829515       -0.59044664348357
O            1.36089852682275       -0.68083735073265       -1.58208129693682
C            1.60392172839265       -2.82462464048879       -0.66850357149757
C            2.43645463831316       -3.23648885665661       -1.72991018324338
C            2.91601170467239       -4.52415419335321       -1.77694920994776
C            2.58933692042404       -5.43592106599023       -0.77859495519238
C            1.77035290717152       -5.05502050765095        0.27675998774315
C            1.28500238252584       -3.76075463854312        0.33398370745737
O            0.47716652979872       -3.43074968456403        1.37732731141296
C           -0.00368878163384       -2.17357247987408        1.52660904681208
O           -0.69488059284885       -1.96925985173685        2.52654888961308
H           -4.96239014379301        1.67568031251868       -2.71921322830356
H           -7.16594941914609        1.41091535123032       -1.60254804311083
H           -7.28286930161448        0.51514315125538        0.69651231538004
H           -5.20305382120056       -0.09450416227088        1.89239394817658
H           -1.96346591624583       -0.94660465121548        2.39814882599863
H           -0.32452664313971        0.23418935175395        2.01129191620859
H           -0.73694844475232        2.83519916155553        0.62429328579956
H            0.78078898076129        4.72837013517933        0.26286762428584
H            3.07154052111221        5.59335096796172       -0.06643005082603
H            5.49766759832558        5.18445992049601       -0.19223409349516
H            6.38639123425135        2.90201922361880        0.05905570592022
H            4.85720488920795        1.00804176790766        0.43602727823118
H            2.58868991106970        0.15567998350093        0.73775601236670
H            0.76960956663545        0.12722525511664       -1.61558303287295
H            2.67931572353270       -2.51465125013095       -2.49252267203986
H            3.55165373966234       -4.82979298992545       -2.59390454376413
H            2.97122998155547       -6.44383926221450       -0.81791280171125
H            1.50118585193266       -5.74690321954642        1.05824619620269

 projected vibrational frequencies (cm⁻¹)
eigval :       -0.00    -0.00     0.00     0.00     0.00     0.00
eigval :       18.19    21.96    28.45    37.29    46.82    67.18
eigval :       84.17   106.20   118.90   121.90   147.98   151.14
eigval :      157.24   168.00   180.53   195.36   213.17   244.23
eigval :      250.54   257.31   277.84   295.85   311.75   325.88
eigval :      359.61   367.05   385.89   389.67   397.72   405.38
eigval :      411.23   427.20   443.62   446.80   470.62   476.70
eigval :      488.80   494.05   496.95   516.54   521.13   534.89
eigval :      545.80   569.69   583.35   599.39   612.72   613.73
eigval :      623.82   649.67   654.08   660.24   675.46   687.61
eigval :      692.81   716.60   721.68   746.15   755.48   764.57
eigval :      769.21   775.67   779.70   804.55   829.59   834.80
eigval :      847.55   851.12   859.48   862.67   868.90   880.65
eigval :      883.59   893.04   897.42   912.62   913.18   916.51
eigval :      917.57   921.45   925.98   947.94   979.81  1045.21
eigval :     1063.74  1066.32  1071.84  1080.07  1093.64  1107.45
eigval :     1140.71  1154.70  1165.92  1169.37  1172.34  1178.36
eigval :     1179.62  1186.81  1200.05  1205.40  1217.99  1226.61
eigval :     1228.30  1231.40  1235.72  1243.05  1258.23  1261.85
eigval :     1279.44  1294.00  1302.80  1333.79  1340.38  1343.24
eigval :     1365.84  1369.78  1377.27  1388.52  1397.24  1407.02
eigval :     1425.71  1432.70  1447.84  1451.20  1457.59  1503.36
eigval :     1511.03  1527.92  1537.05  1541.45  1550.16  1561.83
eigval :     1578.49  1585.70  1600.44  2743.60  2847.55  2888.94
eigval :     3068.50  3069.16  3073.81  3075.44  3083.90  3085.27
eigval :     3089.77  3091.29  3093.62  3102.61  3102.83  3115.60
eigval :     3116.14  3118.45  3119.74

   temp. (K)  partition function   enthalpy   heat capacity  entropy
                                   cal/mol     cal/K/mol   cal/K/mol   J/K/mol
 298.15  VIB  0.658E+11            15537.297    102.025     93.390
         ROT  0.284E+08              888.752      2.981     37.084
         INT  0.187E+19            16426.049    105.006    130.474
         TR   0.962E+28             1481.254      4.968     44.263
         TOT                       17907.3028   109.9742   174.7367   731.0984

       T/K    H(0)-H(T)+PV         H(T)/Eh          T*S/Eh         G(T)/Eh
   ------------------------------------------------------------------------
    298.15    0.285371E-01    0.408513E+00    0.830231E-01    0.325490E+00
   ------------------------------------------------------------------------

         :::::::::::::::::::::::::::::::::::::::::::::::::::::
         ::                  THERMODYNAMIC                  ::
         :::::::::::::::::::::::::::::::::::::::::::::::::::::
         :: total free energy         -95.317654395992 Eh   ::
         ::.................................................::
         :: total energy              -95.643144613248 Eh   ::
         :: zero point energy           0.379976165755 Eh   ::
         :: G(RRHO) w/o ZPVE           -0.054485948500 Eh   ::
         :: G(RRHO) contrib.            0.325490217255 Eh   ::
         :::::::::::::::::::::::::::::::::::::::::::::::::::::

           -------------------------------------------------
          | TOTAL ENERGY              -95.643144613248 Eh   |
          | TOTAL ENTHALPY            -95.234631343979 Eh   |
          | TOTAL FREE ENERGY         -95.317654395992 Eh   |
          | GRADIENT NORM               0.000067716188 Eh/α |
           -------------------------------------------------

 * finished run on 2025/07/20 at 13:01:21.935
