   * xtb version 6.7.1 (edcfbbe) compiled by 'albert@albert-system' on 2024-07-22

   ID    Z sym.   atoms
    1    9 F      1, 5, 7, 42
    2    6 C      2, 4, 6, 8-21, 23-41
    3    7 N      3, 22
    4    1 H      43-62

          program call               : xtb data2507/gas/3CzFTFP/3CzFTFP_gas_S0_crest.xyz --gfn 2 --ohess vtight --parallel 40 --molden --ceasefiles --namespace data2507/gas/3CzFTFP/3CzFTFP_gas_S0_finalOpt
          :  Hamiltonian                  GFN2-xTB          :
 * total energy  :  -112.1008856 Eh     change       -0.5438920E-09 Eh
 * total energy  :  -112.1008863 Eh     change       -0.7082067E-06 Eh
 * total energy  :  -112.1008877 Eh     change       -0.1364572E-05 Eh
 * total energy  :  -112.1008891 Eh     change       -0.1392988E-05 Eh
 * total energy  :  -112.1008899 Eh     change       -0.7904448E-06 Eh
 * total energy  :  -112.1008904 Eh     change       -0.5657282E-06 Eh
 * total energy  :  -112.1008911 Eh     change       -0.6919078E-06 Eh
 * total energy  :  -112.1008920 Eh     change       -0.8936167E-06 Eh
 * total energy  :  -112.1008931 Eh     change       -0.1083729E-05 Eh
 * total energy  :  -112.1008942 Eh     change       -0.1063505E-05 Eh
 * total energy  :  -112.1008960 Eh     change       -0.4547842E-06 Eh
 * total energy  :  -112.1008964 Eh     change       -0.3871974E-06 Eh
 * total energy  :  -112.1008967 Eh     change       -0.2740917E-06 Eh
 * total energy  :  -112.1008969 Eh     change       -0.2495306E-06 Eh
 * total energy  :  -112.1008972 Eh     change       -0.3192225E-06 Eh
 * total energy  :  -112.1008976 Eh     change       -0.3439373E-06 Eh
 * total energy  :  -112.1008978 Eh     change       -0.2077390E-06 Eh
 * total energy  :  -112.1008979 Eh     change       -0.1021852E-06 Eh
 * total energy  :  -112.1008979 Eh     change       -0.2022460E-08 Eh
   *** GEOMETRY OPTIMIZATION CONVERGED AFTER 22 ITERATIONS ***

 final structure:
================
62
 xtb: 6.7.1 (edcfbbe)
F           -5.47829052047685       -2.90023227974873       -0.44192914765409
C           -4.32552440579567       -2.52933403637124        0.10279721176075
N           -3.84719659151790       -3.30557116090341        1.04571652853860
C           -2.71734361274260       -2.95354808720714        1.61346424465878
F           -2.26535659856555       -3.74777320264588        2.57770923288787
C           -2.00143789935637       -1.81545328439432        1.25541757504944
F           -0.87463210314595       -1.53217505475881        1.92112276133792
C           -2.47174957440158       -0.98543246435674        0.23108446975000
C           -1.74917469461623        0.28133140119333       -0.15372563777407
C           -0.23793647303533        0.12862163771095       -0.11122643384440
C            0.34619908801068       -1.03363408351469       -0.62600767601103
C            1.71388360613407       -1.20984756906012       -0.65752911836009
C            2.51281432579451       -0.18991439617829       -0.16158928286060
C            1.93694398222624        1.00748669081757        0.32072036982157
C            0.55898554521309        1.16274799691006        0.34483407177516
C            3.02736318923478        1.85864870087397        0.70292189103151
C            3.09758143881736        3.13213540262469        1.25259729635045
C            4.34070645614319        3.66395284494590        1.52906534720542
C            5.50297238724074        2.93716030703904        1.27830654485312
C            5.45850996832367        1.66890323097491        0.73229480738968
C            4.21267520913908        1.13777614148727        0.42998567668542
N            3.88564270810755       -0.09809752424282       -0.09266244558483
C            4.79448662759356       -1.09790281283543       -0.47078387100171
C            5.85299777077876       -0.79496040342077       -1.32175673011151
C            6.74980268827790       -1.78258602587361       -1.68520484652879
C            6.59351557062705       -3.07583851912759       -1.21480725055653
C            5.53663205339343       -3.37968779281486       -0.37276583869681
C            4.64071277725434       -2.39672943553317        0.00485062731885
C           -2.10887538662401        0.82034633352677       -1.52857206320140
C           -1.85666335006346        0.26422935974012       -2.76363159108031
C           -2.24325904759891        0.96520870199428       -3.89766789060922
C           -2.86171229917873        2.20116952098313       -3.79390092371589
C           -3.10727450133853        2.76895757259898       -2.55470763988229
C           -2.72622197353109        2.07342848933052       -1.41991470970784
C           -2.84920133693907        2.41204346919880       -0.01181324029405
C           -3.39909838145024        3.52060700358155        0.61052270675082
C           -3.37669923952146        3.58600993940045        1.99438908594375
C           -2.81238733357591        2.56619859346618        2.74495160423098
C           -2.26029997703891        1.45041043705552        2.12886085953767
C           -2.28104145612585        1.38375399564609        0.75245284724894
C           -3.69171165217075       -1.36759489561709       -0.33366853105761
F           -4.28750784974345       -0.63553900936283       -1.28176952950483
H           -0.28798584629960       -1.82561241490490       -0.99996615184741
H            2.14266281548822       -2.11257233311709       -1.06500370548665
H            0.12225562213708        2.07688046563585        0.71609034129951
H            2.19526977740104        3.68692120662402        1.46128687516103
H            4.41911462463115        4.65319047343693        1.95465231034589
H            6.46070369836654        3.37381420386290        1.52005561958689
H            6.36393315326580        1.10719148008471        0.55907321638795
H            5.95842163637232        0.20965070415699       -1.70337177986782
H            7.57009832247696       -1.54244166889939       -2.34526434071068
H            7.29378864208563       -3.84491212200858       -1.50350327252776
H            5.41364691633875       -4.38584014441671       -0.00037560907840
H            3.82854598800207       -2.62363858252624        0.67924231315588
H           -1.37360021988663       -0.69693380173245       -2.85656959247649
H           -2.05934878329420        0.53960030683303       -4.87279059055889
H           -3.15443560880500        2.72700583432382       -4.69062009709382
H           -3.58639637828277        3.73296808690573       -2.47508219723864
H           -3.83739354819469        4.31659501606748        0.02805363086982
H           -3.80260654024054        4.44252697375473        2.49577301571950
H           -2.80034055703309        2.63750969534530        3.82214178173842
H           -1.81208342378508        0.66845199634205        2.72247079272847

          :  Hamiltonian                  GFN2-xTB          :
         :: gradient norm              0.000032455305 Eh/a0 ::
         :: HOMO-LUMO gap              1.799631695663 eV    ::
         :: SCC energy              -113.880190975663 Eh    ::
         :: -> dispersion             -0.091427716779 Eh    ::
         :: repulsion energy           1.779293075382 Eh    ::

    * Orbital Energies and Occupations

         #    Occupation            Energy/Eh            Energy/eV
      -------------------------------------------------------------
         1        2.0000           -0.8601751             -23.4066
       ...           ...                  ...                  ...
        89        2.0000           -0.4300688             -11.7028
        90        2.0000           -0.4284917             -11.6599
        91        2.0000           -0.4278313             -11.6419
        92        2.0000           -0.4246606             -11.5556
        93        2.0000           -0.4233888             -11.5210
        94        2.0000           -0.4178939             -11.3715
        95        2.0000           -0.4162229             -11.3260
        96        2.0000           -0.4153278             -11.3016
        97        2.0000           -0.4107958             -11.1783
        98        2.0000           -0.4064871             -11.0611
        99        2.0000           -0.3914105             -10.6508
       100        2.0000           -0.3841284             -10.4527
       101        2.0000           -0.3668552              -9.9826 (HOMO)
       102                         -0.3007199              -8.1830 (LUMO)
       103                         -0.2830705              -7.7027
       104                         -0.2632311              -7.1629
       105                         -0.2521036              -6.8601
       106                         -0.2394722              -6.5164
       107                         -0.2376148              -6.4658
       108                         -0.2365388              -6.4365
       109                         -0.2331898              -6.3454
       110                         -0.2253342              -6.1317
       111                         -0.2000291              -5.4431
       112                         -0.1962298              -5.3397
       ...                                ...                  ...
       188                          0.7395990              20.1255
      -------------------------------------------------------------
                  HL-Gap            0.0661353 Eh            1.7996 eV

     #   Z          covCN         q      C6AA      α(0)
     1   9 F        0.789    -0.157    10.805     3.883
     2   6 C        2.784     0.236    23.054     7.865
     3   7 N        1.844    -0.227    26.814     7.674
     4   6 C        2.783     0.236    23.071     7.867
     5   9 F        0.789    -0.158    10.815     3.885
     6   6 C        2.783     0.133    25.082     8.203
     7   9 F        0.787    -0.176    10.993     3.916
     8   6 C        2.980     0.006    27.874     8.660
     9   6 C        3.946     0.027    20.049     6.363
    10   6 C        2.981     0.005    27.895     8.664
    11   6 C        2.927    -0.036    28.888     8.814
    12   6 C        2.909    -0.049    29.210     8.862
    13   6 C        3.080     0.048    26.844     8.494
    14   6 C        3.070    -0.015    28.307     8.724
    15   6 C        2.916    -0.036    28.898     8.815
    16   6 C        3.069    -0.016    28.343     8.729
    17   6 C        2.912    -0.032    28.789     8.798
    18   6 C        2.920    -0.040    28.992     8.830
    19   6 C        2.924    -0.032    28.806     8.802
    20   6 C        2.910    -0.050    29.239     8.867
    21   6 C        3.079     0.048    26.848     8.495
    22   7 N        2.803    -0.041    22.026     6.970
    23   6 C        2.913     0.064    26.562     8.451
    24   6 C        2.922    -0.042    29.047     8.838
    25   6 C        2.920    -0.028    28.692     8.784
    26   6 C        2.919    -0.032    28.810     8.802
    27   6 C        2.920    -0.027    28.686     8.783
    28   6 C        2.922    -0.042    29.046     8.838
    29   6 C        3.055     0.005    27.848     8.654
    30   6 C        2.914    -0.030    28.739     8.791
    31   6 C        2.923    -0.028    28.693     8.784
    32   6 C        2.921    -0.028    28.710     8.787
    33   6 C        2.915    -0.030    28.741     8.791
    34   6 C        3.034     0.006    27.862     8.658
    35   6 C        3.034     0.006    27.856     8.657
    36   6 C        2.915    -0.032    28.790     8.799
    37   6 C        2.921    -0.029    28.734     8.790
    38   6 C        2.923    -0.031    28.767     8.796
    39   6 C        2.914    -0.034    28.857     8.809
    40   6 C        3.056     0.003    27.909     8.664
    41   6 C        2.782     0.131    25.117     8.209
    42   9 F        0.787    -0.176    10.987     3.915
    43   1 H        0.925     0.020     2.734     2.586
    44   1 H        0.926     0.033     2.540     2.492
    45   1 H        0.926     0.036     2.507     2.476
    46   1 H        0.926     0.032     2.561     2.503
    47   1 H        0.926     0.030     2.585     2.514
    48   1 H        0.926     0.031     2.567     2.505
    49   1 H        0.926     0.030     2.590     2.517
    50   1 H        0.926     0.041     2.436     2.441
    51   1 H        0.926     0.037     2.485     2.465
    52   1 H        0.926     0.037     2.493     2.469
    53   1 H        0.926     0.038     2.472     2.459
    54   1 H        0.926     0.043     2.412     2.429
    55   1 H        0.926     0.030     2.581     2.512
    56   1 H        0.926     0.037     2.493     2.469
    57   1 H        0.926     0.037     2.492     2.468
    58   1 H        0.926     0.037     2.485     2.465
    59   1 H        0.926     0.038     2.470     2.458
    60   1 H        0.926     0.037     2.488     2.467
    61   1 H        0.926     0.038     2.482     2.464
    62   1 H        0.926     0.038     2.469     2.457

molecular dipole:
                 x           y           z       tot (Debye)
 q only:        1.317       0.958      -0.547
   full:        1.455       1.067      -0.642       4.867

 projected vibrational frequencies (cm⁻¹)
eigval :       -0.00    -0.00    -0.00     0.00     0.00     0.00
eigval :       15.96    19.02    25.91    35.01    41.38    46.76
eigval :       59.53    63.66    67.01    84.87    95.97   104.89
eigval :      116.58   140.02   144.76   154.27   161.32   171.23
eigval :      201.08   210.93   219.80   234.34   244.02   261.55
eigval :      265.67   278.90   291.93   306.64   333.22   339.12
eigval :      347.76   360.77   380.62   388.70   396.63   403.35
eigval :      413.45   414.40   426.46   435.92   437.18   454.29
eigval :      466.24   480.24   499.49   507.22   535.21   536.51
eigval :      543.54   549.47   582.66   588.98   590.11   592.37
eigval :      609.47   610.62   613.87   628.21   645.78   660.78
eigval :      668.91   673.59   673.78   684.07   689.75   708.25
eigval :      721.40   727.74   746.55   753.75   764.27   776.20
eigval :      782.58   785.62   815.67   829.00   869.92   874.38
eigval :      877.12   879.51   883.93   887.66   895.19   902.43
eigval :      907.06   909.57   912.20   918.65   921.99   922.92
eigval :      927.55   928.97   933.85   934.27   937.29   971.44
eigval :      998.54  1006.11  1025.33  1049.94  1071.43  1078.22
eigval :     1080.42  1084.28  1114.63  1117.00  1118.06  1122.56
eigval :     1146.52  1157.33  1172.46  1176.65  1178.62  1181.11
eigval :     1183.14  1186.35  1200.22  1201.75  1208.67  1218.92
eigval :     1241.11  1243.24  1248.76  1261.55  1275.28  1284.79
eigval :     1287.82  1291.95  1313.05  1317.93  1326.39  1354.49
eigval :     1363.29  1366.89  1370.32  1390.94  1420.66  1427.67
eigval :     1429.11  1431.22  1433.04  1434.32  1437.57  1461.19
eigval :     1472.76  1477.51  1484.27  1488.23  1550.74  1557.94
eigval :     1569.89  1583.61  1586.21  1587.44  1594.86  1596.10
eigval :     1600.21  1601.12  1604.20  1617.13  3065.29  3078.10
eigval :     3079.14  3080.16  3080.70  3082.32  3083.16  3084.02
eigval :     3088.84  3090.06  3091.17  3091.37  3092.69  3095.03
eigval :     3095.93  3096.95  3097.88  3098.77  3100.28  3103.12

   temp. (K)  partition function   enthalpy   heat capacity  entropy
                                   cal/mol     cal/K/mol   cal/K/mol   J/K/mol
 298.15  VIB  0.463E+14            18711.728    119.427    114.809
         ROT  0.460E+08              888.752      2.981     38.044
         INT  0.213E+22            19600.481    122.407    152.853
         TR   0.127E+29             1481.254      4.968     44.814
         TOT                       21081.7345   127.3756   197.6670   827.0389

       T/K    H(0)-H(T)+PV         H(T)/Eh          T*S/Eh         G(T)/Eh
   ------------------------------------------------------------------------
    298.15    0.335959E-01    0.480278E+00    0.939180E-01    0.386360E+00
   ------------------------------------------------------------------------

         :::::::::::::::::::::::::::::::::::::::::::::::::::::
         ::                  THERMODYNAMIC                  ::
         :::::::::::::::::::::::::::::::::::::::::::::::::::::
         :: total free energy        -111.714538011292 Eh   ::
         ::.................................................::
         :: total energy             -112.100897900281 Eh   ::
         :: zero point energy           0.446681999145 Eh   ::
         :: G(RRHO) w/o ZPVE           -0.060322110156 Eh   ::
         :: G(RRHO) contrib.            0.386359888989 Eh   ::
         :::::::::::::::::::::::::::::::::::::::::::::::::::::

           -------------------------------------------------
          | TOTAL ENERGY             -112.100897900281 Eh   |
          | TOTAL ENTHALPY           -111.620620018796 Eh   |
          | TOTAL FREE ENERGY        -111.714538011292 Eh   |
          | GRADIENT NORM               0.000032453431 Eh/α |
          | HOMO-LUMO GAP               1.799632058195 eV   |
           -------------------------------------------------

 * finished run on 2025/07/16 at 12:04:42.589
