   * xtb version 6.7.1 (edcfbbe) compiled by 'albert@albert-system' on 2024-07-22

   ID    Z sym.   atoms
    1    9 F      1, 5, 7, 42
    2    6 C      2, 4, 6, 8-21, 23-41
    3    7 N      3, 22
    4    1 H      43-62

          program call               : xtb data2507/gas/3CzFTFP/3CzFTFP_gas_S0_finalOpt.xtbopt.xyz --gfn 2 --spinpol --tblite --uhf 2 --ohess vtight --parallel 40 --molden --ceasefiles --namespace data2507/gas/3CzFTFP/3CzFTFP_gas_T1_preOpt
 * total energy  :  -111.9942685 Eh     change        0.7680171E-08 Eh
 * total energy  :  -111.9968431 Eh     change       -0.2574587E-02 Eh
 * total energy  :  -111.9975372 Eh     change       -0.6940237E-03 Eh
 * total energy  :  -111.9977373 Eh     change       -0.2001752E-03 Eh
 * total energy  :  -111.9979928 Eh     change       -0.2555160E-03 Eh
 * total energy  :  -111.9987273 Eh     change       -0.7345028E-03 Eh
 * total energy  :  -111.9994423 Eh     change       -0.7149387E-03 Eh
 * total energy  :  -112.0000606 Eh     change       -0.6182657E-03 Eh
 * total energy  :  -112.0004955 Eh     change       -0.4349218E-03 Eh
 * total energy  :  -112.0005750 Eh     change       -0.7951655E-04 Eh
 * total energy  :  -112.0010053 Eh     change       -0.4255866E-06 Eh
 * total energy  :  -112.0010058 Eh     change       -0.4470550E-06 Eh
 * total energy  :  -112.0010062 Eh     change       -0.3988817E-06 Eh
 * total energy  :  -112.0010065 Eh     change       -0.3817310E-06 Eh
 * total energy  :  -112.0010069 Eh     change       -0.4094633E-06 Eh
 * total energy  :  -112.0010072 Eh     change       -0.2949705E-06 Eh
 * total energy  :  -112.0010074 Eh     change       -0.1515740E-06 Eh
 * total energy  :  -112.0010074 Eh     change        0.1221778E-08 Eh
 * total energy  :  -112.0010074 Eh     change       -0.2647997E-07 Eh
   *** GEOMETRY OPTIMIZATION CONVERGED AFTER 45 ITERATIONS ***

 final structure:
================
62
 xtb: 6.7.1 (edcfbbe)
F           -5.57297563723296       -2.71277445097295       -0.41443834334108
C           -4.40079407352634       -2.37855817832910        0.13079487246545
N           -4.00006294767038       -3.12748062834177        1.14387436495505
C           -2.83807617321012       -2.81028149587890        1.69104745187662
F           -2.44027035020393       -3.57917769680328        2.70907946472596
C           -2.04179395455415       -1.76850345958760        1.26284178621523
F           -0.87603196716335       -1.52940336466677        1.90043000546483
C           -2.43824450861984       -0.96469714838075        0.17384814772285
C           -1.67929584266147        0.29123817931569       -0.19589824455329
C           -0.17944807071044        0.12449213328526       -0.15576532067347
C            0.40113601676193       -1.05835110788237       -0.62747469555472
C            1.76728962699135       -1.23974706492939       -0.64815171806471
C            2.56734678872039       -0.20392765602906       -0.17988380074604
C            1.99580497171805        1.01567674352642        0.25523789472312
C            0.62220915525179        1.17877305093195        0.26116419619758
C            3.09391600846414        1.87284715915280        0.61607353167805
C            3.17244979689477        3.16062125920296        1.12306701528920
C            4.42239235892123        3.68987974730210        1.39101951227105
C            5.57854276631187        2.94562737618218        1.17401697062620
C            5.52458131462321        1.65859753733623        0.67039703192773
C            4.27472375527579        1.13219637718823        0.37685772310179
N            3.93822212938000       -0.11815062606906       -0.10501971499490
C            4.84154297520738       -1.13617779045025       -0.44316383093880
C            5.90852899341903       -0.86800879061897       -1.29605481756095
C            6.79813619956781       -1.87481348653284       -1.62196422875353
C            6.62825978072544       -3.15036570524839       -1.10888068544898
C            5.56412561719903       -3.41837952479499       -0.26322719253448
C            4.67236004125753       -2.41751417262636        0.07443984344177
C           -2.03993550592596        0.87869641791843       -1.54688195663420
C           -1.69891131250759        0.44022959673601       -2.79370946815275
C           -2.17112137522545        1.13976137975576       -3.90961939442199
C           -2.96186519026077        2.29453232645784       -3.75443361804926
C           -3.29148059536249        2.76996383411901       -2.51742567239219
C           -2.82899427042907        2.07429924774933       -1.36978771787939
C           -2.98836669845021        2.32366898703094       -0.00775467455290
C           -3.69377165648236        3.33865853246866        0.69175047789990
C           -3.60601220014276        3.38732760310720        2.05079203584828
C           -2.83983051446268        2.43934353623350        2.77087864690243
C           -2.17178706451342        1.40854583686932        2.11209452819274
C           -2.24405290529352        1.33519348170769        0.74605082303102
C           -3.68405123175877       -1.31311042114420       -0.38148740609643
F           -4.20176240742827       -0.62241976972090       -1.41568821947565
H           -0.24134325191362       -1.85627178809440       -0.97065210067230
H            2.19755288093985       -2.15637698405915       -1.02118013827096
H            0.17820527454338        2.10554802504823        0.59161086712497
H            2.27570062313419        3.73171159425603        1.30825461060551
H            4.50592715668724        4.69166859024982        1.78426513124504
H            6.53872964725249        3.37998606184346        1.40821934692774
H            6.42486682152538        1.08164242530166        0.52406331132908
H            6.02231794455601        0.12172461616654       -1.71245886318773
H            7.62316482024287       -1.66383653277717       -2.28564226672265
H            7.32381371793171       -3.93391137300272       -1.36762689288253
H            5.43154354324602       -4.40998644168071        0.14234869409543
H            3.85549364009718       -2.61447801198518        0.75229055279541
H           -1.09923548378719       -0.44783638918950       -2.92890784746640
H           -1.94176114060386        0.78161657290130       -4.90071388239817
H           -3.30638244676392        2.80845433048613       -4.63992390728782
H           -3.88432314176185        3.66334638541115       -2.39740229323851
H           -4.28275220645748        4.05451491955889        0.13933717766765
H           -4.12687251562034        4.15569461477832        2.60264544895691
H           -2.78711847939834        2.50965490393342        3.84575238621034
H           -1.60399578841651        0.68824608935242        2.68124317501827

 projected vibrational frequencies (cm⁻¹)
eigval :       -0.00     0.00     0.00     0.00     0.00     0.00
eigval :       15.23    17.98    25.92    30.68    41.31    49.62
eigval :       58.73    63.86    66.33    75.32    95.45   102.70
eigval :      114.35   124.66   141.61   148.72   156.77   168.25
eigval :      195.33   200.97   213.66   228.34   240.51   251.18
eigval :      263.00   266.81   288.44   305.24   322.66   331.37
eigval :      340.21   343.35   354.19   379.47   392.31   403.23
eigval :      409.17   412.52   413.27   419.56   420.23   426.47
eigval :      455.74   462.13   477.41   486.90   493.06   523.75
eigval :      536.97   540.20   559.98   573.89   578.32   580.31
eigval :      590.37   602.77   607.06   616.93   619.64   630.58
eigval :      649.74   655.87   669.98   675.33   680.36   688.13
eigval :      708.73   712.46   720.67   728.51   732.79   747.76
eigval :      764.09   774.76   806.50   820.03   825.93   827.99
eigval :      868.07   869.96   875.99   882.13   883.16   886.50
eigval :      897.64   902.00   903.18   905.76   908.60   918.45
eigval :      920.57   922.31   928.00   933.25   935.09   952.47
eigval :      964.43   997.61  1014.86  1030.00  1037.47  1040.65
eigval :     1069.90  1072.96  1079.30  1092.71  1106.89  1117.61
eigval :     1119.22  1148.87  1153.99  1157.43  1160.42  1175.22
eigval :     1176.14  1179.61  1181.36  1187.82  1198.85  1204.52
eigval :     1225.98  1236.52  1244.14  1254.35  1270.67  1280.64
eigval :     1297.77  1316.00  1317.29  1321.75  1326.61  1330.47
eigval :     1347.45  1351.54  1352.61  1355.52  1361.02  1364.01
eigval :     1390.83  1397.12  1401.19  1413.27  1426.35  1434.90
eigval :     1437.79  1448.45  1461.88  1474.32  1480.62  1491.26
eigval :     1495.76  1520.99  1545.92  1557.69  1576.32  1579.18
eigval :     1584.09  1589.65  1594.48  1608.37  3079.22  3079.74
eigval :     3081.24  3082.15  3083.69  3084.38  3086.75  3088.70
eigval :     3091.77  3092.45  3093.58  3095.21  3095.51  3096.19
eigval :     3097.07  3098.03  3101.67  3102.89  3103.71  3105.89

   temp. (K)  partition function   enthalpy   heat capacity  entropy
                                   cal/mol     cal/K/mol   cal/K/mol   J/K/mol
 298.15  VIB  0.118E+15            19182.653    121.920    117.916
         ROT  0.463E+08              888.752      2.981     38.057
         INT  0.547E+22            20071.405    124.901    155.973
         TR   0.127E+29             1481.254      4.968     44.814
         TOT                       21552.6590   129.8693   200.7876   840.0951

       T/K    H(0)-H(T)+PV         H(T)/Eh          T*S/Eh         G(T)/Eh
   ------------------------------------------------------------------------
    298.15    0.343463E-01    0.475651E+00    0.954006E-01    0.380250E+00
   ------------------------------------------------------------------------

         :::::::::::::::::::::::::::::::::::::::::::::::::::::
         ::                  THERMODYNAMIC                  ::
         :::::::::::::::::::::::::::::::::::::::::::::::::::::
         :: total free energy        -111.620757333507 Eh   ::
         ::.................................................::
         :: total energy             -112.001007394335 Eh   ::
         :: zero point energy           0.441304358967 Eh   ::
         :: G(RRHO) w/o ZPVE           -0.061054298139 Eh   ::
         :: G(RRHO) contrib.            0.380250060827 Eh   ::
         :::::::::::::::::::::::::::::::::::::::::::::::::::::

           -------------------------------------------------
          | TOTAL ENERGY             -112.001007394335 Eh   |
          | TOTAL ENTHALPY           -111.525356687086 Eh   |
          | TOTAL FREE ENERGY        -111.620757333507 Eh   |
          | GRADIENT NORM               0.000125552965 Eh/α |
           -------------------------------------------------

 * finished run on 2025/07/16 at 12:04:50.715
