   * xtb version 6.7.1 (edcfbbe) compiled by 'albert@albert-system' on 2024-07-22

   ID    Z sym.   atoms
    1    9 F      1, 5, 7, 42
    2    6 C      2, 4, 6, 8-21, 23-41
    3    7 N      3, 22
    4    1 H      43-62

          program call               : xtb data2507/gas/3CzFTFP/3CzFTFP.xyz --gfn 2 --ohess vtight --parallel 40 --molden --ceasefiles --namespace data2507/gas/3CzFTFP/3CzFTFP_gas_S0_preOpt
          :  Hamiltonian                  GFN2-xTB          :
 * total energy  :  -112.0825423 Eh     change       -0.8794245E-09 Eh
 * total energy  :  -112.0955486 Eh     change       -0.1300624E-01 Eh
 * total energy  :  -112.0990487 Eh     change       -0.3500144E-02 Eh
 * total energy  :  -112.0999510 Eh     change       -0.9023248E-03 Eh
 * total energy  :  -112.1003436 Eh     change       -0.3925705E-03 Eh
 * total energy  :  -112.1004825 Eh     change       -0.1389118E-03 Eh
 * total energy  :  -112.1006031 Eh     change       -0.1205590E-03 Eh
 * total energy  :  -112.1006897 Eh     change       -0.8656889E-04 Eh
 * total energy  :  -112.1007610 Eh     change       -0.7133504E-04 Eh
 * total energy  :  -112.1008108 Eh     change       -0.4982106E-04 Eh
 * total energy  :  -112.1008935 Eh     change       -0.2969757E-06 Eh
 * total energy  :  -112.1008938 Eh     change       -0.2379024E-06 Eh
 * total energy  :  -112.1008940 Eh     change       -0.2018969E-06 Eh
 * total energy  :  -112.1008942 Eh     change       -0.1823829E-06 Eh
 * total energy  :  -112.1008943 Eh     change       -0.1686793E-06 Eh
 * total energy  :  -112.1008945 Eh     change       -0.1500117E-06 Eh
 * total energy  :  -112.1008946 Eh     change       -0.1268292E-06 Eh
 * total energy  :  -112.1008947 Eh     change       -0.1140765E-06 Eh
 * total energy  :  -112.1008947 Eh     change       -0.1009127E-08 Eh
   *** GEOMETRY OPTIMIZATION CONVERGED AFTER 44 ITERATIONS ***

 final structure:
================
62
 xtb: 6.7.1 (edcfbbe)
F           -5.35057781926784       -4.21809840234515        0.69427514638609
C           -4.28376950691173       -3.53444837347011        1.09138750896687
N           -3.67635712196334       -3.97127830797574        2.16869641230524
C           -2.62856047517027       -3.30432904688036        2.59317095189736
F           -2.04381198228418       -3.75786264604147        3.69645727509354
C           -2.12662441012103       -2.17614525785477        1.95196896330026
F           -1.06920524715479       -1.55287750016459        2.48726311434752
C           -2.73567718576279       -1.70554930011776        0.78273603607240
C           -2.24924884442590       -0.45971880660753        0.08533431326110
C           -0.73487011639642       -0.33628970692452        0.09604462627521
C            0.04573939177203       -1.47077114904879       -0.15010668579923
C            1.42302056589495       -1.41175012072660       -0.19687844298660
C            2.02847451507553       -0.17986049159433        0.00386502786507
C            1.24971399934268        0.98232805841700        0.20610422215618
C           -0.13390097204594        0.89933009558817        0.25337191554254
C            2.17239540437992        2.07551383996182        0.32154603422229
C            2.01628832254663        3.43811444713425        0.54020125653108
C            3.14573563435239        4.22683380671320        0.62347819276180
C            4.41825499867005        3.67091369620047        0.50686574207849
C            4.59884447564065        2.31863450921180        0.28938626985562
C            3.46661363207332        1.52376318655149        0.18079476301434
N            3.36339353616317        0.15993990041068       -0.01084961877129
C            4.43466746899716       -0.73282810909460       -0.16575500372343
C            5.42743517016849       -0.47817647430806       -1.10692389962592
C            6.48459283066289       -1.35802538699932       -1.24892532805774
C            6.55487480317722       -2.49821270605136       -0.46584523598210
C            5.56381036496704       -2.75569946833877        0.46683448045648
C            4.50823580387539       -1.87673179964926        0.62352544206084
C           -2.70143080161786       -0.32849700112180       -1.35970062519585
C           -2.35414773563208       -1.10545729670033       -2.44317499521404
C           -2.86181513924021       -0.76826950197168       -3.69034316511576
C           -3.69281797284172        0.32980207175130       -3.84715988111560
C           -4.03516191133208        1.12032707353625       -2.76263335541780
C           -3.53378221200307        0.78769765780984       -1.51575808620084
C           -3.71258756914648        1.42069582831453       -0.21962149965607
C           -4.45117783248617        2.53133602515985        0.15397101904366
C           -4.43707480156435        2.92335909148078        1.48288182764636
C           -3.69611476802713        2.22334905619815        2.42241492502856
C           -2.95417637833195        1.10754703050823        2.05651394827215
C           -2.96682247815151        0.71602659691791        0.73519743248196
C           -3.86686821749987       -2.41615254569653        0.37197363831101
F           -4.58240551430869       -2.04360177593055       -0.69525263557295
H           -0.43811427440523       -2.42672367091545       -0.29620266107284
H            2.00516476964136       -2.29914546716000       -0.39300070575505
H           -0.72601328358087        1.78727740845505        0.41216735092393
H            1.03008676978215        3.86428196238802        0.64646008901090
H            3.04789219832843        5.28906737944874        0.79065996579644
H            5.28362092427051        4.31139495871910        0.59226719403330
H            5.58933734863487        1.89526766157286        0.21871458578483
H            5.35730208724969        0.40080159795208       -1.73018952301871
H            7.25307262282173       -1.15589353673853       -1.98023290418980
H            7.38008952433294       -3.18432033180828       -0.58195757581276
H            5.61709754510501       -3.64132686321178        1.08243564435439
H            3.74517299269733       -2.06130539484435        1.36487729202105
H           -1.70565190065061       -1.96169585401600       -2.33265639667113
H           -2.60515156641080       -1.37134241746963       -4.54839561143627
H           -4.07650440739399        0.57140647435682       -4.82731748925136
H           -4.67978940958180        1.97724801748415       -2.88657505672660
H           -5.02719902164075        3.07904624574896       -0.57622663921568
H           -5.00889767284472        3.78598342409939        1.79160470113183
H           -3.69380816333511        2.54722255245761        3.45230556924171
H           -2.37080898709205        0.57787605723077        2.79392914405096

          :  Hamiltonian                  GFN2-xTB          :
         :: gradient norm              0.000021946711 Eh/a0 ::
         :: HOMO-LUMO gap              1.799052065444 eV    ::
         :: SCC energy              -113.880157536607 Eh    ::
         :: -> dispersion             -0.091428418098 Eh    ::
         :: repulsion energy           1.779262823007 Eh    ::

    * Orbital Energies and Occupations

         #    Occupation            Energy/Eh            Energy/eV
      -------------------------------------------------------------
         1        2.0000           -0.8601880             -23.4069
       ...           ...                  ...                  ...
        89        2.0000           -0.4300609             -11.7026
        90        2.0000           -0.4285004             -11.6601
        91        2.0000           -0.4278276             -11.6418
        92        2.0000           -0.4246591             -11.5556
        93        2.0000           -0.4234081             -11.5215
        94        2.0000           -0.4179042             -11.3718
        95        2.0000           -0.4162655             -11.3272
        96        2.0000           -0.4153157             -11.3013
        97        2.0000           -0.4107944             -11.1783
        98        2.0000           -0.4064620             -11.0604
        99        2.0000           -0.3913922             -10.6503
       100        2.0000           -0.3841460             -10.4531
       101        2.0000           -0.3668537              -9.9826 (HOMO)
       102                         -0.3007397              -8.1835 (LUMO)
       103                         -0.2830794              -7.7030
       104                         -0.2632116              -7.1624
       105                         -0.2521149              -6.8604
       106                         -0.2394749              -6.5164
       107                         -0.2375945              -6.4653
       108                         -0.2365464              -6.4368
       109                         -0.2331610              -6.3446
       110                         -0.2253678              -6.1326
       111                         -0.2000272              -5.4430
       112                         -0.1962442              -5.3401
       ...                                ...                  ...
       188                          0.7395732              20.1248
      -------------------------------------------------------------
                  HL-Gap            0.0661139 Eh            1.7991 eV

     #   Z          covCN         q      C6AA      α(0)
     1   9 F        0.789    -0.157    10.805     3.883
     2   6 C        2.784     0.236    23.054     7.865
     3   7 N        1.844    -0.227    26.814     7.674
     4   6 C        2.783     0.236    23.071     7.867
     5   9 F        0.789    -0.158    10.815     3.885
     6   6 C        2.783     0.133    25.082     8.203
     7   9 F        0.787    -0.176    10.993     3.917
     8   6 C        2.980     0.006    27.873     8.660
     9   6 C        3.946     0.027    20.049     6.363
    10   6 C        2.981     0.005    27.895     8.664
    11   6 C        2.927    -0.036    28.887     8.814
    12   6 C        2.909    -0.049    29.209     8.862
    13   6 C        3.080     0.048    26.844     8.494
    14   6 C        3.069    -0.015    28.308     8.724
    15   6 C        2.916    -0.036    28.898     8.815
    16   6 C        3.069    -0.016    28.343     8.729
    17   6 C        2.912    -0.032    28.789     8.798
    18   6 C        2.920    -0.040    28.992     8.830
    19   6 C        2.924    -0.032    28.806     8.802
    20   6 C        2.910    -0.050    29.239     8.867
    21   6 C        3.079     0.048    26.848     8.495
    22   7 N        2.803    -0.041    22.026     6.970
    23   6 C        2.913     0.064    26.562     8.451
    24   6 C        2.922    -0.042    29.047     8.838
    25   6 C        2.920    -0.028    28.692     8.784
    26   6 C        2.919    -0.032    28.809     8.802
    27   6 C        2.920    -0.027    28.686     8.783
    28   6 C        2.922    -0.042    29.045     8.838
    29   6 C        3.055     0.005    27.848     8.654
    30   6 C        2.914    -0.030    28.738     8.791
    31   6 C        2.923    -0.028    28.693     8.784
    32   6 C        2.921    -0.028    28.710     8.787
    33   6 C        2.915    -0.030    28.741     8.791
    34   6 C        3.034     0.006    27.862     8.658
    35   6 C        3.034     0.006    27.857     8.657
    36   6 C        2.915    -0.032    28.790     8.799
    37   6 C        2.921    -0.029    28.734     8.790
    38   6 C        2.923    -0.031    28.767     8.796
    39   6 C        2.914    -0.034    28.858     8.809
    40   6 C        3.056     0.003    27.909     8.664
    41   6 C        2.782     0.131    25.117     8.209
    42   9 F        0.787    -0.176    10.987     3.915
    43   1 H        0.925     0.020     2.735     2.586
    44   1 H        0.926     0.033     2.541     2.493
    45   1 H        0.926     0.036     2.509     2.477
    46   1 H        0.926     0.032     2.562     2.503
    47   1 H        0.926     0.030     2.585     2.514
    48   1 H        0.926     0.031     2.567     2.505
    49   1 H        0.926     0.030     2.590     2.517
    50   1 H        0.926     0.041     2.436     2.441
    51   1 H        0.926     0.037     2.485     2.465
    52   1 H        0.926     0.037     2.493     2.469
    53   1 H        0.926     0.038     2.472     2.459
    54   1 H        0.926     0.043     2.412     2.429
    55   1 H        0.926     0.030     2.582     2.513
    56   1 H        0.926     0.037     2.493     2.469
    57   1 H        0.926     0.037     2.492     2.468
    58   1 H        0.926     0.037     2.486     2.465
    59   1 H        0.926     0.038     2.471     2.458
    60   1 H        0.926     0.037     2.489     2.467
    61   1 H        0.926     0.038     2.482     2.464
    62   1 H        0.926     0.039     2.467     2.456

molecular dipole:
                 x           y           z       tot (Debye)
 q only:        1.126       1.013      -0.802
   full:        1.243       1.118      -0.924       4.855

 projected vibrational frequencies (cm⁻¹)
eigval :       -0.00    -0.00    -0.00    -0.00     0.00     0.00
eigval :       15.89    19.01    25.94    35.02    41.47    46.87
eigval :       59.43    63.60    66.90    84.85    95.90   104.95
eigval :      116.70   140.02   144.94   154.19   161.29   171.25
eigval :      201.05   210.95   219.78   234.22   243.83   261.49
eigval :      265.69   278.91   292.08   306.89   333.12   338.90
eigval :      347.70   360.83   380.59   388.70   396.60   403.40
eigval :      413.46   414.42   426.40   435.94   437.19   454.33
eigval :      466.22   480.24   499.49   507.26   535.23   536.51
eigval :      543.42   549.43   582.66   588.94   590.12   592.39
eigval :      609.46   610.70   613.83   628.19   645.79   660.77
eigval :      668.88   673.64   673.74   684.04   689.73   708.25
eigval :      721.43   727.75   746.49   753.71   764.27   776.19
eigval :      782.62   785.63   815.85   828.94   869.89   874.37
eigval :      877.21   879.50   883.88   887.63   895.16   902.42
eigval :      907.08   909.65   912.17   918.65   921.99   922.92
eigval :      927.54   928.96   933.82   934.27   937.35   971.43
eigval :      998.57  1006.11  1025.42  1049.79  1071.43  1078.17
eigval :     1080.40  1084.29  1114.56  1116.93  1118.04  1122.67
eigval :     1146.48  1157.31  1172.47  1176.63  1178.63  1181.11
eigval :     1183.11  1186.37  1200.24  1201.69  1208.64  1218.90
eigval :     1241.12  1243.24  1248.68  1261.58  1275.27  1284.87
eigval :     1287.78  1291.90  1313.08  1317.92  1326.37  1354.47
eigval :     1363.29  1366.95  1370.31  1390.97  1420.67  1427.66
eigval :     1429.08  1431.15  1432.99  1434.30  1437.61  1461.18
eigval :     1472.84  1477.46  1484.22  1488.16  1550.76  1558.01
eigval :     1569.90  1583.62  1586.21  1587.44  1594.88  1596.08
eigval :     1600.18  1601.09  1604.21  1617.09  3065.16  3078.07
eigval :     3079.09  3080.15  3080.64  3082.28  3083.17  3083.79
eigval :     3088.82  3090.08  3091.08  3091.26  3092.57  3094.98
eigval :     3095.97  3096.87  3097.82  3098.48  3100.23  3103.52

   temp. (K)  partition function   enthalpy   heat capacity  entropy
                                   cal/mol     cal/K/mol   cal/K/mol   J/K/mol
 298.15  VIB  0.464E+14            18712.020    119.428    114.816
         ROT  0.460E+08              888.752      2.981     38.044
         INT  0.213E+22            19600.772    122.409    152.859
         TR   0.127E+29             1481.254      4.968     44.814
         TOT                       21082.0263   127.3773   197.6739   827.0677

       T/K    H(0)-H(T)+PV         H(T)/Eh          T*S/Eh         G(T)/Eh
   ------------------------------------------------------------------------
    298.15    0.335963E-01    0.480274E+00    0.939213E-01    0.386353E+00
   ------------------------------------------------------------------------

         :::::::::::::::::::::::::::::::::::::::::::::::::::::
         ::                  THERMODYNAMIC                  ::
         :::::::::::::::::::::::::::::::::::::::::::::::::::::
         :: total free energy        -111.714541757983 Eh   ::
         ::.................................................::
         :: total energy             -112.100894713599 Eh   ::
         :: zero point energy           0.446677871197 Eh   ::
         :: G(RRHO) w/o ZPVE           -0.060324915580 Eh   ::
         :: G(RRHO) contrib.            0.386352955616 Eh   ::
         :::::::::::::::::::::::::::::::::::::::::::::::::::::

           -------------------------------------------------
          | TOTAL ENERGY             -112.100894713599 Eh   |
          | TOTAL ENTHALPY           -111.620620494956 Eh   |
          | TOTAL FREE ENERGY        -111.714541757983 Eh   |
          | GRADIENT NORM               0.000021946527 Eh/α |
          | HOMO-LUMO GAP               1.799051805740 eV   |
           -------------------------------------------------

 * finished run on 2025/07/16 at 12:02:07.038
