   * xtb version 6.7.1 (edcfbbe) compiled by 'albert@albert-system' on 2024-07-22

   ID    Z sym.   atoms
    1    9 F      1, 5, 7, 42
    2    6 C      2, 4, 6, 8-21, 23-41
    3    7 N      3, 22
    4    1 H      43-62

          program call               : xtb data2507/gas/3CzFTFP/3CzFTFP_gas_T1_crest.xyz --gfn 2 --spinpol --tblite --uhf 2 --ohess vtight --parallel 40 --molden --ceasefiles --namespace data2507/gas/3CzFTFP/3CzFTFP_gas_T1_finalOpt
 * total energy  :  -112.0009541 Eh     change        0.4316036E-08 Eh
 * total energy  :  -112.0009888 Eh     change       -0.3470234E-04 Eh
 * total energy  :  -112.0010035 Eh     change       -0.1476636E-04 Eh
 * total energy  :  -112.0010052 Eh     change       -0.1669660E-05 Eh
 * total energy  :  -112.0010048 Eh     change        0.4092736E-06 Eh
 * total energy  :  -112.0010061 Eh     change       -0.1337302E-05 Eh
 * total energy  :  -112.0010068 Eh     change       -0.6907847E-06 Eh
 * total energy  :  -112.0010076 Eh     change       -0.7876480E-06 Eh
 * total energy  :  -112.0010081 Eh     change       -0.5343062E-06 Eh
 * total energy  :  -112.0010085 Eh     change       -0.3352537E-06 Eh
 * total energy  :  -112.0010088 Eh     change       -0.2876326E-06 Eh
 * total energy  :  -112.0010090 Eh     change       -0.2831078E-06 Eh
 * total energy  :  -112.0010092 Eh     change       -0.1689944E-06 Eh
 * total energy  :  -112.0010094 Eh     change       -0.1730006E-06 Eh
 * total energy  :  -112.0010095 Eh     change       -0.1500337E-06 Eh
 * total energy  :  -112.0010097 Eh     change       -0.1589472E-06 Eh
 * total energy  :  -112.0010098 Eh     change       -0.1473138E-06 Eh
 * total energy  :  -112.0010099 Eh     change       -0.1032955E-06 Eh
 * total energy  :  -112.0010100 Eh     change       -0.7083078E-07 Eh
   *** GEOMETRY OPTIMIZATION CONVERGED AFTER 19 ITERATIONS ***

 final structure:
================
62
 xtb: 6.7.1 (edcfbbe)
F           -5.53555827103664       -2.75488960958105       -0.61532070333898
C           -4.37049604723311       -2.44211297293766       -0.04276612854356
N           -3.96818409967403       -3.24677305707814        0.92600368518909
C           -2.81308552423422       -2.95122055918851        1.49929767795530
F           -2.41346411270862       -3.77604111477617        2.47185266408798
C           -2.02529445950222       -1.87739842455848        1.14022059129293
F           -0.86606615603247       -1.66564527897112        1.79905278688392
C           -2.42347196192633       -1.01325430655072        0.09906663544949
C           -1.67574543372798        0.27031919791258       -0.18917506457580
C           -0.17434849769765        0.11748848855250       -0.15104436434950
C            0.42251000972673       -1.03188467119144       -0.68138802127470
C            1.79070507126834       -1.19752216064576       -0.70080842790970
C            2.57597697422334       -0.17943196103412       -0.17242142765761
C            1.98808771934397        1.01021869312935        0.31993758628008
C            0.61276423489474        1.15753901539661        0.32531927149477
C            3.07415068225691        1.85965083809246        0.73175926338649
C            3.13470975074555        3.12132209207123        1.30276451792241
C            4.37674522529597        3.64999536797311        1.60618298993703
C            5.54253382519560        2.92980347516885        1.36135801782241
C            5.50646286509679        1.66888732576557        0.79405822348562
C            4.26468918773717        1.14439685880600        0.46496293214977
N            3.94524490311667       -0.08355159991587       -0.08187055246644
C            4.86108282950709       -1.07671262908915       -0.45820350829737
C            5.93491328113160       -0.76005704078121       -1.28543028866897
C            6.83645467105317       -1.74334748348278       -1.64839593661875
C            6.67182257538168       -3.04302359947751       -1.19799709210471
C            5.60088331213674       -3.35914097824310       -0.37793386704986
C            4.69714621909110       -2.38241526528466       -0.00354166210990
C           -2.03551699612536        0.93634734849061       -1.50335292576565
C           -1.68473140662706        0.57801147028848       -2.77289749708145
C           -2.15695133968813        1.34126182468239       -3.84619809087517
C           -2.95741186848869        2.47842836641112       -3.62457492073345
C           -3.29714087075445        2.87422294500113       -2.36252472759341
C           -2.83506533991031        2.11265540463226       -1.25735685144157
C           -3.00299440785972        2.27665744518133        0.11655046474896
C           -3.71954658123347        3.24149422740601        0.87339406789729
C           -3.63820119222816        3.20753152022866        2.23328665957106
C           -2.86773774611670        2.22314577590782        2.89775899819342
C           -2.18847205055314        1.23987709781241        2.18042174107126
C           -2.25423065268028        1.24965125768809        0.81214215536044
C           -3.66204137717949       -1.34027418055699       -0.48474648885815
F           -4.18072287596619       -0.59357889545495       -1.47874756100770
H           -0.20857862182170       -1.81696447946722       -1.07202455914699
H            2.23368540288094       -2.08866074917289       -1.11810668761921
H            0.15622082896857        2.06080664942017        0.70071660517806
H            2.23031712300812        3.67279491251273        1.50905094625899
H            4.44639051259313        4.63189055295592        2.04915732396340
H            6.49615713958460        3.36228184633339        1.62411732370777
H            6.41418385586711        1.10972884030553        0.62622864512494
H            6.04492491220817        0.24906212226404       -1.65348133834848
H            7.66683757316019       -1.49476147146156       -2.29206613462049
H            7.37673567004030       -3.80793611260259       -1.48557400112961
H            5.47226122002833       -4.36979177316754       -0.02100307067219
H            3.87461131604195       -2.61759560543761        0.65500638859838
H           -1.07738639023029       -0.29555020830790       -2.95896393805016
H           -1.91992501133752        1.04660701058072       -4.85621690144286
H           -3.30127023304085        3.04346154176933       -4.47862806748020
H           -3.89746339920583        3.75411048872773       -2.19099740895964
H           -4.31154252959912        3.98545405598511        0.36294032090214
H           -4.16742795328242        3.93678766713688        2.82854895102122
H           -2.82031108916860        2.22788459903899        3.97517306612802
H           -1.61725630301323        0.49073747208820        2.70729524102929

 projected vibrational frequencies (cm⁻¹)
eigval :       -0.00     0.00     0.00     0.00     0.00     0.00
eigval :       15.29    18.10    26.17    30.78    41.35    49.73
eigval :       58.78    63.92    66.49    75.67    95.56   102.90
eigval :      114.53   124.76   141.87   148.80   157.17   168.27
eigval :      195.33   201.05   213.64   228.39   240.49   251.27
eigval :      263.04   266.94   288.50   305.70   322.67   331.29
eigval :      340.19   343.43   354.24   379.56   392.45   403.27
eigval :      409.19   412.49   413.39   419.59   420.23   426.62
eigval :      455.80   462.22   477.52   486.98   493.08   523.71
eigval :      537.09   540.29   559.95   573.86   578.31   580.29
eigval :      590.37   602.85   607.09   616.91   619.64   630.50
eigval :      649.76   655.88   670.05   675.19   680.35   688.14
eigval :      708.67   712.74   720.80   728.71   732.94   747.63
eigval :      764.37   775.14   806.75   820.37   826.19   828.24
eigval :      868.28   870.21   876.22   882.42   883.36   886.80
eigval :      897.76   902.30   903.52   906.03   908.94   918.58
eigval :      920.82   922.70   928.00   933.58   935.44   952.53
eigval :      964.33   997.69  1015.03  1030.52  1037.68  1041.06
eigval :     1070.29  1073.02  1079.65  1092.88  1107.17  1118.11
eigval :     1119.49  1148.80  1154.19  1157.77  1160.82  1175.64
eigval :     1176.53  1180.18  1181.72  1187.85  1199.26  1204.50
eigval :     1226.23  1236.63  1244.32  1254.44  1270.99  1280.79
eigval :     1297.88  1315.86  1317.32  1321.41  1326.50  1330.20
eigval :     1347.47  1351.42  1352.60  1355.00  1360.88  1363.98
eigval :     1390.57  1397.10  1401.07  1413.13  1426.18  1434.78
eigval :     1437.82  1448.45  1461.78  1474.06  1480.45  1491.28
eigval :     1495.81  1520.90  1545.93  1557.64  1576.27  1579.26
eigval :     1584.13  1589.76  1594.70  1608.65  3079.01  3079.69
eigval :     3081.18  3082.00  3083.68  3084.35  3086.79  3088.72
eigval :     3091.64  3092.36  3093.58  3095.20  3095.37  3096.10
eigval :     3097.17  3097.89  3101.53  3102.78  3103.80  3106.00

   temp. (K)  partition function   enthalpy   heat capacity  entropy
                                   cal/mol     cal/K/mol   cal/K/mol   J/K/mol
 298.15  VIB  0.113E+15            19176.746    121.914    117.855
         ROT  0.463E+08              888.752      2.981     38.056
         INT  0.523E+22            20065.498    124.895    155.912
         TR   0.127E+29             1481.254      4.968     44.814
         TOT                       21546.7519   129.8635   200.7261   839.8380

       T/K    H(0)-H(T)+PV         H(T)/Eh          T*S/Eh         G(T)/Eh
   ------------------------------------------------------------------------
    298.15    0.343369E-01    0.475676E+00    0.953715E-01    0.380305E+00
   ------------------------------------------------------------------------

         :::::::::::::::::::::::::::::::::::::::::::::::::::::
         ::                  THERMODYNAMIC                  ::
         :::::::::::::::::::::::::::::::::::::::::::::::::::::
         :: total free energy        -111.620705009434 Eh   ::
         ::.................................................::
         :: total energy             -112.001010012647 Eh   ::
         :: zero point energy           0.441339519480 Eh   ::
         :: G(RRHO) w/o ZPVE           -0.061034516267 Eh   ::
         :: G(RRHO) contrib.            0.380305003213 Eh   ::
         :::::::::::::::::::::::::::::::::::::::::::::::::::::

           -------------------------------------------------
          | TOTAL ENERGY             -112.001010012647 Eh   |
          | TOTAL ENTHALPY           -111.525333558389 Eh   |
          | TOTAL FREE ENERGY        -111.620705009434 Eh   |
          | GRADIENT NORM               0.000034826167 Eh/α |
           -------------------------------------------------

 * finished run on 2025/07/16 at 12:08:27.279
