   * xtb version 6.7.1 (edcfbbe) compiled by 'albert@albert-system' on 2024-07-22

   ID    Z sym.   atoms
    1    8 O      1, 28
    2    6 C      2-12, 14-19, 21-26, 29-42
    3    7 N      13
    4   16 S      20
    5   15 P      27
    6    1 H      43-70

          program call               : xtb data2507/gas/OPDPO/OPDPO_gas_S0_crest.xyz --gfn 2 --ohess vtight --parallel 40 --molden --ceasefiles --namespace data2507/gas/OPDPO/OPDPO_gas_S0_finalOpt
          :  Hamiltonian                  GFN2-xTB          :
 * total energy  :  -110.3413340 Eh     change       -0.2375486E-08 Eh
 * total energy  :  -110.3413358 Eh     change       -0.1812430E-05 Eh
 * total energy  :  -110.3413377 Eh     change       -0.1899684E-05 Eh
 * total energy  :  -110.3413411 Eh     change       -0.3329213E-05 Eh
 * total energy  :  -110.3413446 Eh     change       -0.3529071E-05 Eh
 * total energy  :  -110.3413493 Eh     change       -0.4724685E-05 Eh
 * total energy  :  -110.3413541 Eh     change       -0.4749534E-05 Eh
 * total energy  :  -110.3413575 Eh     change       -0.3493103E-05 Eh
 * total energy  :  -110.3413601 Eh     change       -0.2531410E-05 Eh
 * total energy  :  -110.3413624 Eh     change       -0.2288975E-05 Eh
 * total energy  :  -110.3413709 Eh     change       -0.2137785E-05 Eh
 * total energy  :  -110.3413733 Eh     change       -0.2427103E-05 Eh
 * total energy  :  -110.3413758 Eh     change       -0.2484965E-05 Eh
 * total energy  :  -110.3413778 Eh     change       -0.1984609E-05 Eh
 * total energy  :  -110.3413793 Eh     change       -0.1555871E-05 Eh
 * total energy  :  -110.3413808 Eh     change       -0.1446130E-05 Eh
 * total energy  :  -110.3413821 Eh     change       -0.1376530E-05 Eh
 * total energy  :  -110.3413833 Eh     change       -0.1199624E-05 Eh
 * total energy  :  -110.3413833 Eh     change       -0.8271613E-08 Eh
   *** GEOMETRY OPTIMIZATION CONVERGED AFTER 22 ITERATIONS ***

 final structure:
================
70
 xtb: 6.7.1 (edcfbbe)
O           -3.11775249317779        4.14403283863161       -0.82290445848620
C           -2.60222967573040        3.37191496009239       -0.05335723767467
C           -1.57766414715626        2.38461509787997       -0.39791580681745
C           -1.15919736099699        2.24664829044866       -1.66868612382966
C           -0.16537509124792        1.24034987923047       -2.11019414525653
C            0.49156501460186        0.40868255722899       -0.98585430183873
C            0.56090558124090       -1.03302445292799       -1.42939306815794
C            1.55235457541665       -1.41470233757193       -2.32834414023214
C            1.64169759056770       -2.71158750145014       -2.79590609112407
C            0.71788492779274       -3.65919454308549       -2.38681936222108
C           -0.29624854934189       -3.29139168822419       -1.52432530574097
C           -0.38158313524455       -1.98826497762094       -1.04238697209807
N           -1.45519584106132       -1.63895497734838       -0.17319651589470
C           -1.40561157076588       -2.06549647026680        1.15200899457475
C           -0.39833523587688       -2.93551467302325        1.57399778143709
C           -0.31950742583420       -3.37036946355077        2.88557790971523
C           -1.25182154979210       -2.95518474581603        3.81684092591677
C           -2.24721784230243       -2.07847611515849        3.42250301110489
C           -2.31749157935532       -1.62478264503449        2.11566390220552
S           -3.56209836112633       -0.41166089346554        1.77438789380042
C           -3.54743487221378       -0.37548710787389        0.00583124705544
C           -4.58231883661751        0.30999399712193       -0.60778676585587
C           -4.65665200956565        0.39045670859027       -1.98651155427894
C           -3.70607460498423       -0.26160328362322       -2.74813200367257
C           -2.67747092598922       -0.95646131499331       -2.13687004425107
C           -2.55278782221996       -1.00058051421007       -0.74810635824170
P            2.26845281916282        1.06815343317683       -0.80020277441855
O            2.77698392542363        1.68230951374856       -2.03411676848372
C            2.13032151079074        2.28339260206811        0.55001002538862
C            1.73701963081798        3.56088107443817        0.17306958962841
C            1.56410359997332        4.54356786649489        1.12969357207210
C            1.79428769853883        4.25222303145185        2.46450322297217
C            2.20348787433240        2.98266783756237        2.83934306921726
C            2.36946643140490        1.99426256081129        1.88567178346365
C            3.32541603921570       -0.28310521298840       -0.18348934034324
C            2.93279294008784       -1.25040283400959        0.73263345919199
C            3.82873272544699       -2.22717149350933        1.12719540266510
C            5.11673196702490       -2.24239633560652        0.61648667217478
C            5.51170070949523       -1.27750423751431       -0.29517533033527
C            4.61698089903549       -0.30121883829552       -0.69385957633335
C           -0.13394424759312        0.59169866351847        0.35851218900215
C           -1.04041216959485        1.52531545483198        0.63819071333432
H           -2.89173306385364        3.35679290755321        1.01668301870623
H           -1.58776376547311        2.87543579109143       -2.43718311904024
H           -0.66433263372130        0.57699304717727       -2.82725450266384
H            0.62741847965958        1.74519476011653       -2.67855840743958
H            2.25900309353252       -0.67319658992754       -2.67179115348719
H            2.42845865658197       -2.98095780308792       -3.48365431433592
H            0.77703776110225       -4.67431910088909       -2.74862860606453
H           -1.04326641270934       -4.00852156531761       -1.21541018578429
H            0.34253217426905       -3.27354908121170        0.86602192788268
H            0.47786702460669       -4.03997599663483        3.17098360283813
H           -1.20331377449123       -3.29576982379432        4.83894509427423
H           -2.97690136581941       -1.71741946820540        4.13111861217012
H           -5.32312195356910        0.79019199027569        0.01317524555016
H           -5.45360707022937        0.94656672053408       -2.45308886086020
H           -3.75836947121740       -0.23662337917542       -3.82601560275566
H           -1.95539228970011       -1.47760328429050       -2.74750897518378
H            1.57865543404636        3.77268313570281       -0.87456491971955
H            1.25116800372582        5.53455547669981        0.83627353465457
H            1.66107487704502        5.01773857706593        3.21463482470626
H            2.39281962450286        2.76139494257968        3.87965039506828
H            2.69137558078470        1.00496513373432        2.17807368890272
H            1.93090805370239       -1.25703729207389        1.13382869434571
H            3.51890337050876       -2.98030857277831        1.83704003717019
H            5.81083591036655       -3.00859241585967        0.92866243853547
H            6.51465052563927       -1.28757495106823       -0.69543802832187
H            4.89992484414137        0.45575314962574       -1.41131798504767
H            0.25311479403330       -0.03272919916474        1.15119158534456
H           -1.41108866354631        1.65265439095457        1.64453236822172

          :  Hamiltonian                  GFN2-xTB          :
         :: gradient norm              0.000062302571 Eh/a0 ::
         :: HOMO-LUMO gap              1.477593216006 eV    ::
         :: SCC energy              -112.234679165776 Eh    ::
         :: -> dispersion             -0.121737055972 Eh    ::
         :: repulsion energy           1.893295815872 Eh    ::

    * Orbital Energies and Occupations

         #    Occupation            Energy/Eh            Energy/eV
      -------------------------------------------------------------
         1        2.0000           -0.7206558             -19.6100
       ...           ...                  ...                  ...
        90        2.0000           -0.4248121             -11.5597
        91        2.0000           -0.4239932             -11.5374
        92        2.0000           -0.4205290             -11.4432
        93        2.0000           -0.4194917             -11.4149
        94        2.0000           -0.4191648             -11.4061
        95        2.0000           -0.4175391             -11.3618
        96        2.0000           -0.4156915             -11.3115
        97        2.0000           -0.4111654             -11.1884
        98        2.0000           -0.4089041             -11.1268
        99        2.0000           -0.3942659             -10.7285
       100        2.0000           -0.3854833             -10.4895
       101        2.0000           -0.3811499             -10.3716
       102        2.0000           -0.3437538              -9.3540 (HOMO)
       103                         -0.2894533              -7.8764 (LUMO)
       104                         -0.2606204              -7.0918
       105                         -0.2524529              -6.8696
       106                         -0.2468916              -6.7183
       107                         -0.2445828              -6.6554
       108                         -0.2435958              -6.6286
       109                         -0.2426200              -6.6020
       110                         -0.2393337              -6.5126
       111                         -0.2356232              -6.4116
       112                         -0.2328231              -6.3354
       113                         -0.2287390              -6.2243
       ...                                ...                  ...
       206                          1.2336756              33.5700
      -------------------------------------------------------------
                  HL-Gap            0.0543005 Eh            1.4776 eV

     #   Z          covCN         q      C6AA      α(0)
     1   8 O        0.856    -0.344    20.586     6.083
     2   6 C        2.769     0.207    23.601     7.956
     3   6 C        2.956    -0.020    28.509     8.758
     4   6 C        2.908    -0.007    28.183     8.705
     5   6 C        3.899    -0.055    21.499     6.591
     6   6 C        3.859     0.025    20.120     6.379
     7   6 C        3.057     0.000    27.963     8.672
     8   6 C        2.936    -0.036    28.902     8.817
     9   6 C        2.918    -0.030    28.757     8.794
    10   6 C        2.919    -0.031    28.777     8.797
    11   6 C        2.922    -0.039    28.979     8.828
    12   6 C        2.932     0.060    26.654     8.467
    13   7 N        2.749    -0.074    22.673     7.072
    14   6 C        2.940     0.061    26.640     8.465
    15   6 C        2.927    -0.060    29.499     8.907
    16   6 C        2.919    -0.035    28.867     8.811
    17   6 C        2.918    -0.040    28.986     8.829
    18   6 C        2.989    -0.040    28.980     8.831
    19   6 C        2.971     0.032    27.274     8.566
    20  16 S        2.137    -0.150   147.390    20.433
    21   6 C        2.972     0.032    27.286     8.568
    22   6 C        2.987    -0.039    28.971     8.829
    23   6 C        2.919    -0.037    28.914     8.818
    24   6 C        2.919    -0.034    28.858     8.809
    25   6 C        2.929    -0.057    29.429     8.896
    26   6 C        2.946     0.060    26.662     8.469
    27  15 P        4.243     0.075   156.916    22.502
    28   8 O        0.808    -0.370    21.106     6.158
    29   6 C        2.921     0.011    27.760     8.640
    30   6 C        3.041    -0.018    28.422     8.744
    31   6 C        2.919    -0.026    28.647     8.777
    32   6 C        2.921    -0.024    28.596     8.769
    33   6 C        2.920    -0.027    28.667     8.780
    34   6 C        2.967    -0.026    28.640     8.778
    35   6 C        2.920     0.013    27.721     8.634
    36   6 C        2.962    -0.026    28.651     8.780
    37   6 C        2.920    -0.028    28.699     8.785
    38   6 C        2.920    -0.025    28.616     8.772
    39   6 C        2.919    -0.026    28.657     8.779
    40   6 C        3.048    -0.020    28.469     8.751
    41   6 C        3.038    -0.029    28.679     8.784
    42   6 C        2.905    -0.041    29.020     8.833
    43   1 H        0.922     0.014     2.825     2.629
    44   1 H        0.925     0.067     2.118     2.276
    45   1 H        0.924     0.058     2.221     2.331
    46   1 H        0.923     0.095     1.833     2.117
    47   1 H        0.926     0.069     2.098     2.265
    48   1 H        0.926     0.042     2.417     2.431
    49   1 H        0.926     0.042     2.428     2.437
    50   1 H        0.926     0.044     2.398     2.422
    51   1 H        0.926     0.031     2.566     2.505
    52   1 H        0.926     0.032     2.560     2.502
    53   1 H        0.926     0.036     2.502     2.474
    54   1 H        0.926     0.044     2.390     2.417
    55   1 H        0.926     0.045     2.384     2.414
    56   1 H        0.926     0.042     2.426     2.436
    57   1 H        0.926     0.036     2.507     2.476
    58   1 H        0.926     0.028     2.614     2.528
    59   1 H        0.926     0.058     2.227     2.334
    60   1 H        0.926     0.043     2.408     2.427
    61   1 H        0.926     0.041     2.433     2.439
    62   1 H        0.926     0.039     2.465     2.455
    63   1 H        0.926     0.038     2.482     2.464
    64   1 H        0.926     0.038     2.472     2.459
    65   1 H        0.926     0.038     2.482     2.463
    66   1 H        0.926     0.040     2.446     2.446
    67   1 H        0.926     0.042     2.416     2.431
    68   1 H        0.926     0.064     2.150     2.293
    69   1 H        0.926     0.033     2.543     2.494
    70   1 H        0.926     0.037     2.484     2.465

molecular dipole:
                 x           y           z       tot (Debye)
 q only:        1.252      -1.679       0.524
   full:        1.327      -2.044       0.699       6.442

 projected vibrational frequencies (cm⁻¹)
eigval :       -0.00    -0.00    -0.00    -0.00     0.00     0.00
eigval :      -10.87    16.22    20.82    29.16    32.21    32.80
eigval :       39.24    46.17    49.76    59.15    65.44    83.78
eigval :      103.01   107.71   115.84   124.38   142.50   160.70
eigval :      164.66   172.55   178.03   186.66   199.75   203.07
eigval :      217.88   229.68   232.57   242.93   260.48   263.27
eigval :      275.69   290.13   302.69   329.14   342.36   361.58
eigval :      364.89   370.22   372.95   381.34   405.44   414.61
eigval :      419.75   421.77   444.75   445.25   473.84   491.46
eigval :      492.45   496.46   504.71   510.86   521.58   525.49
eigval :      536.87   554.20   585.69   586.40   588.58   605.05
eigval :      610.33   643.20   649.95   651.14   656.36   657.02
eigval :      658.11   681.02   689.31   714.96   718.44   721.84
eigval :      737.05   741.44   741.95   773.25   775.07   785.49
eigval :      789.20   828.85   834.63   865.05   869.02   874.62
eigval :      878.87   888.64   899.77   901.54   901.73   903.27
eigval :      905.22   906.49   916.28   916.87   923.36   924.50
eigval :      925.47   926.52   931.23   931.67   933.89   935.32
eigval :      942.87   948.29   963.71   972.54   975.08  1042.86
eigval :     1045.33  1060.59  1079.46  1080.50  1098.79  1104.11
eigval :     1105.36  1115.92  1118.05  1119.01  1121.30  1127.06
eigval :     1152.89  1155.50  1159.94  1177.22  1179.63  1180.46
eigval :     1180.62  1181.43  1184.44  1190.23  1192.84  1195.10
eigval :     1200.74  1228.12  1228.82  1244.41  1246.28  1254.57
eigval :     1257.19  1268.98  1271.70  1276.87  1295.26  1305.00
eigval :     1315.97  1321.77  1322.09  1322.35  1326.62  1334.76
eigval :     1374.56  1399.79  1408.68  1419.12  1422.17  1424.49
eigval :     1425.93  1441.18  1454.25  1455.27  1464.29  1465.68
eigval :     1479.86  1557.14  1568.07  1571.38  1575.92  1582.65
eigval :     1584.23  1587.04  1588.04  1588.22  1594.93  1622.89
eigval :     1668.61  1745.16  2754.59  2885.89  2925.29  3065.22
eigval :     3071.23  3071.54  3076.32  3077.26  3078.43  3080.20
eigval :     3081.17  3083.76  3083.94  3084.53  3084.96  3086.03
eigval :     3087.59  3092.46  3092.69  3093.16  3093.32  3095.11
eigval :     3095.72  3096.52  3100.88  3102.24  3106.66  3110.93

   temp. (K)  partition function   enthalpy   heat capacity  entropy
                                   cal/mol     cal/K/mol   cal/K/mol   J/K/mol
 298.15  VIB  0.359E+17            21150.267    130.274    131.648
         ROT  0.336E+08              888.752      2.981     37.421
         INT  0.121E+25            22039.019    133.255    169.069
         TR   0.136E+29             1481.254      4.968     44.946
         TOT                       23520.2728   138.2229   214.0150   895.4386

       T/K    H(0)-H(T)+PV         H(T)/Eh          T*S/Eh         G(T)/Eh
   ------------------------------------------------------------------------
    298.15    0.374819E-01    0.567669E+00    0.101685E+00    0.465984E+00
   ------------------------------------------------------------------------

         :::::::::::::::::::::::::::::::::::::::::::::::::::::
         ::                  THERMODYNAMIC                  ::
         :::::::::::::::::::::::::::::::::::::::::::::::::::::
         :: total free energy        -109.875399557545 Eh   ::
         ::.................................................::
         :: total energy             -110.341383349903 Eh   ::
         :: zero point energy           0.530187271482 Eh   ::
         :: G(RRHO) w/o ZPVE           -0.064203479124 Eh   ::
         :: G(RRHO) contrib.            0.465983792359 Eh   ::
         :::::::::::::::::::::::::::::::::::::::::::::::::::::

           -------------------------------------------------
          | TOTAL ENERGY             -110.341383349903 Eh   |
          | TOTAL ENTHALPY           -109.773714137914 Eh   |
          | TOTAL FREE ENERGY        -109.875399557545 Eh   |
          | GRADIENT NORM               0.000062295976 Eh/α |
          | HOMO-LUMO GAP               1.477592458175 eV   |
           -------------------------------------------------

 * finished run on 2025/07/16 at 09:25:27.400
