   * xtb version 6.7.1 (edcfbbe) compiled by 'albert@albert-system' on 2024-07-22

   ID    Z sym.   atoms
    1    8 O      1, 28
    2    6 C      2-12, 14-19, 21-26, 29-42
    3    7 N      13
    4   16 S      20
    5   15 P      27
    6    1 H      43-70

          program call               : xtb data2507/gas/OPDPO/OPDPO_gas_T1_crest.xyz --gfn 2 --spinpol --tblite --uhf 2 --ohess vtight --parallel 40 --molden --ceasefiles --namespace data2507/gas/OPDPO/OPDPO_gas_T1_finalOpt
 * total energy  :  -110.2994925 Eh     change        0.6251302E-07 Eh
 * total energy  :  -110.2995078 Eh     change       -0.1528946E-04 Eh
 * total energy  :  -110.2995136 Eh     change       -0.5782219E-05 Eh
 * total energy  :  -110.2995144 Eh     change       -0.8011483E-06 Eh
 * total energy  :  -110.2995148 Eh     change       -0.4119157E-06 Eh
 * total energy  :  -110.2995156 Eh     change       -0.7539590E-06 Eh
 * total energy  :  -110.2995163 Eh     change       -0.7756364E-06 Eh
 * total energy  :  -110.2995171 Eh     change       -0.7203542E-06 Eh
 * total energy  :  -110.2995176 Eh     change       -0.5508475E-06 Eh
 * total energy  :  -110.2995180 Eh     change       -0.3671946E-06 Eh
 * total energy  :  -110.2995183 Eh     change       -0.2663342E-06 Eh
 * total energy  :  -110.2995185 Eh     change       -0.2062562E-06 Eh
 * total energy  :  -110.2995186 Eh     change       -0.1209514E-06 Eh
 * total energy  :  -110.2995186 Eh     change        0.2278955E-07 Eh
 * total energy  :  -110.2995186 Eh     change       -0.7095048E-07 Eh
   *** GEOMETRY OPTIMIZATION CONVERGED AFTER 15 ITERATIONS ***

 final structure:
================
70
 xtb: 6.7.1 (edcfbbe)
O           -3.32716650088094        3.76271168495007       -0.57964516680446
C           -2.67315142333358        3.11950705729336        0.22576463714800
C           -1.67691708468383        2.15074850063498       -0.10461150374492
C           -1.44450819547576        1.77553895858108       -1.53250467214617
C            0.04811810079362        1.57126336274093       -1.75440496363534
C            0.63544995210755        0.49041502920984       -0.83392064684359
C            0.46736094106210       -0.85767292244221       -1.48430615645462
C            1.37481928917913       -1.29670320023045       -2.44152929805866
C            1.19330092116146       -2.49849375752434       -3.10010044284275
C            0.08147479214883       -3.27888277458139       -2.82804058261799
C           -0.84314522672872       -2.84735846272113       -1.89667124498149
C           -0.65244970171861       -1.64480290304858       -1.22415133725096
N           -1.62605727923508       -1.24352652274654       -0.26431095534274
C           -1.64914491443979       -1.95037702760880        0.93328821616016
C           -0.63164767775324       -2.86968158542355        1.21701974102568
C           -0.58679332549535       -3.55482463538766        2.41537181103938
C           -1.55749275172818       -3.34310088852677        3.37935148393233
C           -2.57162803968949       -2.44043371172950        3.12016579389850
C           -2.62334599923877       -1.74872457654610        1.91855092366762
S           -3.97837408818818       -0.64059470772939        1.71883880524639
C           -3.70686326422206       -0.01730407376416        0.08350845675424
C           -4.74289429726084        0.76098931150443       -0.43012353831572
C           -4.70032260044152        1.18005653240497       -1.77012282204696
C           -3.58326775669177        0.99190134993627       -2.50663788963084
C           -2.31938457836139        0.49405896800551       -1.89243915797278
C           -2.57857817455206       -0.31814367397746       -0.65175806293228
P            2.47605374376461        0.92424657607469       -0.73539576949109
O            2.99561875483671        1.53207078610218       -1.96575181966056
C            2.58173991069205        2.06284363559906        0.68242285819169
C            2.54003874403399        3.41915904667587        0.38814023457487
C            2.59026872006416        4.35318566101305        1.40690718398085
C            2.69500520376266        3.93188926401114        2.72202104627267
C            2.76366823321114        2.57910072764469        3.01572031969796
C            2.70763800649575        1.64252588751341        2.00000930672718
C            3.39498851313551       -0.57287980293428       -0.23946230733977
C            2.90589205036483       -1.58754304059090        0.57227425137392
C            3.71140231261367       -2.66819812383515        0.88348332893644
C            5.00547041453453       -2.73964025636705        0.39397579863343
C            5.49704441486022       -1.72778827039462       -0.41422824329149
C            4.69236494650172       -0.64855122075886       -0.73030851898515
C            0.06718463939814        0.60295363513503        0.53901545385550
C           -0.92221258485448        1.48145116895208        0.86615631879532
H           -2.81051795913262        3.27705924369345        1.31492938956122
H           -1.79804161224883        2.58868743809989       -2.17331117327255
H            0.26477197389276        1.32418717101155       -2.79574417622070
H            0.54885400949591        2.51890633969842       -1.52937252445427
H            2.22701124503064       -0.67837906923473       -2.68124289717956
H            1.91712820296640       -2.82192029987767       -3.83210404659624
H           -0.07101907926414       -4.21395696656063       -3.34445468510205
H           -1.72290220535900       -3.43462851771043       -1.67726938476485
H            0.13601804842458       -3.05421039240233        0.48197199777727
H            0.21442246659741       -4.25622378734546        2.59230540006189
H           -1.52863936399063       -3.87212241471199        4.31850497602206
H           -3.34558217128591       -2.25566733241872        3.84923849574412
H           -5.60039232242601        0.96606083372603        0.18831933060807
H           -5.57645108455160        1.63715897236588       -2.20175742786292
H           -3.52823991632648        1.30535537065868       -3.53692941167168
H           -1.75324025903582       -0.08593903396629       -2.62762382351025
H            2.48760192216541        3.72883395124004       -0.64590519549437
H            2.55106164388064        5.40734583518258        1.17609412935676
H            2.73454363108600        4.65828195161611        3.52021367769244
H            2.86336698553964        2.25356470264308        4.04096845285541
H            2.77616690254030        0.58880430330821        2.23005319983860
H            1.89798922660302       -1.54903811530958        0.95566572292156
H            3.32625717804922       -3.45825069101361        1.51177148945886
H            5.62894042044385       -3.58600307024839        0.64141179217680
H            6.50494965412769       -1.78164910421743       -0.79817993562418
H            5.05049875023919        0.14682665426606       -1.36833221176332
H            0.52974728888422        0.01649405110621        1.31872418962963
H           -1.17263191439451        1.62972336088715        1.90881637629047

 projected vibrational frequencies (cm⁻¹)
eigval :       -0.00    -0.00     0.00     0.00     0.00     0.00
eigval :       16.61    23.56    31.03    33.12    34.49    48.50
eigval :       53.28    60.49    68.51    76.33    81.50   100.87
eigval :      114.95   118.85   132.16   154.24   156.09   169.05
eigval :      171.37   194.04   195.36   201.61   214.26   228.95
eigval :      233.87   245.21   258.05   262.56   278.18   290.52
eigval :      304.10   312.63   334.25   354.25   363.99   365.34
eigval :      372.04   374.40   386.56   398.12   418.15   418.76
eigval :      429.95   440.33   448.19   462.21   470.94   492.58
eigval :      498.76   503.49   517.04   519.11   534.39   538.52
eigval :      555.21   582.65   585.83   586.97   596.52   604.61
eigval :      634.45   649.39   651.76   657.50   658.28   671.41
eigval :      688.12   693.32   713.30   713.68   718.62   720.45
eigval :      735.41   742.31   746.16   756.39   772.90   783.20
eigval :      790.17   823.78   859.89   865.39   875.15   879.18
eigval :      879.91   881.93   884.49   896.30   900.95   901.10
eigval :      903.68   904.93   907.28   917.00   917.64   927.86
eigval :      928.81   929.56   931.36   934.35   935.01   942.88
eigval :      972.29   974.82   994.70  1010.59  1045.65  1048.98
eigval :     1051.22  1079.34  1080.27  1097.45  1103.26  1108.45
eigval :     1113.72  1116.85  1120.69  1121.71  1125.86  1129.60
eigval :     1156.50  1163.31  1170.13  1170.46  1178.64  1179.39
eigval :     1180.38  1181.41  1189.87  1191.92  1193.95  1201.44
eigval :     1208.08  1229.66  1240.41  1242.24  1247.00  1251.42
eigval :     1259.79  1268.59  1269.97  1279.55  1286.79  1301.63
eigval :     1309.44  1311.78  1321.71  1322.40  1323.31  1331.72
eigval :     1347.93  1354.09  1377.85  1391.31  1408.72  1422.02
eigval :     1423.91  1424.31  1438.65  1454.31  1455.32  1456.82
eigval :     1464.21  1470.23  1473.59  1479.55  1554.13  1569.64
eigval :     1570.72  1573.55  1582.65  1583.27  1584.99  1586.79
eigval :     1587.53  1635.74  2739.44  2927.95  2940.12  2949.23
eigval :     2978.59  3052.38  3069.85  3075.86  3075.95  3077.87
eigval :     3079.72  3081.98  3084.33  3085.50  3087.17  3087.68
eigval :     3090.20  3092.37  3094.33  3095.04  3095.68  3096.70
eigval :     3099.03  3104.29  3104.57  3105.02  3109.13  3119.70

   temp. (K)  partition function   enthalpy   heat capacity  entropy
                                   cal/mol     cal/K/mol   cal/K/mol   J/K/mol
 298.15  VIB  0.440E+15            20399.024    130.538    124.817
         ROT  0.344E+08              888.752      2.981     37.465
         INT  0.151E+23            21287.777    133.519    162.282
         TR   0.136E+29             1481.254      4.968     44.946
         TOT                       22769.0304   138.4873   207.2282   867.0430

       T/K    H(0)-H(T)+PV         H(T)/Eh          T*S/Eh         G(T)/Eh
   ------------------------------------------------------------------------
    298.15    0.362848E-01    0.567035E+00    0.984608E-01    0.468575E+00
   ------------------------------------------------------------------------

         :::::::::::::::::::::::::::::::::::::::::::::::::::::
         ::                  THERMODYNAMIC                  ::
         :::::::::::::::::::::::::::::::::::::::::::::::::::::
         :: total free energy        -109.830944105771 Eh   ::
         ::.................................................::
         :: total energy             -110.299518628479 Eh   ::
         :: zero point energy           0.530750587161 Eh   ::
         :: G(RRHO) w/o ZPVE           -0.062176064454 Eh   ::
         :: G(RRHO) contrib.            0.468574522708 Eh   ::
         :::::::::::::::::::::::::::::::::::::::::::::::::::::

           -------------------------------------------------
          | TOTAL ENERGY             -110.299518628479 Eh   |
          | TOTAL ENTHALPY           -109.732483281712 Eh   |
          | TOTAL FREE ENERGY        -109.830944105771 Eh   |
          | GRADIENT NORM               0.000036024437 Eh/α |
           -------------------------------------------------

 * finished run on 2025/07/16 at 09:31:13.729
