   * xtb version 6.7.1 (edcfbbe) compiled by 'albert@albert-system' on 2024-07-22

   ID    Z sym.   atoms
    1    8 O      1, 28
    2    6 C      2-12, 14-19, 21-26, 29-42
    3    7 N      13
    4   16 S      20
    5   15 P      27
    6    1 H      43-70

          program call               : xtb data2507/gas/OPDPO/OPDPO.xyz --gfn 2 --ohess vtight --parallel 40 --molden --ceasefiles --namespace data2507/gas/OPDPO/OPDPO_gas_S0_preOpt
          :  Hamiltonian                  GFN2-xTB          :
 * total energy  :  -110.2962078 Eh     change       -0.3015927E-08 Eh
 * total energy  :  -110.3167330 Eh     change       -0.2052524E-01 Eh
 * total energy  :  -110.3253541 Eh     change       -0.8621022E-02 Eh
 * total energy  :  -110.3276431 Eh     change       -0.2289074E-02 Eh
 * total energy  :  -110.3290618 Eh     change       -0.1418629E-02 Eh
 * total energy  :  -110.3298728 Eh     change       -0.8110222E-03 Eh
 * total energy  :  -110.3304181 Eh     change       -0.5453116E-03 Eh
 * total energy  :  -110.3308117 Eh     change       -0.3936435E-03 Eh
 * total energy  :  -110.3311567 Eh     change       -0.3449626E-03 Eh
 * total energy  :  -110.3314187 Eh     change       -0.2619571E-03 Eh
 * total energy  :  -110.3324871 Eh     change       -0.1539594E-06 Eh
 * total energy  :  -110.3324873 Eh     change       -0.1508356E-06 Eh
 * total energy  :  -110.3324874 Eh     change       -0.1447371E-06 Eh
 * total energy  :  -110.3324876 Eh     change       -0.1465801E-06 Eh
 * total energy  :  -110.3324877 Eh     change       -0.1445311E-06 Eh
 * total energy  :  -110.3324879 Eh     change       -0.1428773E-06 Eh
 * total energy  :  -110.3324880 Eh     change       -0.1435813E-06 Eh
 * total energy  :  -110.3324882 Eh     change       -0.1436607E-06 Eh
 * total energy  :  -110.3324882 Eh     change       -0.1527127E-08 Eh
   *** GEOMETRY OPTIMIZATION CONVERGED AFTER 68 ITERATIONS ***

 final structure:
================
70
 xtb: 6.7.1 (edcfbbe)
O           -4.25294099780391       -3.78846649453121        1.03448306252731
C           -3.10242094757215       -4.10203027321261        1.21931240609141
C           -1.98650178236650       -3.17145881479660        1.37451660068128
C           -2.19318659000589       -1.84412813741867        1.48955635573996
C           -1.03557900281543       -0.93047873858157        1.66889559753490
C            0.18316221194591       -1.41189009780306        0.87676426535337
C            0.11824441783708       -1.33331253676048       -0.63048576092746
C            0.80403706184753       -2.31678726302831       -1.35313791794042
C            0.82170960719267       -2.35219393911196       -2.73209540217436
C            0.12799365965403       -1.39813809191390       -3.45646391401713
C           -0.56082519144192       -0.42008101028539       -2.77162039671937
C           -0.56023306593503       -0.36627859474717       -1.37722800618235
N           -1.30440295543123        0.68560329912129       -0.76324357431732
C           -2.67829404783330        0.44284737990054       -0.59087695077361
C           -3.28582268280704       -0.69298141735229       -1.12406689527976
C           -4.62986553239798       -0.94756139398699       -0.91402680596356
C           -5.40407588606277       -0.06736526121516       -0.18048602837823
C           -4.82029505608084        1.07014435262599        0.34866362694669
C           -3.47131157087302        1.31358694954138        0.15717917328581
S           -2.74554913149722        2.73426171939403        0.93352241783171
C           -1.47840995013730        3.05480233847917       -0.26097679012439
C           -1.09551548111242        4.36737287307310       -0.46889894757196
C           -0.04366022728022        4.66179279840177       -1.31729321787222
C            0.63261320819463        3.62527979893195       -1.93226395839341
C            0.23604865223672        2.31395471926445       -1.74216918030547
C           -0.85100203532109        1.99912115236135       -0.92830874733638
P            1.65755594414235       -0.52155593851537        1.64723269639168
O            1.77757386926691       -0.92114171546946        3.05402001367755
C            3.08562373686358       -1.01375562490504        0.63270598980864
C            4.06582814244513       -1.75472111410661        1.27947751672079
C            5.17597912405533       -2.19988948485523        0.58425292947324
C            5.30839930483573       -1.90331164582417       -0.76224654439634
C            4.33431665175443       -1.15940071135933       -1.40969035404208
C            3.22260070287778       -0.71365854869487       -0.71824962547501
C            1.48243729522428        1.29206485539872        1.51938537349710
C            0.60586457377446        1.88157066208068        2.42417519600650
C            0.50303714578835        3.25709281797844        2.50300602181158
C            1.30108912275554        4.05548053255646        1.70075276651862
C            2.20150959714231        3.47278683683272        0.82658001406436
C            2.29226122306933        2.09507978502536        0.73011471913435
C            0.41217074599775       -2.85102823072204        1.29421324708308
C           -0.62084149486460       -3.66835037902779        1.48005049780737
H           -2.80723121188619       -5.16973631420302        1.27407755608823
H           -3.19686621506838       -1.44890225774910        1.51904073573855
H           -1.29169140732487        0.10297580100789        1.45338907580532
H           -0.74294311685298       -0.98417039855957        2.72987039520044
H            1.34210874860016       -3.08175546762692       -0.81688335689434
H            1.37069068947405       -3.13098155254435       -3.23912939818938
H            0.11610731393646       -1.42026802652893       -4.53534951635005
H           -1.12686967900583        0.32708793861834       -3.31053474980349
H           -2.69989764445429       -1.39687153001860       -1.69380910963137
H           -5.06461310571329       -1.84765498772726       -1.31825413713663
H           -6.45016705266556       -0.26634767725947       -0.01126925779415
H           -5.39597506775807        1.76962464393344        0.93503969348380
H           -1.62112540325394        5.15011923831291        0.05602117182288
H            0.25258845339052        5.68638568685896       -1.47789092485635
H            1.47542019150059        3.83064773523764       -2.57499939171857
H            0.78325738409069        1.52601986348838       -2.23523273420941
H            3.93976230290801       -1.96776950610594        2.33163444746805
H            5.93623303935653       -2.77658145156524        1.09003949321525
H            6.17270697047270       -2.24978657551326       -1.30945316192259
H            4.44039660116299       -0.92729374159188       -2.45944710286349
H            2.46415288585304       -0.13910013957609       -1.22815112408370
H            0.02654016655350        1.25748089151125        3.08767450259324
H           -0.19137913454707        3.70558364375480        3.19746997580940
H            1.23340568498687        5.13085515546969        1.76879497327210
H            2.84344266031721        4.09312239411837        0.21882097789393
H            3.01018909635133        1.65426390719112        0.05561159202483
H            1.43225194719289       -3.19178353348621        1.41009943904368
H           -0.47981546687887       -4.70804015218056        1.73778846618801

          :  Hamiltonian                  GFN2-xTB          :
         :: gradient norm              0.000030258751 Eh/a0 ::
         :: HOMO-LUMO gap              1.514719079189 eV    ::
         :: SCC energy              -112.222366893944 Eh    ::
         :: -> dispersion             -0.124707660229 Eh    ::
         :: repulsion energy           1.889878727657 Eh    ::

    * Orbital Energies and Occupations

         #    Occupation            Energy/Eh            Energy/eV
      -------------------------------------------------------------
         1        2.0000           -0.7189693             -19.5641
       ...           ...                  ...                  ...
        90        2.0000           -0.4245659             -11.5530
        91        2.0000           -0.4226950             -11.5021
        92        2.0000           -0.4212460             -11.4627
        93        2.0000           -0.4179449             -11.3729
        94        2.0000           -0.4167777             -11.3411
        95        2.0000           -0.4128080             -11.2331
        96        2.0000           -0.4096058             -11.1459
        97        2.0000           -0.4077789             -11.0962
        98        2.0000           -0.4000647             -10.8863
        99        2.0000           -0.3952828             -10.7562
       100        2.0000           -0.3937114             -10.7134
       101        2.0000           -0.3828874             -10.4189
       102        2.0000           -0.3483774              -9.4798 (HOMO)
       103                         -0.2927125              -7.9651 (LUMO)
       104                         -0.2598885              -7.0719
       105                         -0.2491795              -6.7805
       106                         -0.2479264              -6.7464
       107                         -0.2455038              -6.6805
       108                         -0.2412638              -6.5651
       109                         -0.2403100              -6.5392
       110                         -0.2386405              -6.4937
       111                         -0.2365343              -6.4364
       112                         -0.2310360              -6.2868
       113                         -0.2301764              -6.2634
       ...                                ...                  ...
       206                          1.2268480              33.3842
      -------------------------------------------------------------
                  HL-Gap            0.0556649 Eh            1.5147 eV

     #   Z          covCN         q      C6AA      α(0)
     1   8 O        0.856    -0.346    20.628     6.089
     2   6 C        2.767     0.206    23.627     7.960
     3   6 C        2.960    -0.020    28.509     8.758
     4   6 C        2.912    -0.005    28.139     8.698
     5   6 C        3.944    -0.053    21.446     6.581
     6   6 C        3.866     0.028    20.069     6.370
     7   6 C        3.007     0.001    27.986     8.678
     8   6 C        2.931    -0.035    28.877     8.813
     9   6 C        2.919    -0.031    28.764     8.795
    10   6 C        2.917    -0.032    28.802     8.801
    11   6 C        2.926    -0.038    28.950     8.824
    12   6 C        2.932     0.062    26.621     8.462
    13   7 N        2.748    -0.092    23.032     7.128
    14   6 C        2.961     0.060    26.661     8.469
    15   6 C        2.925    -0.052    29.295     8.876
    16   6 C        2.919    -0.027    28.678     8.782
    17   6 C        2.919    -0.035    28.861     8.810
    18   6 C        2.968    -0.038    28.951     8.826
    19   6 C        2.973     0.031    27.297     8.570
    20  16 S        2.125    -0.166   148.051    20.479
    21   6 C        2.974     0.031    27.304     8.571
    22   6 C        2.974    -0.039    28.958     8.827
    23   6 C        2.919    -0.040    28.990     8.829
    24   6 C        2.920    -0.034    28.841     8.807
    25   6 C        2.926    -0.056    29.397     8.892
    26   6 C        2.955     0.061    26.632     8.464
    27  15 P        4.262     0.066   157.310    22.530
    28   8 O        0.808    -0.364    21.004     6.143
    29   6 C        2.920     0.012    27.737     8.637
    30   6 C        3.039    -0.020    28.476     8.753
    31   6 C        2.918    -0.027    28.675     8.781
    32   6 C        2.920    -0.024    28.603     8.770
    33   6 C        2.920    -0.028    28.702     8.785
    34   6 C        2.967    -0.024    28.605     8.773
    35   6 C        2.919     0.015    27.675     8.627
    36   6 C        3.036    -0.018    28.412     8.743
    37   6 C        2.919    -0.024    28.595     8.769
    38   6 C        2.921    -0.023    28.573     8.766
    39   6 C        2.921    -0.026    28.650     8.777
    40   6 C        2.968    -0.026    28.649     8.780
    41   6 C        3.094    -0.022    28.434     8.740
    42   6 C        2.909    -0.037    28.930     8.820
    43   1 H        0.922     0.013     2.839     2.635
    44   1 H        0.926     0.066     2.128     2.281
    45   1 H        0.925     0.065     2.140     2.288
    46   1 H        0.923     0.087     1.908     2.160
    47   1 H        0.926     0.038     2.472     2.459
    48   1 H        0.926     0.038     2.473     2.459
    49   1 H        0.926     0.039     2.459     2.452
    50   1 H        0.925     0.041     2.436     2.441
    51   1 H        0.926     0.030     2.590     2.516
    52   1 H        0.926     0.047     2.363     2.404
    53   1 H        0.926     0.043     2.410     2.428
    54   1 H        0.926     0.046     2.370     2.407
    55   1 H        0.926     0.044     2.399     2.422
    56   1 H        0.926     0.036     2.508     2.476
    57   1 H        0.926     0.033     2.540     2.492
    58   1 H        0.926     0.029     2.595     2.519
    59   1 H        0.926     0.066     2.127     2.281
    60   1 H        0.926     0.041     2.429     2.437
    61   1 H        0.926     0.039     2.456     2.451
    62   1 H        0.926     0.036     2.506     2.476
    63   1 H        0.926     0.037     2.491     2.468
    64   1 H        0.926     0.058     2.226     2.333
    65   1 H        0.926     0.046     2.370     2.408
    66   1 H        0.926     0.040     2.451     2.448
    67   1 H        0.926     0.037     2.490     2.468
    68   1 H        0.926     0.039     2.460     2.453
    69   1 H        0.925     0.050     2.319     2.381
    70   1 H        0.926     0.043     2.415     2.430

molecular dipole:
                 x           y           z       tot (Debye)
 q only:        1.373       0.422      -1.396
   full:        1.630       0.300      -1.941       6.488

 projected vibrational frequencies (cm⁻¹)
eigval :       -0.00    -0.00    -0.00    -0.00     0.00     0.00
eigval :       14.69    20.30    27.23    34.96    37.00    43.88
eigval :       49.95    51.93    66.78    83.83    93.21    95.43
eigval :      103.48   109.06   116.39   122.21   150.97   158.96
eigval :      171.02   172.79   187.36   199.67   204.24   213.06
eigval :      219.94   231.08   235.04   244.34   267.55   286.06
eigval :      295.34   298.72   321.25   351.55   354.19   367.55
eigval :      373.51   379.44   383.84   397.30   404.45   407.74
eigval :      418.99   421.66   443.55   457.03   460.58   491.37
eigval :      497.17   501.90   507.29   509.49   517.57   535.56
eigval :      547.02   568.27   584.35   585.58   586.53   588.74
eigval :      603.80   647.16   649.43   657.49   661.86   664.27
eigval :      667.98   680.09   689.47   712.28   719.77   721.01
eigval :      740.27   749.04   749.73   769.30   772.93   781.61
eigval :      789.27   832.03   851.63   862.89   865.01   873.79
eigval :      882.72   887.76   898.21   900.45   901.33   902.26
eigval :      903.43   905.86   915.15   916.43   916.78   919.42
eigval :      924.53   926.11   926.32   933.07   934.70   935.96
eigval :      945.66   958.71   972.14   975.17  1001.41  1036.97
eigval :     1042.00  1044.95  1077.73  1083.97  1100.95  1102.46
eigval :     1106.69  1112.56  1115.83  1118.84  1122.49  1124.28
eigval :     1133.45  1153.75  1160.18  1165.53  1179.53  1180.15
eigval :     1180.39  1181.00  1182.05  1189.84  1191.82  1197.18
eigval :     1200.53  1207.70  1232.37  1242.53  1251.86  1255.08
eigval :     1257.24  1264.08  1266.70  1275.27  1286.15  1290.82
eigval :     1298.17  1311.77  1319.29  1321.91  1323.26  1332.34
eigval :     1351.45  1395.18  1412.45  1413.78  1420.57  1423.80
eigval :     1424.43  1439.32  1451.65  1452.51  1456.04  1468.64
eigval :     1476.22  1559.23  1568.81  1570.12  1577.50  1581.01
eigval :     1584.02  1586.49  1588.11  1589.28  1593.89  1599.04
eigval :     1660.85  1736.83  2748.37  2862.70  3041.64  3047.35
eigval :     3075.16  3076.42  3077.10  3077.15  3078.98  3083.20
eigval :     3083.48  3084.43  3087.97  3090.13  3090.77  3092.92
eigval :     3094.68  3094.87  3095.87  3097.25  3098.68  3099.22
eigval :     3099.38  3100.95  3105.94  3106.01  3113.85  3114.94

   temp. (K)  partition function   enthalpy   heat capacity  entropy
                                   cal/mol     cal/K/mol   cal/K/mol   J/K/mol
 298.15  VIB  0.180E+16            20790.791    131.317    128.130
         ROT  0.324E+08              888.752      2.981     37.351
         INT  0.583E+23            21679.543    134.298    165.480
         TR   0.136E+29             1481.254      4.968     44.946
         TOT                       23160.7972   139.2663   210.4261   880.4228

       T/K    H(0)-H(T)+PV         H(T)/Eh          T*S/Eh         G(T)/Eh
   ------------------------------------------------------------------------
    298.15    0.369091E-01    0.567922E+00    0.999802E-01    0.467942E+00
   ------------------------------------------------------------------------

         :::::::::::::::::::::::::::::::::::::::::::::::::::::
         ::                  THERMODYNAMIC                  ::
         :::::::::::::::::::::::::::::::::::::::::::::::::::::
         :: total free energy        -109.864546072521 Eh   ::
         ::.................................................::
         :: total energy             -110.332488166287 Eh   ::
         :: zero point energy           0.531013247418 Eh   ::
         :: G(RRHO) w/o ZPVE           -0.063071153652 Eh   ::
         :: G(RRHO) contrib.            0.467942093766 Eh   ::
         :::::::::::::::::::::::::::::::::::::::::::::::::::::

           -------------------------------------------------
          | TOTAL ENERGY             -110.332488166287 Eh   |
          | TOTAL ENTHALPY           -109.764565839212 Eh   |
          | TOTAL FREE ENERGY        -109.864546072521 Eh   |
          | GRADIENT NORM               0.000030267580 Eh/α |
          | HOMO-LUMO GAP               1.514718747568 eV   |
           -------------------------------------------------

 * finished run on 2025/07/16 at 09:21:16.034
