   * xtb version 6.7.1 (edcfbbe) compiled by 'albert@albert-system' on 2024-07-22

   ID    Z sym.   atoms
    1    8 O      1, 28
    2    6 C      2-12, 14-19, 21-26, 29-42
    3    7 N      13
    4   16 S      20
    5   15 P      27
    6    1 H      43-70

          program call               : xtb data2507/gas/OPDPO/OPDPO_gas_S0_finalOpt.xtbopt.xyz --gfn 2 --spinpol --tblite --uhf 2 --ohess vtight --parallel 40 --molden --ceasefiles --namespace data2507/gas/OPDPO/OPDPO_gas_T1_preOpt
 * total energy  :  -110.2561052 Eh     change       -0.2927273E-07 Eh
 * total energy  :  -110.2637185 Eh     change       -0.7613243E-02 Eh
 * total energy  :  -110.2664213 Eh     change       -0.2702850E-02 Eh
 * total energy  :  -110.2667055 Eh     change       -0.2841497E-03 Eh
 * total energy  :  -110.2668858 Eh     change       -0.1803696E-03 Eh
 * total energy  :  -110.2669906 Eh     change       -0.1047638E-03 Eh
 * total energy  :  -110.2671263 Eh     change       -0.1356912E-03 Eh
 * total energy  :  -110.2672795 Eh     change       -0.1532214E-03 Eh
 * total energy  :  -110.2674782 Eh     change       -0.1986732E-03 Eh
 * total energy  :  -110.2676787 Eh     change       -0.2004854E-03 Eh
 * total energy  :  -110.2995160 Eh     change       -0.4529789E-06 Eh
 * total energy  :  -110.2995165 Eh     change       -0.5010406E-06 Eh
 * total energy  :  -110.2995171 Eh     change       -0.5156384E-06 Eh
 * total energy  :  -110.2995175 Eh     change       -0.4315810E-06 Eh
 * total energy  :  -110.2995178 Eh     change       -0.2885042E-06 Eh
 * total energy  :  -110.2995180 Eh     change       -0.1914589E-06 Eh
 * total energy  :  -110.2995181 Eh     change       -0.1430260E-06 Eh
 * total energy  :  -110.2995182 Eh     change       -0.1181481E-06 Eh
 * total energy  :  -110.2995183 Eh     change       -0.9627003E-07 Eh
   *** GEOMETRY OPTIMIZATION CONVERGED AFTER 87 ITERATIONS ***

 final structure:
================
70
 xtb: 6.7.1 (edcfbbe)
O           -3.72201491807113        3.23125460353312       -1.08859558291710
C           -3.02612855971843        2.76330489343031       -0.20152640052114
C           -1.92309198588860        1.87722672107339       -0.39733701954503
C           -1.61174932714876        1.36355428577183       -1.76586113448190
C           -0.10017143635669        1.29863716603517       -1.93865405225500
C            0.57190737736999        0.40381309072712       -0.88615709302463
C            0.56434082951455       -1.02202801112270       -1.37149347428449
C            1.53751490744690       -1.46984732666685       -2.25746202131614
C            1.50340139751938       -2.75453324605422       -2.76668623707588
C            0.47606952872299       -3.61453575402048       -2.41427815239140
C           -0.51354282124285       -3.17857759892511       -1.55451706217539
C           -0.47112622066123       -1.89018441984652       -1.03199296231842
N           -1.50856199159358       -1.48490559597252       -0.14338692634637
C           -1.49011378165651       -2.03958904947289        1.13186728167173
C           -0.38783498269044       -2.79913726415456        1.54285978053499
C           -0.30319985257375       -3.32327618732642        2.81785600284033
C           -1.31800119578570       -3.10390771537770        3.73350550765184
C           -2.41632431651424       -2.35823922347050        3.34862920947212
C           -2.50842107537652       -1.82889107496580        2.06944963977376
S           -3.97026529509558       -0.91278104385053        1.71208706607827
C           -3.71760121472654       -0.46109067135994        0.01842150649058
C           -4.81496408200252        0.13311898168983       -0.60270219132273
C           -4.77766773755849        0.39271009270913       -1.98259157652619
C           -3.62571257087816        0.24143962046768       -2.67240466477703
C           -2.33470892475160       -0.03932067502294       -1.98182472637891
C           -2.54240519256845       -0.72178885660207       -0.65612495613757
P            2.35415288806205        1.04004639305063       -0.81301692741038
O            2.83838642574063        1.55640272215566       -2.09831932706301
C            2.30528493823784        2.33661760289201        0.46551439383631
C            2.12804954033796        3.63842228943246        0.01622516622011
C            2.05651635004339        4.68215637704726        0.92082055040755
C            2.17463797059739        4.42672237930587        2.27685058212779
C            2.37802114691405        3.13121772031089        2.72547814538704
C            2.44411832432317        2.08469314505308        1.82412400954308
C            3.41067138438616       -0.28586941252768       -0.13670328664925
C            3.01135980270417       -1.24212127500499        0.78733557049444
C            3.91511233154278       -2.19181612082554        1.22868093525100
C            5.21800115784179       -2.18932046596064        0.75765446523085
C            5.62009127317930       -1.23488556527414       -0.16214148324238
C            4.71735014988773       -0.28712608395054       -0.60821494289399
C           -0.04269405765876        0.61627519737331        0.45464204305938
C           -1.12878874096529        1.41411442385476        0.65841867585905
H           -3.21035324179460        3.03261846138141        0.85842487945049
H           -2.03167709360156        2.05175556445417       -2.50535910209546
H            0.17092587503380        0.95590988952062       -2.93935140225219
H            0.29047112427339        2.31497257151014       -1.82113606902711
H            2.32354557457905       -0.79442193534348       -2.56081520928266
H            2.27596520743129       -3.08160004085899       -3.44531135439016
H            0.43884306957775       -4.61609486684586       -2.81401833692990
H           -1.33040337538391       -3.82839988777859       -1.27620269881357
H            0.41563233310366       -2.98604274062464        0.84774982713729
H            0.56380875739572       -3.90458678656774        3.09279839725945
H           -1.25858903183810       -3.50720008436191        4.73177265401899
H           -3.22632691949072       -2.17295561872165        4.03729301745109
H           -5.70733582786766        0.31498572684003       -0.02787229985325
H           -5.68424682047184        0.69734288876925       -2.48075209042626
H           -3.57397959458423        0.43474667307677       -3.73200288067810
H           -1.68901221234870       -0.63739650053624       -2.63202210585006
H            2.06712145267001        3.82115646316304       -1.04715033745805
H            1.91226142135238        5.69298901457877        0.56943628442751
H            2.11947138850306        5.23917375900156        2.98621691137183
H            2.48769271878987        2.93680397279378        3.78247300596078
H            2.61759750766232        1.07743592359654        2.17519719698809
H            1.99821562077026       -1.26052212723191        1.15827079084320
H            3.60004501984387       -2.93746364268255        1.94423072597846
H            5.91831255210887       -2.93362943476047        1.10670926071762
H            6.63475513143545       -1.23140188372162       -0.53178478277271
H            5.00523983039806        0.45989300798829       -1.33418237984850
H            0.45803438905175        0.18051984947519        1.30627564085718
H           -1.42262891162433        1.65675929758378        1.67163792411621

 projected vibrational frequencies (cm⁻¹)
eigval :       -0.00    -0.00    -0.00    -0.00     0.00     0.00
eigval :       17.54    23.49    30.82    32.87    34.70    48.65
eigval :       53.14    60.65    68.62    76.27    81.77   101.31
eigval :      114.81   119.15   132.35   154.12   156.13   169.32
eigval :      171.78   194.04   195.77   201.79   214.37   229.13
eigval :      233.65   245.54   258.22   262.44   278.21   290.52
eigval :      304.04   312.63   334.38   354.35   364.19   365.37
eigval :      372.30   374.30   386.57   398.19   418.24   418.81
eigval :      430.15   440.41   448.36   462.16   470.93   492.47
eigval :      498.99   503.42   517.12   519.12   534.43   538.42
eigval :      555.34   582.59   585.84   587.04   596.59   604.67
eigval :      634.97   649.37   651.96   657.48   658.33   671.61
eigval :      688.27   693.51   713.48   713.95   718.69   720.80
eigval :      735.41   742.47   746.32   756.69   773.05   783.32
eigval :      790.38   823.71   859.95   865.59   875.36   879.32
eigval :      879.98   882.02   884.72   896.30   901.15   901.22
eigval :      903.72   905.13   907.55   917.23   917.79   927.93
eigval :      928.95   929.77   931.44   934.47   935.16   942.93
eigval :      972.32   974.86   994.58  1010.70  1045.89  1049.51
eigval :     1051.37  1079.42  1080.33  1097.40  1103.17  1108.27
eigval :     1113.66  1116.95  1120.57  1121.92  1125.89  1129.26
eigval :     1156.39  1163.33  1170.14  1170.47  1178.88  1179.54
eigval :     1180.51  1181.64  1189.77  1191.98  1194.14  1201.58
eigval :     1208.26  1229.63  1240.53  1242.49  1247.06  1251.52
eigval :     1259.67  1268.59  1269.97  1279.52  1286.92  1301.70
eigval :     1309.35  1311.79  1321.71  1322.37  1323.21  1331.72
eigval :     1348.25  1353.94  1378.25  1391.40  1409.23  1422.20
eigval :     1423.96  1424.57  1438.37  1454.58  1455.21  1457.29
eigval :     1464.20  1470.36  1473.85  1479.71  1554.14  1569.55
eigval :     1570.71  1573.52  1582.64  1583.21  1584.97  1586.83
eigval :     1587.58  1635.87  2739.71  2927.99  2940.22  2949.33
eigval :     2978.53  3052.60  3069.96  3075.79  3075.87  3077.83
eigval :     3079.75  3081.41  3084.31  3085.30  3087.07  3087.43
eigval :     3090.00  3092.60  3094.19  3095.00  3095.55  3096.46
eigval :     3098.59  3104.35  3104.50  3104.91  3109.02  3119.71

   temp. (K)  partition function   enthalpy   heat capacity  entropy
                                   cal/mol     cal/K/mol   cal/K/mol   J/K/mol
 298.15  VIB  0.414E+15            20392.794    130.524    124.728
         ROT  0.344E+08              888.752      2.981     37.465
         INT  0.142E+23            21281.547    133.505    162.193
         TR   0.136E+29             1481.254      4.968     44.946
         TOT                       22762.8005   138.4731   207.1386   866.6681

       T/K    H(0)-H(T)+PV         H(T)/Eh          T*S/Eh         G(T)/Eh
   ------------------------------------------------------------------------
    298.15    0.362748E-01    0.567058E+00    0.984183E-01    0.468640E+00
   ------------------------------------------------------------------------

         :::::::::::::::::::::::::::::::::::::::::::::::::::::
         ::                  THERMODYNAMIC                  ::
         :::::::::::::::::::::::::::::::::::::::::::::::::::::
         :: total free energy        -109.830878653722 Eh   ::
         ::.................................................::
         :: total energy             -110.299518292470 Eh   ::
         :: zero point energy           0.530783058648 Eh   ::
         :: G(RRHO) w/o ZPVE           -0.062143419900 Eh   ::
         :: G(RRHO) contrib.            0.468639638748 Eh   ::
         :::::::::::::::::::::::::::::::::::::::::::::::::::::

           -------------------------------------------------
          | TOTAL ENERGY             -110.299518292470 Eh   |
          | TOTAL ENTHALPY           -109.732460402303 Eh   |
          | TOTAL FREE ENERGY        -109.830878653722 Eh   |
          | GRADIENT NORM               0.000050655553 Eh/α |
           -------------------------------------------------

 * finished run on 2025/07/16 at 09:25:40.747
