   * xtb version 6.7.1 (edcfbbe) compiled by 'albert@albert-system' on 2024-07-22

   ID    Z sym.   atoms
    1    6 C      1-13, 15-37
    2    7 N      14
    3    1 H      38-68

          program call               : xtb data2507/toluene/F2PA/F2PA.xyz --gfn 2 --gbsa toluene --ohess vtight --parallel 40 --molden --ceasefiles --namespace data2507/toluene/F2PA/F2PA_toluene_S0_preOpt
      * Solvation model:               GBSA
        Solvent                        toluene
        Solvent mass                       9.2140E+01 g/mol
          :  Hamiltonian                  GFN2-xTB          :
 * total energy  :   -95.9034621 Eh     change       -0.2330268E-08 Eh
 * total energy  :   -95.9126596 Eh     change       -0.9197541E-02 Eh
 * total energy  :   -95.9157632 Eh     change       -0.3103541E-02 Eh
 * total energy  :   -95.9164614 Eh     change       -0.6982231E-03 Eh
 * total energy  :   -95.9167249 Eh     change       -0.2634756E-03 Eh
 * total energy  :   -95.9168189 Eh     change       -0.9402542E-04 Eh
 * total energy  :   -95.9168962 Eh     change       -0.7731177E-04 Eh
 * total energy  :   -95.9169327 Eh     change       -0.3647588E-04 Eh
 * total energy  :   -95.9170038 Eh     change       -0.7110036E-04 Eh
 * total energy  :   -95.9170371 Eh     change       -0.3334180E-04 Eh
 * total energy  :   -95.9171649 Eh     change       -0.6723943E-06 Eh
 * total energy  :   -95.9171655 Eh     change       -0.6228884E-06 Eh
 * total energy  :   -95.9171661 Eh     change       -0.5866139E-06 Eh
 * total energy  :   -95.9171667 Eh     change       -0.5549887E-06 Eh
 * total energy  :   -95.9171672 Eh     change       -0.4901796E-06 Eh
 * total energy  :   -95.9171676 Eh     change       -0.4088661E-06 Eh
 * total energy  :   -95.9171679 Eh     change       -0.3282204E-06 Eh
 * total energy  :   -95.9171682 Eh     change       -0.2773839E-06 Eh
 * total energy  :   -95.9171682 Eh     change       -0.3040768E-08 Eh
   *** GEOMETRY OPTIMIZATION CONVERGED AFTER 44 ITERATIONS ***

 final structure:
================
68
 xtb: 6.7.1 (edcfbbe)
C           -3.55910470985294       -1.74150165389982       -2.18591977812774
C           -3.72142791213407       -1.65825563865832       -0.66443188141317
C           -3.12005315905881       -2.89856381993281        0.00592002981036
C           -5.17250612959912       -1.47436557878187       -0.27668319344018
C           -6.24260327835416       -2.31085942087931       -0.51000702509601
C           -7.50094562531459       -1.93390505853012       -0.05765750022772
C           -7.68226167469424       -0.73645281863849        0.61710657706050
C           -6.61225609834572        0.11128854632059        0.85594603321394
C           -5.35549993180133       -0.26214485384390        0.40703476854489
C           -4.07051858625218        0.40760381586289        0.50833163694701
C           -3.70941037689775        1.61557708830224        1.08471675659513
C           -2.38595700750473        2.01226696052943        1.04109672291772
C           -1.41826473594188        1.22113608971315        0.41763841556107
N           -0.08070936829776        1.63233406554163        0.38228091783246
C            0.23919042349352        2.98329855804322        0.21176861321930
C           -0.53015696674172        3.79428596189056       -0.62349201680029
C           -0.21054582216920        5.12837088476773       -0.78718219659790
C            0.88283916667992        5.67461946766560       -0.13420668942771
C            1.65349546142159        4.87299838360581        0.69278997906455
C            1.33551882420713        3.54063626946433        0.87149570611264
C            0.94036936301158        0.68556340694669        0.53106785297054
C            0.78627913517181       -0.38043694760045        1.42081002947775
C            1.78436188551838       -1.32261712988929        1.58263579078788
C            2.95673352867220       -1.19420601936712        0.85398455480013
C            3.11612209154809       -0.12561762779293       -0.04202115803321
C            2.11962117611733        0.80565040991299       -0.21198472018176
C            4.46609453721586       -0.19211724885491       -0.72118923962797
C            5.30479082024971        1.04898128079086       -0.39707452397326
C            4.31842232443657       -0.35557641113179       -2.23783185229646
C            5.05830021987047       -1.43491486159452       -0.09277649763041
C            6.28936866588414       -2.01336704447023       -0.31445808809692
C            6.62515406414899       -3.16659040779307        0.38383307029471
C            5.73916996725223       -3.73044005334579        1.28899522107285
C            4.49875010883031       -3.15638417923893        1.51775860007734
C            4.16094046134235       -2.00576423284252        0.82318362744995
C           -1.78700582993084        0.00571174935829       -0.16921641445174
C           -3.10070753784597       -0.39337226322027       -0.11451776472287
H           -2.50593992185444       -1.80543671415039       -2.44944659725518
H           -3.98362181967855       -0.85780573562151       -2.65860434829334
H           -4.06914962949802       -2.62080608347870       -2.57205813130158
H           -3.61640505003919       -3.79795973333543       -0.35071192191312
H           -2.05875341974649       -2.97195062213186       -0.22062318516957
H           -3.24211149204515       -2.83928152893595        1.08584251853682
H           -6.11390791716663       -3.24671922673693       -1.03464541879154
H           -8.34814662947543       -2.58130230811389       -0.23386928035636
H           -8.66980971819208       -0.46177330135068        0.96011347431550
H           -6.75705464123925        1.04386097718778        1.38173494773162
H           -4.44468380647078        2.23774605784625        1.57328202704763
H           -2.08677723784660        2.94450018919455        1.49824693798976
H           -1.37699458670880        3.36965123406314       -1.14293781351419
H           -0.81513994721711        5.74377911949195       -1.43782638289467
H            1.13212975572985        6.71661089108533       -0.26818401510170
H            2.50486250967990        5.29042397695290        1.21086186559567
H            1.93228080931119        2.92175985066710        1.52586688049997
H           -0.12808294961265       -0.45962213445302        1.99093799319972
H            1.65103268853376       -2.13778219323232        2.27845782712296
H            2.23059718905021        1.62576125863566       -0.90622715773191
H            4.82510967406387        1.94156214725684       -0.79230274718725
H            5.41289484647879        1.15992945352221        0.68024875353652
H            6.29486840014208        0.96029310244651       -0.83790319030305
H            3.83008636357829        0.51697553068679       -2.66554442986370
H            3.72050421904681       -1.23612917930456       -2.46528512936443
H            5.29551172394463       -0.47059587664775       -2.70106685022476
H            6.98843995327470       -1.58295041714282       -1.01708206890079
H            7.58795818566238       -3.62927144313056        0.21994758399158
H            6.02008078634533       -4.62778824715932        1.82213617798438
H            3.81088639776937       -3.59833215898820        2.22389201721677
H           -1.03625621015568       -0.60021255352647       -0.65499070027070

          :  Hamiltonian                  GFN2-xTB          :
         :: gradient norm              0.000040902764 Eh/a0 ::
         :: HOMO-LUMO gap              2.510889118590 eV    ::
         :: SCC energy               -97.690758864115 Eh    ::
         :: -> dispersion             -0.089688978701 Eh    ::
         :: -> Gsolv                  -0.037296232751 Eh    ::
         :: repulsion energy           1.773590677244 Eh    ::

    * Orbital Energies and Occupations

         #    Occupation            Energy/Eh            Energy/eV
      -------------------------------------------------------------
         1        2.0000           -0.6627134             -18.0334
       ...           ...                  ...                  ...
        78        2.0000           -0.4133560             -11.2480
        79        2.0000           -0.4120714             -11.2130
        80        2.0000           -0.4114485             -11.1961
        81        2.0000           -0.4106767             -11.1751
        82        2.0000           -0.4100629             -11.1584
        83        2.0000           -0.4052260             -11.0268
        84        2.0000           -0.4014366             -10.9236
        85        2.0000           -0.4002687             -10.8919
        86        2.0000           -0.3948380             -10.7441
        87        2.0000           -0.3942118             -10.7270
        88        2.0000           -0.3875806             -10.5466
        89        2.0000           -0.3775360             -10.2733
        90        2.0000           -0.3438503              -9.3566 (HOMO)
        91                         -0.2515769              -6.8458 (LUMO)
        92                         -0.2443908              -6.6502
        93                         -0.2250832              -6.1248
        94                         -0.2203618              -5.9964
        95                         -0.2199148              -5.9842
        96                         -0.2173747              -5.9151
        97                         -0.2158921              -5.8747
        98                         -0.2152526              -5.8573
        99                         -0.1901882              -5.1753
       100                         -0.1732069              -4.7132
       101                         -0.1101358              -2.9969
       ...                                ...                  ...
       179                          0.7343370              19.9823
      -------------------------------------------------------------
                  HL-Gap            0.0922735 Eh            2.5109 eV

     #   Z          covCN         q      C6AA      α(0)
     1   6 C        3.758    -0.098    22.431     6.752
     2   6 C        3.935     0.018    20.200     6.387
     3   6 C        3.758    -0.098    22.419     6.750
     4   6 C        3.055    -0.003    28.048     8.685
     5   6 C        2.915    -0.035    28.879     8.812
     6   6 C        2.921    -0.036    28.896     8.815
     7   6 C        2.921    -0.035    28.879     8.813
     8   6 C        2.914    -0.037    28.932     8.820
     9   6 C        3.036    -0.002    28.033     8.684
    10   6 C        3.035    -0.011    28.246     8.717
    11   6 C        2.913    -0.036    28.900     8.815
    12   6 C        2.923    -0.053    29.306     8.878
    13   6 C        2.925     0.062    26.609     8.459
    14   7 N        2.753    -0.077    22.739     7.082
    15   6 C        2.923     0.066    26.518     8.445
    16   6 C        2.922    -0.048    29.204     8.862
    17   6 C        2.919    -0.031    28.765     8.795
    18   6 C        2.919    -0.040    28.999     8.831
    19   6 C        2.919    -0.031    28.766     8.795
    20   6 C        2.922    -0.048    29.202     8.862
    21   6 C        2.926     0.062    26.604     8.459
    22   6 C        2.923    -0.052    29.291     8.875
    23   6 C        2.913    -0.036    28.899     8.815
    24   6 C        3.035    -0.010    28.243     8.717
    25   6 C        3.053    -0.001    28.003     8.679
    26   6 C        2.917    -0.052    29.298     8.876
    27   6 C        3.935     0.018    20.200     6.387
    28   6 C        3.758    -0.098    22.422     6.751
    29   6 C        3.758    -0.098    22.430     6.752
    30   6 C        3.055    -0.003    28.049     8.686
    31   6 C        2.915    -0.035    28.879     8.812
    32   6 C        2.921    -0.036    28.895     8.815
    33   6 C        2.921    -0.035    28.878     8.812
    34   6 C        2.914    -0.037    28.932     8.820
    35   6 C        3.036    -0.002    28.034     8.684
    36   6 C        2.918    -0.052    29.295     8.876
    37   6 C        3.054    -0.001    28.002     8.678
    38   1 H        0.925     0.043     2.409     2.427
    39   1 H        0.925     0.034     2.527     2.486
    40   1 H        0.925     0.043     2.403     2.424
    41   1 H        0.925     0.043     2.404     2.425
    42   1 H        0.925     0.043     2.409     2.427
    43   1 H        0.925     0.034     2.532     2.489
    44   1 H        0.926     0.029     2.604     2.524
    45   1 H        0.926     0.028     2.622     2.532
    46   1 H        0.926     0.027     2.635     2.538
    47   1 H        0.926     0.027     2.628     2.535
    48   1 H        0.926     0.031     2.573     2.508
    49   1 H        0.926     0.029     2.596     2.519
    50   1 H        0.926     0.031     2.575     2.510
    51   1 H        0.926     0.032     2.561     2.502
    52   1 H        0.926     0.030     2.580     2.512
    53   1 H        0.926     0.032     2.554     2.499
    54   1 H        0.926     0.031     2.567     2.506
    55   1 H        0.926     0.030     2.584     2.514
    56   1 H        0.926     0.031     2.566     2.505
    57   1 H        0.926     0.031     2.569     2.506
    58   1 H        0.925     0.043     2.409     2.427
    59   1 H        0.925     0.034     2.532     2.488
    60   1 H        0.925     0.043     2.404     2.425
    61   1 H        0.925     0.043     2.410     2.428
    62   1 H        0.925     0.034     2.527     2.486
    63   1 H        0.925     0.043     2.403     2.424
    64   1 H        0.926     0.029     2.605     2.524
    65   1 H        0.926     0.027     2.623     2.533
    66   1 H        0.926     0.027     2.635     2.538
    67   1 H        0.926     0.027     2.625     2.534
    68   1 H        0.926     0.032     2.564     2.504

molecular dipole:
                 x           y           z       tot (Debye)
 q only:        0.350       0.004      -0.463
   full:        0.310       0.021      -0.398       1.283

 projected vibrational frequencies (cm⁻¹)
eigval :       -0.00    -0.00    -0.00     0.00     0.00     0.00
eigval :       14.77    20.37    24.47    26.91    46.99    57.69
eigval :       70.33    82.57    97.23   101.26   118.15   129.65
eigval :      135.81   140.05   157.91   168.60   182.17   198.75
eigval :      202.70   213.83   224.25   226.17   245.25   252.51
eigval :      258.63   261.15   292.52   303.12   313.76   323.74
eigval :      327.00   329.02   338.76   348.54   379.07   394.39
eigval :      418.85   425.10   449.53   464.27   467.65   471.04
eigval :      492.20   516.26   520.73   541.22   542.41   553.39
eigval :      560.04   567.71   569.44   581.96   586.05   591.72
eigval :      613.92   629.64   660.31   661.34   692.35   692.82
eigval :      718.37   721.89   722.24   724.43   743.52   761.28
eigval :      772.57   776.66   777.02   804.22   825.44   831.78
eigval :      842.76   872.41   874.59   876.36   883.52   884.62
eigval :      890.61   904.94   908.94   911.49   916.62   921.75
eigval :      924.69   926.12   927.81   936.57   951.26   963.91
eigval :      965.24   966.25   980.16   985.15  1005.12  1010.55
eigval :     1011.97  1012.72  1068.13  1068.32  1077.45  1078.32
eigval :     1081.67  1111.28  1112.13  1121.10  1147.14  1149.99
eigval :     1157.94  1159.29  1173.02  1173.25  1177.36  1179.02
eigval :     1180.21  1180.82  1195.65  1218.87  1225.99  1226.92
eigval :     1232.46  1244.52  1256.14  1270.48  1270.66  1276.06
eigval :     1284.06  1287.32  1313.54  1319.13  1321.24  1329.56
eigval :     1332.47  1364.99  1371.16  1391.70  1391.81  1408.25
eigval :     1408.55  1429.21  1432.14  1434.23  1436.76  1440.40
eigval :     1454.79  1457.36  1470.42  1472.99  1473.58  1483.64
eigval :     1483.69  1485.97  1486.75  1494.38  1494.57  1498.66
eigval :     1499.73  1570.24  1574.26  1577.44  1591.40  1591.82
eigval :     1593.45  1596.83  1599.57  1607.83  1609.25  3024.27
eigval :     3024.51  3027.58  3028.30  3028.95  3029.45  3031.08
eigval :     3031.23  3035.61  3035.68  3038.42  3038.62  3063.72
eigval :     3064.35  3068.28  3068.44  3069.92  3070.86  3073.69
eigval :     3074.11  3075.40  3075.61  3080.06  3080.93  3081.32
eigval :     3083.61  3083.91  3084.00  3086.39  3087.23  3092.54

   temp. (K)  partition function   enthalpy   heat capacity  entropy
                                   cal/mol     cal/K/mol   cal/K/mol   J/K/mol
 298.15  VIB  0.974E+13            18209.891    117.829    110.786
         ROT  0.411E+08              888.752      2.981     37.819
         INT  0.400E+21            19098.643    120.810    148.605
         TR   0.101E+29             1481.254      4.968     44.359
         TOT                       20579.8968   125.7784   192.9642   807.3621

       T/K    H(0)-H(T)+PV         H(T)/Eh          T*S/Eh         G(T)/Eh
   ------------------------------------------------------------------------
    298.15    0.327962E-01    0.582361E+00    0.916835E-01    0.490677E+00
   ------------------------------------------------------------------------

         :::::::::::::::::::::::::::::::::::::::::::::::::::::
         ::                  THERMODYNAMIC                  ::
         :::::::::::::::::::::::::::::::::::::::::::::::::::::
         :: total free energy         -95.426490920104 Eh   ::
         ::.................................................::
         :: total energy              -95.917168186803 Eh   ::
         :: zero point energy           0.549564619917 Eh   ::
         :: G(RRHO) w/o ZPVE           -0.058887353218 Eh   ::
         :: G(RRHO) contrib.            0.490677266699 Eh   ::
         :::::::::::::::::::::::::::::::::::::::::::::::::::::

           -------------------------------------------------
          | TOTAL ENERGY              -95.917168186803 Eh   |
          | TOTAL ENTHALPY            -95.334807413699 Eh   |
          | TOTAL FREE ENERGY         -95.426490920104 Eh   |
          | GRADIENT NORM               0.000040900462 Eh/α |
          | HOMO-LUMO GAP               2.510889134012 eV   |
           -------------------------------------------------

 * finished run on 2025/09/10 at 09:02:50.025
