   * xtb version 6.7.1 (edcfbbe) compiled by 'albert@albert-system' on 2024-07-22

   ID    Z sym.   atoms
    1    6 C      1-13, 15-37
    2    7 N      14
    3    1 H      38-68

          program call               : xtb data2507/toluene/F2PA/F2PA_toluene_T1_crest.xyz --gfn 2 --uhf 2 --gbsa toluene --ohess vtight --parallel 40 --molden --ceasefiles --namespace data2507/toluene/F2PA/F2PA_toluene_T1_finalOpt
      * Solvation model:               GBSA
        Solvent                        toluene
        Solvent mass                       9.2140E+01 g/mol
          :  Hamiltonian                  GFN2-xTB          :
 * total energy  :   -95.8246952 Eh     change       -0.2554799E-08 Eh
 * total energy  :   -95.8247245 Eh     change       -0.2924807E-04 Eh
 * total energy  :   -95.8247435 Eh     change       -0.1900787E-04 Eh
 * total energy  :   -95.8247542 Eh     change       -0.1077909E-04 Eh
 * total energy  :   -95.8247750 Eh     change       -0.2075355E-04 Eh
 * total energy  :   -95.8247930 Eh     change       -0.1798388E-04 Eh
 * total energy  :   -95.8248087 Eh     change       -0.1571927E-04 Eh
 * total energy  :   -95.8248234 Eh     change       -0.1470145E-04 Eh
 * total energy  :   -95.8248365 Eh     change       -0.1311701E-04 Eh
 * total energy  :   -95.8248483 Eh     change       -0.1179404E-04 Eh
 * total energy  :   -95.8248826 Eh     change       -0.1065322E-04 Eh
 * total energy  :   -95.8248897 Eh     change       -0.7041093E-05 Eh
 * total energy  :   -95.8248935 Eh     change       -0.3786173E-05 Eh
 * total energy  :   -95.8248959 Eh     change       -0.2391125E-05 Eh
 * total energy  :   -95.8248971 Eh     change       -0.1277827E-05 Eh
 * total energy  :   -95.8248980 Eh     change       -0.8190887E-06 Eh
 * total energy  :   -95.8248988 Eh     change       -0.8504565E-06 Eh
 * total energy  :   -95.8248993 Eh     change       -0.4850536E-06 Eh
 * total energy  :   -95.8248993 Eh     change       -0.3759136E-07 Eh
   *** GEOMETRY OPTIMIZATION CONVERGED AFTER 21 ITERATIONS ***

 final structure:
================
68
 xtb: 6.7.1 (edcfbbe)
C           -2.11362569878496       -3.06541958177426        0.56209623817671
C           -3.00900993618195       -1.90506588417213        1.01201159007416
C           -3.02165347227579       -1.80726426889572        2.54212750390247
C           -4.41091944339823       -2.04795116465526        0.46034641315144
C           -5.32523170876794       -3.04669154926764        0.67615220714935
C           -6.57603472044306       -2.96858794611129        0.06049429564366
C           -6.89349929561222       -1.89153632564446       -0.76449400147328
C           -5.98753151094882       -0.87895659517414       -0.99309107225919
C           -4.72775081796160       -0.94754178679179       -0.37975896054158
C           -3.61418925716179       -0.06891319042085       -0.42739303308176
C           -3.41720822938829        1.15808928629389       -1.09493161524923
C           -2.23449232587820        1.82402991099712       -0.93972998168479
C           -1.19478819582509        1.29971134409424       -0.13076355119430
N           -0.00101727339945        1.98154296815467       -0.00060634946548
C           -0.00000361519384        3.38364705618507       -0.00020832366029
C            1.01096213917087        4.08592684698213       -0.65898674334806
C            1.00840335815959        5.46689573356435       -0.65432711140348
C            0.00327360953866        6.16361543623135        0.00003992935165
C           -1.00340987756088        5.46909523993130        0.65434618804821
C           -1.00928869504535        4.08810380999969        0.65875770377504
C            1.19297461227671        1.29964824584083        0.13048066144775
C            2.22846951340732        1.82103982699315        0.94645288442539
C            3.41031968288873        1.15431293056084        1.10528363355216
C            3.61073925849676       -0.06959210252361        0.43343050524905
C            2.56916043643900       -0.59737321338412       -0.38691811998428
C            1.38619377301611        0.05709662583070       -0.53218240825292
C            3.01505403165097       -1.89778009085852       -1.01986690408318
C            3.04050093014195       -1.78890243230053       -2.54916397848627
C            2.11552291194055       -3.06090136148947       -0.58596597061889
C            4.41263279372776       -2.04477850863502       -0.45827830557352
C            5.32780914246134       -3.04317703751816       -0.67227440660537
C            6.57422799349249       -2.96881697341781       -0.04739275382734
C            6.88655056601091       -1.89592832036700        0.78484952220521
C            5.97960962356436       -0.88377727383841        1.01172414496374
C            4.72430387185671       -0.94868102289566        0.38914003375195
C           -1.38436707782478        0.05365647133384        0.52674888246309
C           -2.56755106615901       -0.60074634115226        0.38406684843324
H           -1.09409218370306       -2.91075998857172        0.90721918151445
H           -2.10995360545557       -3.13735350076054       -0.52397639354743
H           -2.48083759412736       -4.00478556506194        0.96880923426911
H           -2.01461086132991       -1.64337868456220        2.91894639743142
H           -3.65305576259381       -0.98014556085197        2.86121646617610
H           -3.41037122972833       -2.72639372936258        2.97435334746024
H           -5.09319003158973       -3.88772143886231        1.31453427090454
H           -7.30417112498472       -3.74948311892901        0.22515696647464
H           -7.86877410211512       -1.85372712954187       -1.23059144552418
H           -6.23809419933038       -0.04654114810030       -1.63449970936423
H           -4.19396511071512        1.55976653518046       -1.72804308498271
H           -2.06108481403855        2.75321470568267       -1.46333409967772
H            1.78210894889814        3.53849131887026       -1.18060801491773
H            1.79050969409117        6.00287851617819       -1.17096783843946
H            0.00465046825616        7.24297341495671        0.00034656457279
H           -1.78404186415559        6.00683562706200        1.17136908229824
H           -1.78167970207529        3.54243299568486        1.18039537828528
H            2.05212059630178        2.74809781981815        1.47284832483604
H            4.18359858199650        1.55313963965058        1.74441637372253
H            0.60375424135112       -0.31929804898521       -1.17451808248653
H            2.03715477014644       -1.61878999069443       -2.93307959886960
H            3.67733945436956       -0.96169564325102       -2.85708717769202
H            3.42965087053987       -2.70623375863344       -2.98483743204837
H            2.10319048461425       -3.14133181575391        0.49943556210745
H            2.48532274317679       -3.99733756957742       -0.99705461622150
H            1.09885396379786       -2.90290987290652       -0.93797054012816
H            5.09978907335724       -3.88094960108580       -1.31636953379134
H            7.30300525003985       -3.74943812829253       -0.21051907567026
H            7.85841300678150       -1.86106372193486        1.25822068054144
H            6.22604739728465       -0.05470480398250        1.65905052824899
H           -0.59881661278602       -0.32563419577809        1.16352252364576

          :  Hamiltonian                  GFN2-xTB          :
         :: gradient norm              0.000141451559 Eh/a0 ::
         :: HOMO-LUMO gap              0.180863123033 eV    ::
         :: SCC energy               -97.580208996164 Eh    ::
         :: -> dispersion             -0.090297287793 Eh    ::
         :: -> Gsolv                  -0.037746106300 Eh    ::
         :: repulsion energy           1.755309660287 Eh    ::

    * Orbital Energies and Occupations

         #    Occupation            Energy/Eh            Energy/eV
      -------------------------------------------------------------
         1        2.0000           -0.6781025             -18.4521
       ...           ...                  ...                  ...
        79        2.0000           -0.4163925             -11.3306
        80        2.0000           -0.4107548             -11.1772
        81        2.0000           -0.4095183             -11.1436
        82        2.0000           -0.4054420             -11.0326
        83        2.0000           -0.4053509             -11.0302
        84        2.0000           -0.4028249             -10.9614
        85        2.0000           -0.4005247             -10.8988
        86        2.0000           -0.3911125             -10.6427
        87        2.0000           -0.3909877             -10.6393
        88        2.0000           -0.3885996             -10.5743
        89        2.0000           -0.3689665             -10.0401
        90        1.0000           -0.3451751              -9.3927
        91        0.9706           -0.2562364              -6.9725 (HOMO)
        92        0.0294           -0.2495898              -6.7917 (LUMO)
        93                         -0.2352180              -6.4006
        94                         -0.2263988              -6.1606
        95                         -0.2182374              -5.9385
        96                         -0.2148552              -5.8465
        97                         -0.2096970              -5.7061
        98                         -0.2090593              -5.6888
        99                         -0.1893010              -5.1511
       100                         -0.1732250              -4.7137
       101                         -0.1115229              -3.0347
       102                         -0.1102417              -2.9998
       ...                                ...                  ...
       179                          0.7358331              20.0230
      -------------------------------------------------------------
                  HL-Gap            0.0066466 Eh            0.1809 eV

     #   Z          covCN         q      C6AA      α(0)
     1   6 C        3.758    -0.098    22.419     6.750
     2   6 C        3.931     0.018    20.214     6.389
     3   6 C        3.758    -0.098    22.431     6.752
     4   6 C        3.054    -0.006    28.126     8.698
     5   6 C        2.911    -0.038    28.956     8.824
     6   6 C        2.920    -0.044    29.095     8.845
     7   6 C        2.916    -0.036    28.901     8.816
     8   6 C        2.911    -0.043    29.074     8.842
     9   6 C        3.031    -0.009    28.214     8.713
    10   6 C        3.032    -0.011    28.249     8.718
    11   6 C        2.907    -0.041    29.029     8.835
    12   6 C        2.915    -0.046    29.136     8.851
    13   6 C        2.929     0.037    27.165     8.547
    14   7 N        2.752    -0.003    21.313     6.857
    15   6 C        2.932     0.062    26.602     8.459
    16   6 C        2.921    -0.037    28.929     8.820
    17   6 C        2.918    -0.026    28.649     8.777
    18   6 C        2.919    -0.029    28.723     8.789
    19   6 C        2.918    -0.026    28.650     8.777
    20   6 C        2.921    -0.037    28.929     8.820
    21   6 C        2.929     0.037    27.166     8.548
    22   6 C        2.915    -0.046    29.135     8.851
    23   6 C        2.907    -0.041    29.029     8.835
    24   6 C        3.032    -0.011    28.250     8.718
    25   6 C        3.046    -0.004    28.080     8.691
    26   6 C        2.910    -0.048    29.198     8.860
    27   6 C        3.931     0.018    20.214     6.389
    28   6 C        3.758    -0.098    22.430     6.752
    29   6 C        3.758    -0.098    22.419     6.750
    30   6 C        3.053    -0.006    28.127     8.698
    31   6 C        2.911    -0.038    28.956     8.824
    32   6 C        2.920    -0.044    29.095     8.845
    33   6 C        2.916    -0.036    28.901     8.816
    34   6 C        2.911    -0.043    29.074     8.842
    35   6 C        3.031    -0.009    28.214     8.713
    36   6 C        2.910    -0.048    29.199     8.861
    37   6 C        3.046    -0.004    28.079     8.691
    38   1 H        0.925     0.043     2.410     2.428
    39   1 H        0.925     0.032     2.560     2.502
    40   1 H        0.925     0.041     2.440     2.443
    41   1 H        0.925     0.041     2.430     2.438
    42   1 H        0.925     0.033     2.549     2.497
    43   1 H        0.925     0.041     2.437     2.441
    44   1 H        0.926     0.021     2.717     2.578
    45   1 H        0.926     0.019     2.748     2.592
    46   1 H        0.925     0.019     2.746     2.591
    47   1 H        0.926     0.020     2.733     2.585
    48   1 H        0.926     0.029     2.603     2.523
    49   1 H        0.926     0.031     2.575     2.509
    50   1 H        0.926     0.046     2.375     2.410
    51   1 H        0.926     0.045     2.380     2.413
    52   1 H        0.926     0.044     2.391     2.418
    53   1 H        0.926     0.045     2.380     2.413
    54   1 H        0.926     0.046     2.375     2.410
    55   1 H        0.926     0.031     2.576     2.510
    56   1 H        0.926     0.029     2.603     2.523
    57   1 H        0.926     0.034     2.524     2.485
    58   1 H        0.925     0.041     2.430     2.438
    59   1 H        0.925     0.033     2.549     2.497
    60   1 H        0.925     0.041     2.437     2.441
    61   1 H        0.925     0.032     2.560     2.502
    62   1 H        0.925     0.041     2.440     2.443
    63   1 H        0.925     0.043     2.410     2.428
    64   1 H        0.926     0.021     2.717     2.578
    65   1 H        0.926     0.019     2.748     2.592
    66   1 H        0.925     0.019     2.746     2.591
    67   1 H        0.926     0.020     2.733     2.585
    68   1 H        0.926     0.034     2.524     2.484

molecular dipole:
                 x           y           z       tot (Debye)
 q only:        0.000       1.440      -0.005
   full:        0.000       1.431      -0.005       3.637

 projected vibrational frequencies (cm⁻¹)
eigval :       -0.00    -0.00    -0.00    -0.00    -0.00     0.00
eigval :       18.95    21.57    23.87    30.93    47.76    54.25
eigval :       71.55    76.93    98.96   100.28   123.37   134.80
eigval :      136.83   138.55   154.16   168.21   191.97   202.41
eigval :      208.71   216.25   233.63   235.42   240.69   245.84
eigval :      260.43   262.71   279.98   302.00   307.54   314.18
eigval :      315.50   321.29   327.05   357.63   377.69   378.99
eigval :      397.24   427.76   445.07   448.92   461.36   465.85
eigval :      499.56   511.03   517.85   519.14   521.06   535.92
eigval :      542.21   557.78   560.24   569.49   576.17   584.77
eigval :      594.58   600.06   651.96   657.38   669.95   672.79
eigval :      679.40   699.26   699.52   718.28   733.18   748.01
eigval :      749.44   756.39   768.49   791.87   799.22   805.99
eigval :      826.38   839.50   842.23   844.54   860.11   866.59
eigval :      869.48   887.02   887.26   893.23   893.59   898.28
eigval :      910.28   911.56   925.85   927.60   935.73   955.91
eigval :      961.62   964.44   964.80   970.15   971.40   995.95
eigval :     1010.45  1011.56  1022.10  1056.17  1058.30  1065.04
eigval :     1076.57  1077.37  1093.66  1094.80  1118.66  1141.39
eigval :     1148.90  1154.83  1169.53  1169.64  1172.57  1176.68
eigval :     1177.76  1177.85  1190.38  1201.87  1211.93  1214.15
eigval :     1219.24  1223.62  1242.22  1255.48  1264.63  1266.53
eigval :     1272.22  1274.43  1298.41  1319.40  1319.95  1330.65
eigval :     1342.81  1348.21  1358.14  1373.04  1381.56  1389.53
eigval :     1390.39  1391.90  1401.04  1407.25  1409.35  1422.08
eigval :     1437.51  1444.77  1450.05  1452.14  1468.89  1476.47
eigval :     1484.00  1484.92  1485.97  1489.84  1490.25  1492.64
eigval :     1495.60  1496.31  1502.95  1504.26  1537.61  1558.14
eigval :     1563.73  1564.84  1579.53  1583.54  1617.82  3022.52
eigval :     3023.08  3026.26  3026.52  3027.26  3027.36  3029.55
eigval :     3030.48  3033.63  3033.88  3036.38  3037.08  3057.44
eigval :     3057.90  3060.98  3061.12  3071.61  3071.84  3072.69
eigval :     3072.88  3078.87  3080.70  3080.78  3080.93  3081.59
eigval :     3081.71  3086.31  3087.11  3088.60  3092.27  3099.71

   temp. (K)  partition function   enthalpy   heat capacity  entropy
                                   cal/mol     cal/K/mol   cal/K/mol   J/K/mol
 298.15  VIB  0.800E+13            18462.093    120.021    111.688
         ROT  0.199E+08              888.752      2.981     36.376
         INT  0.159E+21            19350.845    123.002    148.064
         TR   0.101E+29             1481.254      4.968     44.359
         TOT                       20832.0990   127.9697   192.4230   805.0977

       T/K    H(0)-H(T)+PV         H(T)/Eh          T*S/Eh         G(T)/Eh
   ------------------------------------------------------------------------
    298.15    0.331981E-01    0.577900E+00    0.914264E-01    0.486474E+00
   ------------------------------------------------------------------------

         :::::::::::::::::::::::::::::::::::::::::::::::::::::
         ::                  THERMODYNAMIC                  ::
         :::::::::::::::::::::::::::::::::::::::::::::::::::::
         :: total free energy         -95.338425433210 Eh   ::
         ::.................................................::
         :: total energy              -95.824899337238 Eh   ::
         :: zero point energy           0.544702200215 Eh   ::
         :: G(RRHO) w/o ZPVE           -0.058228296188 Eh   ::
         :: G(RRHO) contrib.            0.486473904027 Eh   ::
         :::::::::::::::::::::::::::::::::::::::::::::::::::::

           -------------------------------------------------
          | TOTAL ENERGY              -95.824899337238 Eh   |
          | TOTAL ENTHALPY            -95.246999074168 Eh   |
          | TOTAL FREE ENERGY         -95.338425433210 Eh   |
          | GRADIENT NORM               0.000141739230 Eh/α |
          | HOMO-LUMO GAP               0.180863553114 eV   |
           -------------------------------------------------

 * finished run on 2025/09/10 at 09:08:19.185
