   * xtb version 6.7.1 (edcfbbe) compiled by 'albert@albert-system' on 2024-07-22

   ID    Z sym.   atoms
    1    6 C      1-13, 15-37
    2    7 N      14
    3    1 H      38-68

          program call               : xtb data2507/toluene/F2PA/F2PA_toluene_S0_finalOpt.xtbopt.xyz --gfn 2 --uhf 2 --gbsa toluene --ohess vtight --parallel 40 --molden --ceasefiles --namespace data2507/toluene/F2PA/F2PA_toluene_T1_preOpt
      * Solvation model:               GBSA
        Solvent                        toluene
        Solvent mass                       9.2140E+01 g/mol
          :  Hamiltonian                  GFN2-xTB          :
 * total energy  :   -95.8186629 Eh     change        0.5068443E-09 Eh
 * total energy  :   -95.8235632 Eh     change       -0.4900286E-02 Eh
 * total energy  :   -95.8246850 Eh     change       -0.1121793E-02 Eh
 * total energy  :   -95.8247552 Eh     change       -0.7022523E-04 Eh
 * total energy  :   -95.8247880 Eh     change       -0.3279321E-04 Eh
 * total energy  :   -95.8248039 Eh     change       -0.1589648E-04 Eh
 * total energy  :   -95.8248009 Eh     change        0.3047986E-05 Eh
 * total energy  :   -95.8248116 Eh     change       -0.1075409E-04 Eh
 * total energy  :   -95.8248193 Eh     change       -0.7614909E-05 Eh
 * total energy  :   -95.8248232 Eh     change       -0.3930853E-05 Eh
 * total energy  :   -95.8248905 Eh     change       -0.8008512E-06 Eh
 * total energy  :   -95.8248914 Eh     change       -0.8800280E-06 Eh
 * total energy  :   -95.8248922 Eh     change       -0.8156310E-06 Eh
 * total energy  :   -95.8248928 Eh     change       -0.6258356E-06 Eh
 * total energy  :   -95.8248932 Eh     change       -0.4155525E-06 Eh
 * total energy  :   -95.8248935 Eh     change       -0.2972886E-06 Eh
 * total energy  :   -95.8248938 Eh     change       -0.2261844E-06 Eh
 * total energy  :   -95.8248940 Eh     change       -0.1995856E-06 Eh
 * total energy  :   -95.8248940 Eh     change       -0.1784997E-08 Eh
   *** GEOMETRY OPTIMIZATION CONVERGED AFTER 44 ITERATIONS ***

 final structure:
================
68
 xtb: 6.7.1 (edcfbbe)
C           -2.11575039953886       -3.05730819324869        0.61261450797991
C           -3.01870601748601       -1.88985358046482        1.02685465666440
C           -3.05387924526717       -1.76316043096239        2.55466302678324
C           -4.41284112024476       -2.04380228558014        0.45876483173735
C           -5.32801136739552       -3.04112187219493        0.67749768254816
C           -6.57146120035981       -2.97378619688024        0.04595464502471
C           -6.88069114365611       -1.90885637449808       -0.79761795828718
C           -5.97359426086315       -0.89803123838283       -1.02959167403067
C           -4.72115757532337       -0.95587315777162       -0.40045667027492
C           -3.60834446792559       -0.07604460430117       -0.44698814522410
C           -3.40591606088770        1.14286353060402       -1.12748187604983
C           -2.22671188020579        1.81371092158887       -0.96595597492617
C           -1.19532911523001        1.30050034590089       -0.13978509477805
N           -0.00388441852769        1.98569348675762       -0.00364643633141
C           -0.00566742847665        3.38736838977036       -0.00808302911363
C            1.01140029568858        4.09013272160267       -0.65697679699089
C            1.00508920177142        5.47107494348314       -0.65710042374004
C           -0.00941054355307        6.16742322549355       -0.01693301394873
C           -1.02203073825278        5.47245436644524        0.62769485670211
C           -1.02460808137168        4.09153210067343        0.63636053321500
C            1.18923662418831        1.30426044176879        0.13659685603896
C            2.21948505383575        1.82500061417245        0.95945515587219
C            3.40022380123141        1.15785126452799        1.12512694831899
C            3.60540619076791       -0.06484280110224        0.45228565161246
C            2.56866026104773       -0.59187844379383       -0.37479894230867
C            1.38609614668063        0.06187309169572       -0.52521918989991
C            3.01998092002612       -1.88892105126069       -1.01053418765035
C            3.05589279835798       -1.77093792449943       -2.53904374334876
C            2.11917745634970       -3.05580046325155       -0.59009096445716
C            4.41416363727029       -2.03659431606481       -0.44091825332154
C            5.33132962990255       -3.03350159047842       -0.65305421886516
C            6.57449509044912       -2.95969087841639       -0.02168607689674
C            6.88141526006552       -1.88877822700491        0.81512673530345
C            5.97224990908561       -0.87830954218501        1.04049379733306
C            4.72008044054362       -0.94262344619797        0.41146701561109
C           -1.38931223881876        0.06173982910119        0.52965686622448
C           -2.57036549969570       -0.59565310809641        0.38325471155034
H           -1.10108163360745       -2.89384995653315        0.96785235935426
H           -2.09751430719987       -3.15181319353478       -0.47151221869473
H           -2.48689088676040       -3.98870008766461        1.03382429005273
H           -3.44592360017503       -2.67523343588524        2.99868678444078
H           -2.05294647530908       -1.58860186115480        2.94284403873818
H           -3.69250505181072       -0.93234467292347        2.84878263895121
H           -5.10222497619375       -3.87252372866904        1.33055373506822
H           -7.30033079723903       -3.75347185084406        0.21288646931621
H           -7.85043943580534       -1.87911830982880       -1.27559676881374
H           -6.21788399083205       -0.07509386441933       -1.68548201843867
H           -4.17588924710245        1.53494334766381       -1.77472847902818
H           -2.04902063337484        2.73745025918990       -1.49776325383439
H            1.79025004700949        3.54310242934893       -1.16745095253937
H            1.79200174548986        6.00738665034466       -1.16603744013123
H           -0.01086626263887        7.24676955218078       -0.02037641996177
H           -1.81040114667127        6.00986223145050        1.13320705494517
H           -1.80199901791428        3.54564966468710        1.15027735748166
H            2.03973120199832        2.75170276221618        1.48538806121438
H            4.16932807245955        1.55572317277667        1.76986879850623
H            0.60699921129402       -0.31429255856967       -1.17173474096952
H            2.05483926404168       -1.60089315814285       -2.92891160397977
H            3.69281386617250       -0.94034779364801       -2.83747408362078
H            3.45036355517356       -2.68463801589327       -2.97753742079086
H            1.10433189832327       -2.89634432233767       -0.94663995348706
H            2.10069752469222       -3.14420148249360        0.49454575552773
H            2.49229298862206       -3.98882533350251       -1.00590145597023
H            5.10730509146262       -3.86955698026492       -1.30075842411434
H            7.30493490552576       -3.73900033701135       -0.18345440271444
H            7.85099565046395       -1.85405107686111        1.29310956199021
H            6.21475560166617       -0.05081791025620        1.69128920125604
H           -0.60934815919508       -0.30861726715452        1.17847904911204

          :  Hamiltonian                  GFN2-xTB          :
         :: gradient norm              0.000033191286 Eh/a0 ::
         :: HOMO-LUMO gap              0.179937884545 eV    ::
         :: SCC energy               -97.580378713891 Eh    ::
         :: -> dispersion             -0.090262357120 Eh    ::
         :: -> Gsolv                  -0.037771092898 Eh    ::
         :: repulsion energy           1.755484751982 Eh    ::

    * Orbital Energies and Occupations

         #    Occupation            Energy/Eh            Energy/eV
      -------------------------------------------------------------
         1        2.0000           -0.6780860             -18.4517
       ...           ...                  ...                  ...
        79        2.0000           -0.4163964             -11.3307
        80        2.0000           -0.4107500             -11.1771
        81        2.0000           -0.4095264             -11.1438
        82        2.0000           -0.4054709             -11.0334
        83        2.0000           -0.4053546             -11.0303
        84        2.0000           -0.4028392             -10.9618
        85        2.0000           -0.4005625             -10.8999
        86        2.0000           -0.3911221             -10.6430
        87        2.0000           -0.3909908             -10.6394
        88        2.0000           -0.3885757             -10.5737
        89        2.0000           -0.3689868             -10.0406
        90        1.0000           -0.3452330              -9.3943
        91        0.9701           -0.2562446              -6.9728 (HOMO)
        92        0.0299           -0.2496320              -6.7928 (LUMO)
        93                         -0.2351636              -6.3991
        94                         -0.2263230              -6.1586
        95                         -0.2182882              -5.9399
        96                         -0.2148602              -5.8466
        97                         -0.2097031              -5.7063
        98                         -0.2090618              -5.6889
        99                         -0.1893036              -5.1512
       100                         -0.1733097              -4.7160
       101                         -0.1115355              -3.0350
       102                         -0.1102354              -2.9997
       ...                                ...                  ...
       179                          0.7358871              20.0245
      -------------------------------------------------------------
                  HL-Gap            0.0066126 Eh            0.1799 eV

     #   Z          covCN         q      C6AA      α(0)
     1   6 C        3.758    -0.098    22.420     6.751
     2   6 C        3.931     0.018    20.214     6.389
     3   6 C        3.758    -0.098    22.430     6.752
     4   6 C        3.054    -0.006    28.126     8.698
     5   6 C        2.911    -0.038    28.956     8.824
     6   6 C        2.920    -0.044    29.095     8.845
     7   6 C        2.916    -0.036    28.901     8.816
     8   6 C        2.911    -0.043    29.074     8.842
     9   6 C        3.031    -0.009    28.214     8.713
    10   6 C        3.032    -0.011    28.249     8.718
    11   6 C        2.907    -0.041    29.029     8.835
    12   6 C        2.915    -0.046    29.134     8.851
    13   6 C        2.929     0.037    27.165     8.548
    14   7 N        2.752    -0.003    21.315     6.857
    15   6 C        2.931     0.062    26.602     8.459
    16   6 C        2.921    -0.037    28.931     8.821
    17   6 C        2.918    -0.026    28.649     8.777
    18   6 C        2.919    -0.029    28.723     8.789
    19   6 C        2.918    -0.026    28.649     8.777
    20   6 C        2.921    -0.037    28.931     8.820
    21   6 C        2.929     0.037    27.165     8.548
    22   6 C        2.915    -0.046    29.134     8.851
    23   6 C        2.907    -0.041    29.029     8.835
    24   6 C        3.032    -0.011    28.249     8.718
    25   6 C        3.046    -0.004    28.079     8.691
    26   6 C        2.910    -0.048    29.196     8.860
    27   6 C        3.931     0.018    20.214     6.389
    28   6 C        3.758    -0.098    22.430     6.752
    29   6 C        3.758    -0.098    22.420     6.751
    30   6 C        3.054    -0.006    28.126     8.698
    31   6 C        2.911    -0.038    28.956     8.824
    32   6 C        2.920    -0.044    29.095     8.845
    33   6 C        2.916    -0.036    28.901     8.816
    34   6 C        2.911    -0.043    29.074     8.842
    35   6 C        3.031    -0.009    28.214     8.713
    36   6 C        2.910    -0.048    29.196     8.860
    37   6 C        3.046    -0.004    28.079     8.691
    38   1 H        0.925     0.043     2.411     2.428
    39   1 H        0.925     0.032     2.559     2.501
    40   1 H        0.925     0.041     2.440     2.443
    41   1 H        0.925     0.041     2.437     2.441
    42   1 H        0.925     0.041     2.430     2.438
    43   1 H        0.925     0.033     2.549     2.497
    44   1 H        0.926     0.021     2.717     2.578
    45   1 H        0.926     0.019     2.748     2.592
    46   1 H        0.925     0.019     2.746     2.591
    47   1 H        0.926     0.020     2.733     2.585
    48   1 H        0.926     0.029     2.602     2.523
    49   1 H        0.926     0.031     2.575     2.510
    50   1 H        0.926     0.046     2.376     2.410
    51   1 H        0.926     0.045     2.381     2.413
    52   1 H        0.926     0.044     2.392     2.418
    53   1 H        0.926     0.045     2.381     2.413
    54   1 H        0.926     0.046     2.376     2.410
    55   1 H        0.926     0.031     2.575     2.510
    56   1 H        0.926     0.029     2.602     2.523
    57   1 H        0.926     0.034     2.526     2.485
    58   1 H        0.925     0.041     2.430     2.438
    59   1 H        0.925     0.033     2.549     2.497
    60   1 H        0.925     0.041     2.437     2.441
    61   1 H        0.925     0.043     2.411     2.428
    62   1 H        0.925     0.032     2.559     2.501
    63   1 H        0.925     0.041     2.440     2.443
    64   1 H        0.926     0.021     2.717     2.578
    65   1 H        0.926     0.019     2.748     2.592
    66   1 H        0.925     0.019     2.746     2.591
    67   1 H        0.926     0.020     2.733     2.585
    68   1 H        0.926     0.034     2.526     2.485

molecular dipole:
                 x           y           z       tot (Debye)
 q only:       -0.002       1.443      -0.005
   full:       -0.001       1.434      -0.005       3.644

 projected vibrational frequencies (cm⁻¹)
eigval :       -0.00    -0.00     0.00     0.00     0.00     0.00
eigval :       18.07    21.04    23.42    31.36    45.51    54.04
eigval :       71.58    74.61    98.88   100.00   123.49   134.67
eigval :      136.67   138.21   153.77   167.94   191.69   201.47
eigval :      207.34   216.14   233.24   235.22   239.90   245.99
eigval :      260.79   262.37   280.05   302.02   307.44   314.16
eigval :      315.04   321.26   327.30   357.50   377.87   378.10
eigval :      397.49   427.17   445.70   449.45   461.24   465.36
eigval :      498.66   511.00   517.76   519.25   520.82   535.94
eigval :      542.09   558.22   560.42   569.56   576.30   584.88
eigval :      594.57   600.14   651.89   655.96   669.83   672.83
eigval :      679.22   699.33   699.60   718.38   733.36   750.42
eigval :      750.89   757.08   768.68   792.55   800.52   806.51
eigval :      826.65   843.34   845.54   846.22   860.23   865.01
eigval :      870.56   887.28   887.45   893.81   894.69   898.84
eigval :      912.28   912.59   926.76   928.81   935.88   955.90
eigval :      961.64   964.30   964.95   970.17   971.47   995.92
eigval :     1011.50  1012.43  1021.83  1056.09  1058.30  1065.58
eigval :     1076.70  1077.80  1094.02  1095.18  1119.00  1141.88
eigval :     1149.08  1154.75  1169.51  1169.60  1172.55  1176.98
eigval :     1178.15  1178.35  1190.71  1201.62  1212.54  1214.36
eigval :     1219.51  1224.15  1242.40  1255.49  1264.95  1266.71
eigval :     1272.43  1275.01  1298.59  1319.64  1320.10  1330.84
eigval :     1342.84  1348.22  1358.26  1373.19  1381.94  1389.59
eigval :     1390.73  1392.34  1401.41  1407.75  1409.85  1422.19
eigval :     1437.66  1444.78  1450.11  1452.18  1468.80  1476.16
eigval :     1483.87  1484.80  1485.81  1489.77  1490.29  1492.67
eigval :     1495.73  1496.22  1503.03  1504.34  1537.74  1558.10
eigval :     1563.89  1564.88  1579.65  1583.70  1617.98  3022.81
eigval :     3023.33  3026.45  3026.74  3027.22  3027.40  3029.78
eigval :     3030.63  3033.71  3033.86  3036.58  3037.19  3058.08
eigval :     3058.22  3061.20  3061.32  3071.82  3071.93  3072.97
eigval :     3073.10  3078.48  3080.59  3080.90  3081.24  3081.76
eigval :     3081.84  3086.32  3087.18  3088.88  3092.54  3099.80

   temp. (K)  partition function   enthalpy   heat capacity  entropy
                                   cal/mol     cal/K/mol   cal/K/mol   J/K/mol
 298.15  VIB  0.942E+13            18472.465    119.919    111.845
         ROT  0.199E+08              888.752      2.981     36.376
         INT  0.187E+21            19361.217    122.900    148.221
         TR   0.101E+29             1481.254      4.968     44.359
         TOT                       20842.4709   127.8679   192.5796   805.7529

       T/K    H(0)-H(T)+PV         H(T)/Eh          T*S/Eh         G(T)/Eh
   ------------------------------------------------------------------------
    298.15    0.332146E-01    0.577980E+00    0.915008E-01    0.486479E+00
   ------------------------------------------------------------------------

         :::::::::::::::::::::::::::::::::::::::::::::::::::::
         ::                  THERMODYNAMIC                  ::
         :::::::::::::::::::::::::::::::::::::::::::::::::::::
         :: total free energy         -95.338415200001 Eh   ::
         ::.................................................::
         :: total energy              -95.824893962924 Eh   ::
         :: zero point energy           0.544764934557 Eh   ::
         :: G(RRHO) w/o ZPVE           -0.058286171633 Eh   ::
         :: G(RRHO) contrib.            0.486478762924 Eh   ::
         :::::::::::::::::::::::::::::::::::::::::::::::::::::

           -------------------------------------------------
          | TOTAL ENERGY              -95.824893962924 Eh   |
          | TOTAL ENTHALPY            -95.246914436780 Eh   |
          | TOTAL FREE ENERGY         -95.338415200001 Eh   |
          | GRADIENT NORM               0.000033623711 Eh/α |
          | HOMO-LUMO GAP               0.179937730471 eV   |
           -------------------------------------------------

 * finished run on 2025/09/10 at 09:05:28.579
