   * xtb version 6.7.1 (edcfbbe) compiled by 'albert@albert-system' on 2024-07-22

   ID    Z sym.   atoms
    1    6 C      1-13, 15-37
    2    7 N      14
    3    1 H      38-68

          program call               : xtb data2507/toluene/F2PA/F2PA_toluene_S0_crest.xyz --gfn 2 --gbsa toluene --ohess vtight --parallel 40 --molden --ceasefiles --namespace data2507/toluene/F2PA/F2PA_toluene_S0_finalOpt
      * Solvation model:               GBSA
        Solvent                        toluene
        Solvent mass                       9.2140E+01 g/mol
          :  Hamiltonian                  GFN2-xTB          :
 * total energy  :   -95.9168300 Eh     change       -0.2052133E-08 Eh
 * total energy  :   -95.9168587 Eh     change       -0.2867797E-04 Eh
 * total energy  :   -95.9168757 Eh     change       -0.1702852E-04 Eh
 * total energy  :   -95.9168848 Eh     change       -0.9086993E-05 Eh
 * total energy  :   -95.9169024 Eh     change       -0.1762233E-04 Eh
 * total energy  :   -95.9169184 Eh     change       -0.1601015E-04 Eh
 * total energy  :   -95.9169339 Eh     change       -0.1546353E-04 Eh
 * total energy  :   -95.9169494 Eh     change       -0.1545177E-04 Eh
 * total energy  :   -95.9169634 Eh     change       -0.1403041E-04 Eh
 * total energy  :   -95.9169769 Eh     change       -0.1355777E-04 Eh
 * total energy  :   -95.9170555 Eh     change       -0.2108635E-06 Eh
 * total energy  :   -95.9170556 Eh     change       -0.1131586E-06 Eh
 * total energy  :   -95.9170557 Eh     change       -0.1136586E-06 Eh
 * total energy  :   -95.9170559 Eh     change       -0.1347119E-06 Eh
 * total energy  :   -95.9170560 Eh     change       -0.1176910E-06 Eh
 * total energy  :   -95.9170561 Eh     change       -0.1074451E-06 Eh
 * total energy  :   -95.9170562 Eh     change       -0.1122858E-06 Eh
 * total energy  :   -95.9170563 Eh     change       -0.1106300E-06 Eh
 * total energy  :   -95.9170564 Eh     change       -0.9254846E-07 Eh
   *** GEOMETRY OPTIMIZATION CONVERGED AFTER 42 ITERATIONS ***

 final structure:
================
68
 xtb: 6.7.1 (edcfbbe)
C           -2.17104860260258       -3.03549837948680        0.69720984333129
C           -3.07651331385973       -1.85765695604201        1.07286041754026
C           -3.13315702251836       -1.69331695091546        2.59538632117587
C           -4.46192881059131       -2.02427549644801        0.48722004736267
C           -5.38935739601704       -3.01502102801711        0.72731989481782
C           -6.61255518274718       -2.96343666488934        0.07050751340715
C           -6.90001181860915       -1.93448905736970       -0.81318816618673
C           -5.97365184053056       -0.93407478914211       -1.06094099344241
C           -4.75266635408243       -0.98251536436111       -0.40725759402256
C           -3.60929208756774       -0.08846737994773       -0.45948540332875
C           -3.39361396873363        1.07994928077715       -1.17359016926405
C           -2.19301201094586        1.74740001767221       -1.02231267672450
C           -1.20585891718446        1.26656615056048       -0.15839545030638
N           -0.00355536073069        1.96680055711132       -0.00704808612603
C           -0.00612714719720        3.36684961389501       -0.00918560891809
C            1.02838162954993        4.07595072916191       -0.62039946071261
C            1.02373759251262        5.45744242050196       -0.61584846684792
C           -0.01105850532147        6.15453733201785       -0.01292282337837
C           -1.04349545194323        5.45544776359854        0.59172562590177
C           -1.04319158956877        4.07397226684304        0.59998595714238
C            1.20056422447669        1.27098684630250        0.14963845064849
C            2.18567314277657        1.75958643954097        1.01152443210969
C            3.38743425575246        1.09561611684355        1.16873802809541
C            3.60637864952053       -0.07713794608831        0.46279806123066
C            2.61597935046771       -0.57839514177939       -0.39641136782408
C            1.42288127407763        0.08489723757060       -0.55875874894647
C            3.07910262179454       -1.85778714579253       -1.05811799934837
C            3.13772980196902       -1.70468613398822       -2.58171438673449
C            2.17512671980167       -3.03442882874314       -0.67506882294554
C            4.46388975697687       -2.01790526690654       -0.46917604578876
C            5.39340187195194       -3.00866402402348       -0.70102031022350
C            6.61532490664528       -2.95064460543974       -0.04238184891626
C            6.89937530350010       -1.91544013924337        0.83509061925215
C            5.97095448873044       -0.91488228956580        1.07441260118967
C            4.75130321341506       -0.96963175201734        0.41873499812294
C           -1.42462954369633        0.08453307532522        0.55779033519249
C           -2.61662675556874       -0.58216658621345        0.40146641527948
H           -1.16101219614367       -2.86345706745747        1.06094463617250
H           -2.13927215031737       -3.15564922607142       -0.38395807464544
H           -2.54820700223517       -3.95584363278516        1.13667958401662
H           -3.52811578214905       -2.59516783323931        3.05714156494574
H           -2.13783857345890       -1.50613977382871        2.99162772964992
H           -3.77681436396652       -0.85669223238598        2.86053781989381
H           -5.17708413524292       -3.82214867591197        1.41374518444759
H           -7.34867960399119       -3.73404025456920        0.25020140862649
H           -7.85798638987609       -1.91273554602568       -1.31334881791393
H           -6.20075170134371       -0.13314427030662       -1.74949090686216
H           -4.14605850463706        1.46516442507564       -1.84577852490285
H           -2.00681761882383        2.65550647443367       -1.57747238978496
H            1.83217672050050        3.53518260457837       -1.09879098663900
H            1.83045209702761        5.99359525975952       -1.09460346742442
H           -0.01284673539607        7.23424879739895       -0.01420742888043
H           -1.85203464250756        5.99000308662435        1.06918600045608
H           -1.84513712656271        3.53170979997770        1.07979304146359
H            1.99683907757900        2.67077292193941        1.56070608561181
H            4.13815758400581        1.48679883771570        1.83940294519640
H            0.65955513407614       -0.28706050743499       -1.22648021191019
H            2.14270615437756       -1.52232606579442       -2.98093035838906
H            3.78030787587027       -0.86893626765240       -2.85216779556397
H            3.53504141706405       -2.60928849532545       -3.03601151385350
H            1.16527286907930       -2.86675530184683       -1.04134061802849
H            2.14216130146955       -3.14673411772965        0.40690590503970
H            2.55441101156086       -3.95731227291810       -1.10733034961440
H            5.18368879253597       -3.82061488882348       -1.38251868699670
H            7.35304888384287       -3.72120083737443       -0.21557898397495
H            7.85632190340860       -1.88884653048590        1.33698276309387
H            6.19545779570442       -0.10910256259536        1.75813819480794
H           -0.65967040375171       -0.28143821953099        1.22694723524907

          :  Hamiltonian                  GFN2-xTB          :
         :: gradient norm              0.000033082847 Eh/a0 ::
         :: HOMO-LUMO gap              2.511752101135 eV    ::
         :: SCC energy               -97.690641719019 Eh    ::
         :: -> dispersion             -0.090020446775 Eh    ::
         :: -> Gsolv                  -0.036896117363 Eh    ::
         :: repulsion energy           1.773585300763 Eh    ::

    * Orbital Energies and Occupations

         #    Occupation            Energy/Eh            Energy/eV
      -------------------------------------------------------------
         1        2.0000           -0.6626475             -18.0316
       ...           ...                  ...                  ...
        78        2.0000           -0.4134939             -11.2517
        79        2.0000           -0.4119336             -11.2093
        80        2.0000           -0.4109506             -11.1825
        81        2.0000           -0.4102302             -11.1629
        82        2.0000           -0.4100351             -11.1576
        83        2.0000           -0.4054425             -11.0327
        84        2.0000           -0.4014345             -10.9236
        85        2.0000           -0.3999792             -10.8840
        86        2.0000           -0.3946495             -10.7390
        87        2.0000           -0.3943075             -10.7297
        88        2.0000           -0.3881002             -10.5607
        89        2.0000           -0.3773234             -10.2675
        90        2.0000           -0.3437715              -9.3545 (HOMO)
        91                         -0.2514664              -6.8427 (LUMO)
        92                         -0.2441902              -6.6448
        93                         -0.2251591              -6.1269
        94                         -0.2202777              -5.9941
        95                         -0.2201291              -5.9900
        96                         -0.2175927              -5.9210
        97                         -0.2164612              -5.8902
        98                         -0.2146481              -5.8409
        99                         -0.1901236              -5.1735
       100                         -0.1730918              -4.7101
       101                         -0.1099826              -2.9928
       ...                                ...                  ...
       179                          0.7350077              20.0006
      -------------------------------------------------------------
                  HL-Gap            0.0923052 Eh            2.5118 eV

     #   Z          covCN         q      C6AA      α(0)
     1   6 C        3.758    -0.098    22.421     6.751
     2   6 C        3.935     0.019    20.198     6.387
     3   6 C        3.758    -0.098    22.430     6.752
     4   6 C        3.055    -0.003    28.050     8.686
     5   6 C        2.915    -0.035    28.880     8.812
     6   6 C        2.921    -0.036    28.897     8.815
     7   6 C        2.921    -0.035    28.880     8.813
     8   6 C        2.914    -0.038    28.934     8.821
     9   6 C        3.036    -0.002    28.035     8.685
    10   6 C        3.036    -0.011    28.249     8.718
    11   6 C        2.913    -0.036    28.900     8.815
    12   6 C        2.923    -0.053    29.307     8.878
    13   6 C        2.925     0.062    26.604     8.459
    14   7 N        2.753    -0.077    22.745     7.083
    15   6 C        2.924     0.066    26.521     8.445
    16   6 C        2.922    -0.048    29.190     8.860
    17   6 C        2.919    -0.031    28.763     8.795
    18   6 C        2.919    -0.040    28.987     8.829
    19   6 C        2.919    -0.031    28.763     8.795
    20   6 C        2.922    -0.048    29.190     8.860
    21   6 C        2.925     0.062    26.604     8.459
    22   6 C        2.923    -0.053    29.308     8.878
    23   6 C        2.913    -0.036    28.900     8.815
    24   6 C        3.036    -0.011    28.249     8.718
    25   6 C        3.053    -0.001    28.003     8.679
    26   6 C        2.917    -0.052    29.297     8.876
    27   6 C        3.935     0.019    20.198     6.387
    28   6 C        3.758    -0.098    22.431     6.752
    29   6 C        3.758    -0.098    22.420     6.751
    30   6 C        3.055    -0.003    28.050     8.686
    31   6 C        2.915    -0.035    28.880     8.812
    32   6 C        2.921    -0.036    28.897     8.815
    33   6 C        2.921    -0.035    28.880     8.813
    34   6 C        2.914    -0.038    28.934     8.821
    35   6 C        3.036    -0.002    28.036     8.685
    36   6 C        2.917    -0.052    29.296     8.876
    37   6 C        3.053    -0.001    28.003     8.679
    38   1 H        0.925     0.044     2.391     2.418
    39   1 H        0.925     0.034     2.531     2.488
    40   1 H        0.925     0.043     2.406     2.425
    41   1 H        0.925     0.043     2.404     2.425
    42   1 H        0.925     0.043     2.410     2.427
    43   1 H        0.925     0.034     2.535     2.490
    44   1 H        0.926     0.029     2.604     2.524
    45   1 H        0.926     0.027     2.625     2.534
    46   1 H        0.926     0.026     2.639     2.540
    47   1 H        0.926     0.027     2.632     2.537
    48   1 H        0.926     0.031     2.577     2.510
    49   1 H        0.926     0.029     2.603     2.523
    50   1 H        0.926     0.031     2.570     2.507
    51   1 H        0.926     0.032     2.552     2.498
    52   1 H        0.926     0.031     2.572     2.508
    53   1 H        0.926     0.032     2.552     2.498
    54   1 H        0.926     0.031     2.570     2.507
    55   1 H        0.926     0.029     2.603     2.523
    56   1 H        0.926     0.031     2.577     2.510
    57   1 H        0.926     0.032     2.556     2.500
    58   1 H        0.925     0.043     2.410     2.428
    59   1 H        0.925     0.034     2.535     2.490
    60   1 H        0.925     0.043     2.404     2.425
    61   1 H        0.925     0.044     2.391     2.418
    62   1 H        0.925     0.034     2.531     2.488
    63   1 H        0.925     0.043     2.406     2.426
    64   1 H        0.926     0.029     2.604     2.524
    65   1 H        0.926     0.027     2.625     2.534
    66   1 H        0.926     0.026     2.639     2.540
    67   1 H        0.926     0.027     2.632     2.537
    68   1 H        0.926     0.032     2.556     2.500

molecular dipole:
                 x           y           z       tot (Debye)
 q only:       -0.000      -0.373       0.001
   full:       -0.001      -0.297       0.001       0.754

 projected vibrational frequencies (cm⁻¹)
eigval :       -0.00    -0.00    -0.00    -0.00     0.00     0.00
eigval :       16.27    20.06    25.54    29.14    51.54    52.49
eigval :       77.48    80.65    97.18    98.71   121.37   131.56
eigval :      138.56   139.69   157.57   170.53   190.27   197.82
eigval :      201.62   211.42   224.20   230.18   234.17   247.83
eigval :      260.66   264.69   283.65   304.09   310.50   325.19
eigval :      327.60   328.19   336.35   360.60   380.75   394.41
eigval :      423.72   428.65   449.41   461.00   468.04   468.37
eigval :      493.61   514.76   521.24   541.33   542.28   551.05
eigval :      561.86   567.34   573.54   582.60   587.28   590.36
eigval :      616.24   626.80   660.23   660.99   692.77   693.17
eigval :      721.97   722.07   722.44   724.12   745.15   765.80
eigval :      776.89   777.86   778.38   809.33   824.33   831.69
eigval :      838.87   878.88   879.93   880.10   883.81   888.87
eigval :      894.24   909.53   910.64   915.66   915.86   925.40
eigval :      925.65   932.27   932.77   941.96   950.76   965.18
eigval :      966.11   966.64   978.58   985.57  1006.46  1010.27
eigval :     1013.33  1013.69  1068.52  1068.66  1077.39  1077.65
eigval :     1082.82  1111.17  1112.30  1122.84  1147.43  1150.68
eigval :     1159.40  1160.13  1173.52  1173.52  1179.55  1181.79
eigval :     1182.30  1182.61  1197.45  1217.08  1225.30  1226.38
eigval :     1232.01  1242.94  1261.29  1271.09  1271.50  1275.97
eigval :     1286.74  1286.88  1310.46  1315.90  1324.88  1330.79
eigval :     1331.85  1367.76  1368.16  1391.49  1392.95  1408.45
eigval :     1410.05  1428.68  1433.11  1434.58  1436.70  1441.59
eigval :     1453.46  1458.88  1470.96  1472.94  1474.08  1483.12
eigval :     1484.57  1485.72  1486.36  1494.08  1495.20  1499.30
eigval :     1499.58  1569.63  1575.33  1577.43  1591.50  1591.59
eigval :     1593.54  1596.56  1599.42  1607.70  1608.82  3024.60
eigval :     3024.84  3027.85  3028.26  3029.83  3030.17  3032.40
eigval :     3033.10  3036.16  3036.40  3039.23  3039.72  3063.79
eigval :     3063.83  3068.31  3068.41  3071.49  3072.14  3073.69
eigval :     3073.74  3075.53  3075.66  3079.59  3081.36  3081.56
eigval :     3083.58  3083.75  3084.24  3086.36  3086.82  3093.17

   temp. (K)  partition function   enthalpy   heat capacity  entropy
                                   cal/mol     cal/K/mol   cal/K/mol   J/K/mol
 298.15  VIB  0.730E+13            18177.598    117.766    110.443
         ROT  0.200E+08              888.752      2.981     36.391
         INT  0.146E+21            19066.351    120.747    146.834
         TR   0.101E+29             1481.254      4.968     44.359
         TOT                       20547.6045   125.7149   191.1930   799.9516

       T/K    H(0)-H(T)+PV         H(T)/Eh          T*S/Eh         G(T)/Eh
   ------------------------------------------------------------------------
    298.15    0.327447E-01    0.582612E+00    0.908420E-01    0.491770E+00
   ------------------------------------------------------------------------

         :::::::::::::::::::::::::::::::::::::::::::::::::::::
         ::                  THERMODYNAMIC                  ::
         :::::::::::::::::::::::::::::::::::::::::::::::::::::
         :: total free energy         -95.425286219728 Eh   ::
         ::.................................................::
         :: total energy              -95.917056419779 Eh   ::
         :: zero point energy           0.549867485240 Eh   ::
         :: G(RRHO) w/o ZPVE           -0.058097285189 Eh   ::
         :: G(RRHO) contrib.            0.491770200051 Eh   ::
         :::::::::::::::::::::::::::::::::::::::::::::::::::::

           -------------------------------------------------
          | TOTAL ENERGY              -95.917056419779 Eh   |
          | TOTAL ENTHALPY            -95.334444242535 Eh   |
          | TOTAL FREE ENERGY         -95.425286219728 Eh   |
          | GRADIENT NORM               0.000033084025 Eh/α |
          | HOMO-LUMO GAP               2.511751859129 eV   |
           -------------------------------------------------

 * finished run on 2025/09/10 at 09:05:23.260
