   * xtb version 6.7.1 (edcfbbe) compiled by 'albert@albert-system' on 2024-07-22

   ID    Z sym.   atoms
    1    7 N      1, 6, 9, 14
    2    6 C      2-5, 7, 8, 10-13, 15-24
    3    1 H      25-32

          program call               : xtb data2507/gas/ANQDC/ANQDC_gas_T1_crest.xyz --gfn 2 --spinpol --tblite --uhf 2 --ohess vtight --parallel 40 --molden --ceasefiles --namespace data2507/gas/ANQDC/ANQDC_gas_T1_finalOpt
 * total energy  :   -58.4817777 Eh     change        0.3618808E-08 Eh
 * total energy  :   -58.4818606 Eh     change       -0.8282567E-04 Eh
 * total energy  :   -58.4818461 Eh     change        0.1449874E-04 Eh
 * total energy  :   -58.4818894 Eh     change       -0.4330244E-04 Eh
 * total energy  :   -58.4819004 Eh     change       -0.1102207E-04 Eh
 * total energy  :   -58.4818897 Eh     change        0.1074322E-04 Eh
 * total energy  :   -58.4819027 Eh     change       -0.1306650E-04 Eh
 * total energy  :   -58.4819013 Eh     change        0.1460990E-05 Eh
 * total energy  :   -58.4819031 Eh     change       -0.1807493E-05 Eh
 * total energy  :   -58.4819036 Eh     change       -0.5593099E-06 Eh
 * total energy  :   -58.4819031 Eh     change        0.5484419E-06 Eh
 * total energy  :   -58.4819037 Eh     change       -0.6226933E-06 Eh
 * total energy  :   -58.4819032 Eh     change        0.5402597E-06 Eh
 * total energy  :   -58.4819037 Eh     change       -0.5859773E-06 Eh
 * total energy  :   -58.4819036 Eh     change        0.1095519E-06 Eh
 * total energy  :   -58.4819038 Eh     change       -0.1454460E-06 Eh
 * total energy  :   -58.4819038 Eh     change       -0.4878896E-07 Eh
   *** GEOMETRY OPTIMIZATION CONVERGED AFTER 17 ITERATIONS ***

 final structure:
================
32
 xtb: 6.7.1 (edcfbbe)
N            6.02454209230507        2.00781624395391       -0.00528592496078
C            5.04372541966858        1.41385205159376       -0.00300744253874
C            3.82497576084557        0.70211228332214       -0.00062992725880
C            2.61590854726720        1.39864967465746       -0.00034652449849
C            1.39841432235033        0.72898881930306        0.00102333846574
N            0.23015877525443        1.36999162984053        0.00161324206479
C           -0.90936837291259        0.71817131930748        0.00162603738947
C           -0.90938424252994       -0.71821048471505        0.00100260256354
N            0.23013891629912       -1.37003654251386        0.00144771905276
C            1.39839779009796       -0.72904569030892        0.00157958975018
C            2.61589094862079       -1.39871778101114        0.00206633805256
C            3.82496486362620       -0.70219202771498        0.00106377366785
C            5.04373108852994       -1.41391208497671        0.00184456409224
N            6.02464875839346       -2.00773085163628        0.00279690783829
C           -2.28194374328291       -1.17008511698695       -0.00039136422449
C           -2.90924488200534       -2.39284632719465       -0.00225620543806
C           -4.31715355961408       -2.41418465397244       -0.00388035883965
C           -5.08561597739899       -1.27437825202470       -0.00352623531587
C           -4.46994158871382        0.00001539124194       -0.00156512709643
C           -5.08558653539073        1.27442435303326       -0.00099197102291
C           -4.31710207248831        2.41421643979164        0.00075599483467
C           -2.90919365255676        2.39284502639123        0.00180213902721
C           -2.28192489987086        1.17006708142749        0.00120333116465
C           -3.07790673267903       -0.00000135823254       -0.00019817182455
H            2.61330235437620        2.47744599052934       -0.00126028452696
H            2.61327331120825       -2.47751410259333        0.00300845854025
H           -2.35221643909972       -3.31697244210149       -0.00258318667406
H           -4.80774202268318       -3.37678939316966       -0.00552748180979
H           -6.16326362022200       -1.34570513319094       -0.00485551352369
H           -6.16323253041786        1.34577623204024       -0.00194712983706
H           -4.80766874224604        3.37683254567684        0.00127792524202
H           -2.35214192823094        3.31695631153333        0.00300800294411

 projected vibrational frequencies (cm⁻¹)
eigval :       -0.00    -0.00    -0.00     0.00     0.00     0.00
eigval :       36.73    40.94    90.75    98.54   102.02   112.79
eigval :      152.55   161.73   189.70   197.19   251.02   258.44
eigval :      290.86   310.39   375.41   383.07   399.38   416.77
eigval :      420.86   426.37   458.97   478.45   478.83   524.87
eigval :      535.29   549.72   565.22   568.26   589.59   590.89
eigval :      631.74   639.65   641.48   669.27   672.48   704.65
eigval :      722.97   728.34   771.70   789.47   801.73   810.08
eigval :      816.26   839.10   869.99   886.76   891.68   920.26
eigval :      926.39   968.71  1030.34  1078.70  1079.03  1112.68
eigval :     1123.52  1150.26  1177.84  1184.45  1190.90  1207.77
eigval :     1229.11  1233.10  1245.52  1256.92  1262.41  1328.78
eigval :     1364.02  1369.59  1387.29  1399.25  1406.36  1429.19
eigval :     1433.45  1476.16  1495.33  1510.76  1520.03  1576.77
eigval :     1596.04  1614.47  2360.07  2365.76  3078.97  3080.23
eigval :     3089.51  3091.51  3099.92  3100.98  3103.82  3103.98

   temp. (K)  partition function   enthalpy   heat capacity  entropy
                                   cal/mol     cal/K/mol   cal/K/mol   J/K/mol
 298.15  VIB  0.529E+06             9325.714     63.510     55.082
         ROT  0.452E+07              888.752      2.981     33.436
         INT  0.239E+13            10214.467     66.491     88.518
         TR   0.514E+28             1481.254      4.968     43.016
         TOT                       11695.7206    71.4593   131.5335   550.3363

       T/K    H(0)-H(T)+PV         H(T)/Eh          T*S/Eh         G(T)/Eh
   ------------------------------------------------------------------------
    298.15    0.186383E-01    0.234388E+00    0.624958E-01    0.171892E+00
   ------------------------------------------------------------------------

         :::::::::::::::::::::::::::::::::::::::::::::::::::::
         ::                  THERMODYNAMIC                  ::
         :::::::::::::::::::::::::::::::::::::::::::::::::::::
         :: total free energy         -58.310011825355 Eh   ::
         ::.................................................::
         :: total energy              -58.481903839482 Eh   ::
         :: zero point energy           0.215749518129 Eh   ::
         :: G(RRHO) w/o ZPVE           -0.043857504003 Eh   ::
         :: G(RRHO) contrib.            0.171892014126 Eh   ::
         :::::::::::::::::::::::::::::::::::::::::::::::::::::

           -------------------------------------------------
          | TOTAL ENERGY              -58.481903839482 Eh   |
          | TOTAL ENTHALPY            -58.247516004208 Eh   |
          | TOTAL FREE ENERGY         -58.310011825355 Eh   |
          | GRADIENT NORM               0.000126024644 Eh/α |
           -------------------------------------------------

 * finished run on 2025/09/13 at 13:04:16.172
