   * xtb version 6.7.1 (edcfbbe) compiled by 'albert@albert-system' on 2024-07-22

   ID    Z sym.   atoms
    1    7 N      1, 6, 9, 14
    2    6 C      2-5, 7, 8, 10-13, 15-24
    3    1 H      25-32

          program call               : xtb data2507/gas/ANQDC/ANQDC_gas_S0_crest.xyz --gfn 2 --ohess vtight --parallel 40 --molden --ceasefiles --namespace data2507/gas/ANQDC/ANQDC_gas_S0_finalOpt
          :  Hamiltonian                  GFN2-xTB          :
 * total energy  :   -58.5296468 Eh     change       -0.1409219E-09 Eh
 * total energy  :   -58.5296393 Eh     change        0.7525275E-05 Eh
 * total energy  :   -58.5296472 Eh     change       -0.7931872E-05 Eh
 * total energy  :   -58.5296476 Eh     change       -0.3407626E-06 Eh
 * total energy  :   -58.5296464 Eh     change        0.1197602E-05 Eh
 * total energy  :   -58.5296491 Eh     change       -0.2729133E-05 Eh
 * total energy  :   -58.5296500 Eh     change       -0.9127905E-06 Eh
 * total energy  :   -58.5296507 Eh     change       -0.6843716E-06 Eh
 * total energy  :   -58.5296519 Eh     change       -0.1189601E-05 Eh
 * total energy  :   -58.5296527 Eh     change       -0.7732863E-06 Eh
 * total energy  :   -58.5296529 Eh     change       -0.2513124E-06 Eh
 * total energy  :   -58.5296529 Eh     change       -0.3900539E-07 Eh
   *** GEOMETRY OPTIMIZATION CONVERGED AFTER 12 ITERATIONS ***

 final structure:
================
32
 xtb: 6.7.1 (edcfbbe)
N            6.00383746686532        1.98726674089477       -0.00267030554029
C            5.01481577424876        1.40931463531747       -0.00197595270049
C            3.78365204069548        0.71131556384505       -0.00099719170253
C            2.59395772469618        1.40564288991081       -0.00052103519537
C            1.37231907104179        0.71364829572899        0.00032244287755
N            0.21863995310626        1.42958466122846        0.00022528186725
C           -0.87695279669012        0.72828569253689        0.00070956644668
C           -0.87698074366249       -0.72819350057399        0.00149847572746
N            0.21856990575899       -1.42955241208953        0.00179787674108
C            1.37228198230520       -0.71367986646380        0.00108063642186
C            2.59387207949344       -1.40575785336479        0.00072945602440
C            3.78360766769462       -0.71150867663961       -0.00052359567418
C            5.01469655878858       -1.40964022823476       -0.00178183269910
N            6.00360120951091       -1.98779308575691       -0.00309442205087
C           -2.25880486678654       -1.17677301255019        0.00171094157590
C           -2.89016739406261       -2.39598794868425        0.00224020143011
C           -4.29708023111139       -2.41599404761645        0.00216398773641
C           -5.05898534373595       -1.27116846268326        0.00159979413566
C           -4.44125019015030        0.00007741940859        0.00103287469117
C           -5.05897372718992        1.27132804473294        0.00042030681270
C           -4.29704914102127        2.41614071562767       -0.00007752670860
C           -2.89013331049193        2.39612200362927       -0.00004056242707
C           -2.25877331127882        1.17690423907273        0.00052509937957
C           -3.04384509523199        0.00007386875622        0.00108967350626
H            2.57837831695856        2.48486352741550       -0.00094622612733
H            2.57821371174525       -2.48497697123502        0.00125759248961
H           -2.33017749225955       -3.31805707245830        0.00273559204120
H           -4.79345349761057       -3.37557546337743        0.00256774005667
H           -6.13730671068460       -1.33716050266365        0.00154373852313
H           -6.13729442486133        1.33733252088736        0.00040669229261
H           -4.79341244904966        3.37572829891159       -0.00046743564880
H           -2.33015045533034        3.31819549428764       -0.00050528050268

          :  Hamiltonian                  GFN2-xTB          :
         :: gradient norm              0.000035599919 Eh/a0 ::
         :: HOMO-LUMO gap              1.398894077794 eV    ::
         :: SCC energy               -59.658773154382 Eh    ::
         :: -> dispersion             -0.042757153301 Eh    ::
         :: repulsion energy           1.129120213028 Eh    ::

    * Orbital Energies and Occupations

         #    Occupation            Energy/Eh            Energy/eV
      -------------------------------------------------------------
         1        2.0000           -0.7002817             -19.0556
       ...           ...                  ...                  ...
        42        2.0000           -0.4719552             -12.8426
        43        2.0000           -0.4689059             -12.7596
        44        2.0000           -0.4581391             -12.4666
        45        2.0000           -0.4462094             -12.1420
        46        2.0000           -0.4439414             -12.0803
        47        2.0000           -0.4389216             -11.9437
        48        2.0000           -0.4368891             -11.8884
        49        2.0000           -0.4348102             -11.8318
        50        2.0000           -0.4318929             -11.7524
        51        2.0000           -0.4312385             -11.7346
        52        2.0000           -0.4221773             -11.4880
        53        2.0000           -0.4109577             -11.1827
        54        2.0000           -0.3733035             -10.1581 (HOMO)
        55                         -0.3218951              -8.7592 (LUMO)
        56                         -0.3192416              -8.6870
        57                         -0.2891574              -7.8684
        58                         -0.2581301              -7.0241
        59                         -0.2551003              -6.9416
        60                         -0.2210193              -6.0142
        61                         -0.2193202              -5.9680
        62                         -0.2158285              -5.8730
        63                         -0.2019020              -5.4940
        64                         -0.1769893              -4.8161
        65                         -0.1746754              -4.7532
       ...                                ...                  ...
       104                          1.1776405              32.0452
      -------------------------------------------------------------
                  HL-Gap            0.0514084 Eh            1.3989 eV

     #   Z          covCN         q      C6AA      α(0)
     1   7 N        0.911    -0.210    25.563     7.312
     2   6 C        1.911     0.115    28.260     8.585
     3   6 C        2.974     0.025    27.434     8.592
     4   6 C        2.928    -0.027    28.688     8.784
     5   6 C        2.988     0.083    26.139     8.387
     6   7 N        1.839    -0.230    26.887     7.684
     7   6 C        3.058     0.091    25.913     8.348
     8   6 C        3.058     0.091    25.913     8.348
     9   7 N        1.839    -0.230    26.887     7.684
    10   6 C        2.988     0.083    26.139     8.387
    11   6 C        2.928    -0.027    28.688     8.784
    12   6 C        2.974     0.025    27.434     8.592
    13   6 C        1.911     0.115    28.260     8.585
    14   7 N        0.911    -0.210    25.563     7.312
    15   6 C        3.026    -0.004    28.097     8.695
    16   6 C        2.912    -0.015    28.394     8.738
    17   6 C        2.919    -0.026    28.647     8.777
    18   6 C        2.918    -0.026    28.643     8.776
    19   6 C        2.976     0.018    27.592     8.616
    20   6 C        2.918    -0.026    28.643     8.776
    21   6 C        2.919    -0.026    28.647     8.777
    22   6 C        2.912    -0.015    28.394     8.738
    23   6 C        3.026    -0.004    28.097     8.695
    24   6 C        3.141    -0.004    27.871     8.639
    25   1 H        0.926     0.068     2.105     2.269
    26   1 H        0.926     0.068     2.105     2.269
    27   1 H        0.926     0.056     2.247     2.344
    28   1 H        0.926     0.046     2.369     2.407
    29   1 H        0.926     0.045     2.379     2.412
    30   1 H        0.926     0.045     2.379     2.412
    31   1 H        0.926     0.046     2.369     2.407
    32   1 H        0.926     0.056     2.247     2.344

molecular dipole:
                 x           y           z       tot (Debye)
 q only:       -3.275       0.000       0.001
   full:       -4.139       0.000       0.002      10.519

 projected vibrational frequencies (cm⁻¹)
eigval :       -0.00    -0.00    -0.00     0.00     0.00     0.00
eigval :       37.44    37.61    92.07    98.27   101.40   105.13
eigval :      154.98   166.45   191.65   192.71   256.26   266.54
eigval :      313.52   314.95   372.02   377.06   385.86   421.41
eigval :      422.13   444.03   456.57   477.29   478.75   525.16
eigval :      537.14   558.44   562.55   583.25   593.67   603.27
eigval :      641.75   661.69   668.58   698.56   733.09   734.82
eigval :      738.83   755.51   787.84   789.57   815.72   838.51
eigval :      855.37   876.10   894.68   899.97   907.60   924.35
eigval :      930.43   971.57  1057.46  1080.38  1109.55  1113.23
eigval :     1138.06  1171.99  1177.23  1189.24  1191.73  1230.60
eigval :     1231.58  1250.87  1262.49  1290.51  1330.68  1363.24
eigval :     1369.81  1398.73  1408.88  1412.35  1437.39  1450.15
eigval :     1467.50  1483.00  1540.21  1568.48  1582.97  1601.64
eigval :     1608.58  1614.49  2375.82  2376.44  3077.77  3079.46
eigval :     3088.89  3090.36  3102.74  3102.78  3104.32  3104.82

   temp. (K)  partition function   enthalpy   heat capacity  entropy
                                   cal/mol     cal/K/mol   cal/K/mol   J/K/mol
 298.15  VIB  0.504E+06             9183.340     62.281     54.379
         ROT  0.449E+07              888.752      2.981     33.419
         INT  0.226E+13            10072.092     65.262     87.797
         TR   0.514E+28             1481.254      4.968     43.016
         TOT                       11553.3464    70.2302   130.8130   547.3216

       T/K    H(0)-H(T)+PV         H(T)/Eh          T*S/Eh         G(T)/Eh
   ------------------------------------------------------------------------
    298.15    0.184114E-01    0.236862E+00    0.621535E-01    0.174708E+00
   ------------------------------------------------------------------------

         :::::::::::::::::::::::::::::::::::::::::::::::::::::
         ::                  THERMODYNAMIC                  ::
         :::::::::::::::::::::::::::::::::::::::::::::::::::::
         :: total free energy         -58.354944819139 Eh   ::
         ::.................................................::
         :: total energy              -58.529652941353 Eh   ::
         :: zero point energy           0.218450172838 Eh   ::
         :: G(RRHO) w/o ZPVE           -0.043742050624 Eh   ::
         :: G(RRHO) contrib.            0.174708122214 Eh   ::
         :::::::::::::::::::::::::::::::::::::::::::::::::::::

           -------------------------------------------------
          | TOTAL ENERGY              -58.529652941353 Eh   |
          | TOTAL ENTHALPY            -58.292791339147 Eh   |
          | TOTAL FREE ENERGY         -58.354944819139 Eh   |
          | GRADIENT NORM               0.000035533224 Eh/α |
          | HOMO-LUMO GAP               1.398894037049 eV   |
           -------------------------------------------------

 * finished run on 2025/09/13 at 13:03:11.086
