   * xtb version 6.7.1 (edcfbbe) compiled by 'albert@albert-system' on 2024-07-22

   ID    Z sym.   atoms
    1    7 N      1, 6, 9, 14
    2    6 C      2-5, 7, 8, 10-13, 15-24
    3    1 H      25-32

          program call               : xtb data2507/gas/ANQDC/ANQDC.xyz --gfn 2 --ohess vtight --parallel 40 --molden --ceasefiles --namespace data2507/gas/ANQDC/ANQDC_gas_S0_preOpt
          :  Hamiltonian                  GFN2-xTB          :
 * total energy  :   -58.5182682 Eh     change       -0.2513474E-09 Eh
 * total energy  :   -58.5275495 Eh     change       -0.9281300E-02 Eh
 * total energy  :   -58.5293839 Eh     change       -0.1834402E-02 Eh
 * total energy  :   -58.5295584 Eh     change       -0.1745236E-03 Eh
 * total energy  :   -58.5296368 Eh     change       -0.7845103E-04 Eh
 * total energy  :   -58.5296105 Eh     change        0.2639002E-04 Eh
 * total energy  :   -58.5296435 Eh     change       -0.3303287E-04 Eh
 * total energy  :   -58.5296428 Eh     change        0.7084310E-06 Eh
 * total energy  :   -58.5296437 Eh     change       -0.9462006E-06 Eh
 * total energy  :   -58.5296511 Eh     change       -0.7384065E-05 Eh
 * total energy  :   -58.5296525 Eh     change       -0.1384347E-05 Eh
 * total energy  :   -58.5296528 Eh     change       -0.3042624E-06 Eh
 * total energy  :   -58.5296530 Eh     change       -0.1663430E-06 Eh
 * total energy  :   -58.5296528 Eh     change        0.1441981E-06 Eh
 * total energy  :   -58.5296525 Eh     change        0.2798416E-06 Eh
 * total energy  :   -58.5296530 Eh     change       -0.4228194E-06 Eh
 * total energy  :   -58.5296529 Eh     change        0.1691049E-07 Eh
 * total energy  :   -58.5296530 Eh     change       -0.2083637E-07 Eh
   *** GEOMETRY OPTIMIZATION CONVERGED AFTER 18 ITERATIONS ***

 final structure:
================
32
 xtb: 6.7.1 (edcfbbe)
N            6.68004701428793        1.98746301899522       -0.00030769454476
C            5.69104393998830        1.40942442051804       -0.00016174146862
C            4.45988248287649        0.71141383625548       -0.00003134917317
C            3.27017959188664        1.40570671478555        0.00000420819304
C            2.04855753969378        0.71366850401918        0.00004289410597
N            0.89486409718376        1.42956222519013        0.00006371972492
C           -0.20071232721610        0.72823104075897        0.00005625214394
C           -0.20071246102843       -0.72823012244613        0.00003312280817
N            0.89486390784958       -1.42956104206105        0.00002533007981
C            2.04855702334039       -0.71366676046732        0.00003368714380
C            3.27017838180989       -1.40570535357306        0.00003010615054
C            4.45988151729956       -0.71141275118917        0.00000265004772
C            5.69103652499873       -1.40942996310935        0.00002494270776
N            6.68000713299530       -1.98746863134469        0.00006110569228
C           -1.58253650366625       -1.17683862889948        0.00000928369721
C           -2.21389579055488       -2.39605656430872       -0.00001806440239
C           -3.62080903324341       -2.41606701174919       -0.00003728647299
C           -4.38272619924621       -1.27125007737669       -0.00003345997276
C           -3.76500246540322        0.00000025346113        0.00000455042778
C           -4.38272618607955        1.27125060574719        0.00001408138711
C           -3.62080904728417        2.41606759563608        0.00003626482413
C           -2.21389576192420        2.39605717894427        0.00005222838380
C           -1.58253647630930        1.17683923514207        0.00004939170711
C           -2.36759435786771        0.00000027468667        0.00002410009502
H            3.25456616406274        2.48492731029569       -0.00001213958716
H            3.25456407861896       -2.48492605265398        0.00004663763644
H           -1.65390429092897       -3.31812460935580       -0.00001496035148
H           -4.11718560225434       -3.37564725601205       -0.00006603403374
H           -5.46104701254882       -1.33726132067843       -0.00007400059643
H           -5.46104703977822        1.33726184413266        0.00000181431457
H           -4.11718563248434        3.37564785820936        0.00005681974782
H           -1.65390420907396        3.31812522844742        0.00008453958455

          :  Hamiltonian                  GFN2-xTB          :
         :: gradient norm              0.000077884236 Eh/a0 ::
         :: HOMO-LUMO gap              1.398860105482 eV    ::
         :: SCC energy               -59.658754496211 Eh    ::
         :: -> dispersion             -0.042757161218 Eh    ::
         :: repulsion energy           1.129101529102 Eh    ::

    * Orbital Energies and Occupations

         #    Occupation            Energy/Eh            Energy/eV
      -------------------------------------------------------------
         1        2.0000           -0.7002824             -19.0557
       ...           ...                  ...                  ...
        42        2.0000           -0.4719542             -12.8425
        43        2.0000           -0.4689058             -12.7596
        44        2.0000           -0.4581390             -12.4666
        45        2.0000           -0.4462093             -12.1420
        46        2.0000           -0.4439411             -12.0803
        47        2.0000           -0.4389214             -11.9437
        48        2.0000           -0.4368894             -11.8884
        49        2.0000           -0.4348106             -11.8318
        50        2.0000           -0.4318927             -11.7524
        51        2.0000           -0.4312394             -11.7346
        52        2.0000           -0.4221771             -11.4880
        53        2.0000           -0.4109579             -11.1827
        54        2.0000           -0.3733035             -10.1581 (HOMO)
        55                         -0.3218963              -8.7592 (LUMO)
        56                         -0.3192416              -8.6870
        57                         -0.2891581              -7.8684
        58                         -0.2581306              -7.0241
        59                         -0.2551010              -6.9417
        60                         -0.2210277              -6.0145
        61                         -0.2193209              -5.9680
        62                         -0.2158308              -5.8731
        63                         -0.2019025              -5.4940
        64                         -0.1769937              -4.8162
        65                         -0.1746769              -4.7532
       ...                                ...                  ...
       104                          1.1775781              32.0435
      -------------------------------------------------------------
                  HL-Gap            0.0514072 Eh            1.3989 eV

     #   Z          covCN         q      C6AA      α(0)
     1   7 N        0.911    -0.210    25.563     7.312
     2   6 C        1.911     0.115    28.260     8.585
     3   6 C        2.974     0.025    27.434     8.592
     4   6 C        2.928    -0.027    28.688     8.784
     5   6 C        2.988     0.083    26.139     8.387
     6   7 N        1.839    -0.230    26.887     7.684
     7   6 C        3.058     0.091    25.913     8.348
     8   6 C        3.058     0.091    25.913     8.348
     9   7 N        1.839    -0.230    26.887     7.684
    10   6 C        2.988     0.083    26.139     8.387
    11   6 C        2.928    -0.027    28.688     8.784
    12   6 C        2.974     0.025    27.434     8.592
    13   6 C        1.911     0.115    28.260     8.585
    14   7 N        0.911    -0.210    25.563     7.312
    15   6 C        3.026    -0.004    28.097     8.695
    16   6 C        2.912    -0.015    28.394     8.738
    17   6 C        2.919    -0.026    28.647     8.777
    18   6 C        2.918    -0.026    28.643     8.776
    19   6 C        2.976     0.018    27.592     8.616
    20   6 C        2.918    -0.026    28.643     8.776
    21   6 C        2.919    -0.026    28.647     8.777
    22   6 C        2.912    -0.015    28.394     8.738
    23   6 C        3.026    -0.004    28.097     8.695
    24   6 C        3.141    -0.004    27.871     8.639
    25   1 H        0.926     0.068     2.105     2.269
    26   1 H        0.926     0.068     2.105     2.269
    27   1 H        0.926     0.056     2.247     2.344
    28   1 H        0.926     0.046     2.369     2.407
    29   1 H        0.926     0.045     2.379     2.412
    30   1 H        0.926     0.045     2.379     2.412
    31   1 H        0.926     0.046     2.369     2.407
    32   1 H        0.926     0.056     2.247     2.344

molecular dipole:
                 x           y           z       tot (Debye)
 q only:       -3.275       0.000       0.000
   full:       -4.139       0.000       0.000      10.519

 projected vibrational frequencies (cm⁻¹)
eigval :       -0.00    -0.00    -0.00     0.00     0.00     0.00
eigval :       37.28    37.71    92.11    98.34   101.50   105.02
eigval :      155.42   166.49   191.84   192.91   256.26   266.58
eigval :      313.67   314.96   371.75   377.07   385.75   421.41
eigval :      422.58   444.05   456.64   477.32   478.75   525.16
eigval :      537.16   558.45   562.55   583.04   593.80   603.27
eigval :      641.76   661.74   668.59   698.75   733.09   734.73
eigval :      738.84   755.60   787.86   789.57   815.89   838.51
eigval :      855.32   876.07   894.65   899.86   907.60   924.29
eigval :      930.34   971.57  1057.46  1080.38  1109.54  1113.25
eigval :     1138.05  1171.99  1177.23  1189.24  1191.73  1230.60
eigval :     1231.59  1250.86  1262.49  1290.51  1330.68  1363.24
eigval :     1369.81  1398.73  1408.88  1412.35  1437.39  1450.15
eigval :     1467.50  1483.00  1540.21  1568.48  1582.96  1601.64
eigval :     1608.57  1614.48  2375.70  2376.36  3077.77  3079.46
eigval :     3088.89  3090.36  3102.73  3102.77  3104.32  3104.82

   temp. (K)  partition function   enthalpy   heat capacity  entropy
                                   cal/mol     cal/K/mol   cal/K/mol   J/K/mol
 298.15  VIB  0.503E+06             9182.150     62.278     54.366
         ROT  0.449E+07              888.752      2.981     33.419
         INT  0.226E+13            10070.902     65.259     87.785
         TR   0.514E+28             1481.254      4.968     43.016
         TOT                       11552.1561    70.2272   130.8005   547.2694

       T/K    H(0)-H(T)+PV         H(T)/Eh          T*S/Eh         G(T)/Eh
   ------------------------------------------------------------------------
    298.15    0.184095E-01    0.236862E+00    0.621476E-01    0.174715E+00
   ------------------------------------------------------------------------

         :::::::::::::::::::::::::::::::::::::::::::::::::::::
         ::                  THERMODYNAMIC                  ::
         :::::::::::::::::::::::::::::::::::::::::::::::::::::
         :: total free energy         -58.354938371378 Eh   ::
         ::.................................................::
         :: total energy              -58.529652967106 Eh   ::
         :: zero point energy           0.218452618274 Eh   ::
         :: G(RRHO) w/o ZPVE           -0.043738022546 Eh   ::
         :: G(RRHO) contrib.            0.174714595728 Eh   ::
         :::::::::::::::::::::::::::::::::::::::::::::::::::::

           -------------------------------------------------
          | TOTAL ENERGY              -58.529652967106 Eh   |
          | TOTAL ENTHALPY            -58.292790816215 Eh   |
          | TOTAL FREE ENERGY         -58.354938371378 Eh   |
          | GRADIENT NORM               0.000077888390 Eh/α |
          | HOMO-LUMO GAP               1.398861109522 eV   |
           -------------------------------------------------

 * finished run on 2025/09/13 at 13:02:17.926
