   * xtb version 6.7.1 (edcfbbe) compiled by 'albert@albert-system' on 2024-07-22

   ID    Z sym.   atoms
    1    7 N      1, 6, 9, 14
    2    6 C      2-5, 7, 8, 10-13, 15-24
    3    1 H      25-32

          program call               : xtb data2507/gas/ANQDC/ANQDC_gas_S0_finalOpt.xtbopt.xyz --gfn 2 --spinpol --tblite --uhf 2 --ohess vtight --parallel 40 --molden --ceasefiles --namespace data2507/gas/ANQDC/ANQDC_gas_T1_preOpt
 * total energy  :   -58.4754466 Eh     change       -0.4621064E-08 Eh
 * total energy  :   -58.4800981 Eh     change       -0.4651491E-02 Eh
 * total energy  :   -58.4816968 Eh     change       -0.1598681E-02 Eh
 * total energy  :   -58.4818518 Eh     change       -0.1550376E-03 Eh
 * total energy  :   -58.4818309 Eh     change        0.2094081E-04 Eh
 * total energy  :   -58.4818850 Eh     change       -0.5411968E-04 Eh
 * total energy  :   -58.4818819 Eh     change        0.3135772E-05 Eh
 * total energy  :   -58.4818997 Eh     change       -0.1779822E-04 Eh
 * total energy  :   -58.4819002 Eh     change       -0.5404468E-06 Eh
 * total energy  :   -58.4819037 Eh     change       -0.3537078E-05 Eh
 * total energy  :   -58.4819015 Eh     change        0.2256769E-05 Eh
 * total energy  :   -58.4819039 Eh     change       -0.2398565E-05 Eh
 * total energy  :   -58.4819036 Eh     change        0.2339753E-06 Eh
 * total energy  :   -58.4819039 Eh     change       -0.2858979E-06 Eh
 * total energy  :   -58.4819039 Eh     change        0.4375165E-07 Eh
 * total energy  :   -58.4819040 Eh     change       -0.7710216E-07 Eh
   *** GEOMETRY OPTIMIZATION CONVERGED AFTER 16 ITERATIONS ***

 final structure:
================
32
 xtb: 6.7.1 (edcfbbe)
N            6.02704391133041        2.00662592994929       -0.00252236889892
C            5.04569986940046        1.41349415037037       -0.00185269399402
C            3.82675363769454        0.70204155292630       -0.00104497314839
C            2.61771914972049        1.39860951888455       -0.00063275796561
C            1.40021798213961        0.72895754364053        0.00000109131311
N            0.23197640189673        1.37000444864066        0.00022569308048
C           -0.90757282405478        0.71818291899620        0.00069692832332
C           -0.90761073943233       -0.71814880901902        0.00116859404409
N            0.23188486480954       -1.37001701953811        0.00102316433147
C            1.40017076923915       -0.72905178590265        0.00037108441691
C            2.61762905602615       -1.39877963126471       -0.00003553736065
C            3.82670908255707       -0.70228521103993       -0.00078809692144
C            5.04560801505165       -1.41381536537166       -0.00130758594711
N            6.02689751422970       -2.00702412529080       -0.00183300698913
C           -2.28018709751917       -1.17002960969136        0.00154250448912
C           -2.90751334129974       -2.39278809206604        0.00204214595078
C           -4.31542944243050       -2.41409803471810        0.00214930535865
C           -5.08386535158883       -1.27428184557666        0.00176507716622
C           -4.46816693623207        0.00010572344819        0.00127537441039
C           -5.08380117545042        1.27452600053551        0.00079320545029
C           -4.31530501538438        2.41430377307542        0.00031271676305
C           -2.90738983805821        2.39292259206810        0.00026653369415
C           -2.28012295276496        1.17012868506898        0.00071491331667
C           -3.07613007157077        0.00006854064201        0.00121068328751
H            2.61515025760235        2.47741120132551       -0.00087556614351
H            2.61499637270515       -2.47758144447169        0.00020937663217
H           -2.35050655496671       -3.31692322115314        0.00232909128285
H           -4.80603539363171       -3.37669595738974        0.00252662676177
H           -6.16151923174608       -1.34557841854868        0.00182721619074
H           -6.16145074232247        1.34587925688953        0.00078192594423
H           -4.80586067816734        3.37692664950156       -0.00007399738022
H           -2.35033717353963        3.31702892251786       -0.00013452460491

 projected vibrational frequencies (cm⁻¹)
eigval :       -0.00    -0.00    -0.00    -0.00     0.00     0.00
eigval :       36.78    41.03    90.73    98.78   101.90   112.71
eigval :      152.52   161.92   189.60   197.12   250.95   258.45
eigval :      290.76   310.52   375.14   383.05   399.32   416.75
eigval :      420.94   426.29   458.97   478.55   478.94   524.84
eigval :      535.30   549.83   565.21   568.23   589.59   590.89
eigval :      631.72   639.64   641.48   669.25   672.61   704.74
eigval :      722.97   728.55   771.65   789.50   801.68   810.01
eigval :      816.22   839.22   869.95   886.69   891.61   920.20
eigval :      926.34   968.75  1030.23  1077.92  1079.06  1112.80
eigval :     1124.56  1150.31  1177.72  1184.31  1190.76  1207.95
eigval :     1228.94  1233.12  1245.59  1256.48  1262.56  1328.68
eigval :     1364.05  1369.39  1387.11  1399.37  1406.42  1429.17
eigval :     1433.45  1476.19  1495.26  1510.71  1520.01  1576.75
eigval :     1596.02  1614.54  2359.93  2365.57  3078.78  3080.06
eigval :     3089.33  3091.44  3099.94  3100.95  3103.62  3103.78

   temp. (K)  partition function   enthalpy   heat capacity  entropy
                                   cal/mol     cal/K/mol   cal/K/mol   J/K/mol
 298.15  VIB  0.527E+06             9325.635     63.513     55.082
         ROT  0.452E+07              888.752      2.981     33.436
         INT  0.238E+13            10214.387     66.494     88.518
         TR   0.514E+28             1481.254      4.968     43.016
         TOT                       11695.6410    71.4624   131.5335   550.3363

       T/K    H(0)-H(T)+PV         H(T)/Eh          T*S/Eh         G(T)/Eh
   ------------------------------------------------------------------------
    298.15    0.186382E-01    0.234383E+00    0.624958E-01    0.171888E+00
   ------------------------------------------------------------------------

         :::::::::::::::::::::::::::::::::::::::::::::::::::::
         ::                  THERMODYNAMIC                  ::
         :::::::::::::::::::::::::::::::::::::::::::::::::::::
         :: total free energy         -58.310016352433 Eh   ::
         ::.................................................::
         :: total energy              -58.481903956091 Eh   ::
         :: zero point energy           0.215745243932 Eh   ::
         :: G(RRHO) w/o ZPVE           -0.043857640273 Eh   ::
         :: G(RRHO) contrib.            0.171887603659 Eh   ::
         :::::::::::::::::::::::::::::::::::::::::::::::::::::

           -------------------------------------------------
          | TOTAL ENERGY              -58.481903956091 Eh   |
          | TOTAL ENTHALPY            -58.247520521782 Eh   |
          | TOTAL FREE ENERGY         -58.310016352433 Eh   |
          | GRADIENT NORM               0.000085833296 Eh/α |
           -------------------------------------------------

 * finished run on 2025/09/13 at 13:03:12.346
