   * xtb version 6.7.1 (edcfbbe) compiled by 'albert@albert-system' on 2024-07-22

   ID    Z sym.   atoms
    1    6 C      1-6, 8-17, 19, 20, 22, 24-33, 35-43, 45, 46
    2    8 O      7, 34
    3    7 N      18, 21, 23, 44
    4    1 H      47-68

          program call               : xtb data2507/toluene/BFCZPZ3/BFCZPZ3_toluene_T1_crest.xyz --gfn 2 --uhf 2 --gbsa toluene --ohess vtight --parallel 40 --molden --ceasefiles --namespace data2507/toluene/BFCZPZ3/BFCZPZ3_toluene_T1_finalOpt
      * Solvation model:               GBSA
        Solvent                        toluene
        Solvent mass                       9.2140E+01 g/mol
          :  Hamiltonian                  GFN2-xTB          :
 * total energy  :  -116.7882291 Eh     change       -0.5828454E-08 Eh
 * total energy  :  -116.7882881 Eh     change       -0.5899808E-04 Eh
 * total energy  :  -116.7883169 Eh     change       -0.2879393E-04 Eh
 * total energy  :  -116.7883255 Eh     change       -0.8627094E-05 Eh
 * total energy  :  -116.7883340 Eh     change       -0.8525117E-05 Eh
 * total energy  :  -116.7883391 Eh     change       -0.5040410E-05 Eh
 * total energy  :  -116.7883427 Eh     change       -0.3668938E-05 Eh
 * total energy  :  -116.7883457 Eh     change       -0.2927353E-05 Eh
 * total energy  :  -116.7883479 Eh     change       -0.2192656E-05 Eh
 * total energy  :  -116.7883498 Eh     change       -0.1926527E-05 Eh
 * total energy  :  -116.7883779 Eh     change       -0.1265932E-06 Eh
 * total energy  :  -116.7883781 Eh     change       -0.1885739E-06 Eh
 * total energy  :  -116.7883782 Eh     change       -0.1266100E-06 Eh
 * total energy  :  -116.7883783 Eh     change       -0.1470293E-06 Eh
 * total energy  :  -116.7883785 Eh     change       -0.1484423E-06 Eh
 * total energy  :  -116.7883786 Eh     change       -0.1670656E-06 Eh
 * total energy  :  -116.7883789 Eh     change       -0.2081177E-06 Eh
 * total energy  :  -116.7883790 Eh     change       -0.1072060E-06 Eh
 * total energy  :  -116.7883790 Eh     change       -0.4513019E-07 Eh
   *** GEOMETRY OPTIMIZATION CONVERGED AFTER 44 ITERATIONS ***

 final structure:
================
68
 xtb: 6.7.1 (edcfbbe)
C            1.85624573979610        4.04421542853183        2.43416181357893
C            1.14329107602121        2.84778612118347        2.39920186161137
C            1.62242553394726        1.74402733100050        1.72163772428295
C            2.84560278522771        1.84130654389192        1.06598484304972
C            3.56894105276454        3.05149614706965        1.14399649078916
C            3.08443624958604        4.16371788769072        1.80934527343007
O            4.77889089785041        2.95276505262029        0.53110939284951
C            4.87436927466916        1.67567121576090        0.06950335722595
C            6.00758450326397        1.13971655340851       -0.52918734827911
C            5.99574777398483       -0.20057230636960       -0.86559335335276
C            4.84830980202576       -0.95612311063523       -0.64594270651328
C            4.55119029508514       -2.34390246111351       -0.89077794041144
C            5.28527420513999       -3.40849373389600       -1.39398454765981
C            4.66903931387935       -4.64261568607432       -1.50391880824413
C            3.33946711203330       -4.82065810963152       -1.13106088864827
C            2.58713212324218       -3.77186172903410       -0.63189714543920
C            3.20666965942391       -2.53834418982163       -0.50983059179824
N            2.68191837526609       -1.33947146207841       -0.04924684592182
C            1.31474268739028       -1.14503291694079        0.12850706857074
C            0.65010667166471       -1.68125090306015        1.20557594652107
N           -0.66420733914485       -1.53849569048799        1.39201539877131
C           -1.37397670838774       -0.94892907545033        0.37739983374363
N           -2.75251468606437       -1.03686999671483        0.41609267627258
C           -3.40768882848424       -2.20788784713878        0.79609334255665
C           -2.90662588435749       -3.33257682184938        1.43205764591534
C           -3.78407599562267       -4.36881299354369        1.70121614867583
C           -5.12426295733188       -4.29715654565591        1.33225406624362
C           -5.62588930103421       -3.18067675663572        0.68736144992662
C           -4.76276450798825       -2.12919956526869        0.41527394805651
C           -4.93618285226926       -0.85346375883328       -0.22442613590675
C           -6.05496574365334       -0.28795421855586       -0.82270963200962
C           -5.96250792923807        0.97044742411921       -1.38382863163316
C           -4.75337670644698        1.64363928196002       -1.27207143693742
O           -4.55720474813860        2.91135607016620       -1.72258124803642
C           -3.29612315793419        3.25920497657596       -1.35576842843587
C           -2.69925635475630        4.48412340725976       -1.59124451764472
C           -1.41858119127549        4.66964769264453       -1.10332271998274
C           -0.77425084098015        3.66577959690286       -0.38554735585860
C           -1.37507303843914        2.44536749815815       -0.14966031997904
C           -2.64729425730549        2.21109856536771       -0.66593922017036
C           -3.59619882620529        1.12587393843368       -0.64234586171688
C           -3.67947335737811       -0.19393226101384       -0.17120360904321
C           -0.70474776560386       -0.43881007635968       -0.71682800704245
N            0.62129353593115       -0.46883681111589       -0.84257908194935
C            3.67191692356390       -0.38474477624358       -0.10158760396477
C            3.69507099096092        0.94275157835815        0.33075224837305
H            1.44715349540935        4.88862807441139        2.96730622591633
H            0.19596096562039        2.78323914494665        2.91306743189020
H            1.06726588195611        0.81992306185824        1.71357246840850
H            3.65768196231855        5.07618907643328        1.84555822507223
H            6.87353237466927        1.75950500310657       -0.69438554292505
H            6.86907732481353       -0.66063937709299       -1.29921013146831
H            6.31295611889882       -3.27394609439318       -1.69357699404307
H            5.22510468229673       -5.48394872742174       -1.88916993524377
H            2.88501265990846       -5.79453524334382       -1.23427100565415
H            1.55413212291707       -3.90692605663503       -0.34678038018627
H            1.19649611182407       -2.17901463030635        1.99374886904442
H           -1.86771772756462       -3.38757368124528        1.71590480947303
H           -3.41778597935299       -5.25197718981034        2.20257178397433
H           -5.77876770083663       -5.12704286656654        1.55255126435402
H           -6.66527007790521       -3.12412174459850        0.40366026987073
H           -6.98433796006609       -0.83328193317361       -0.85013957541592
H           -6.79734563731091        1.44303989895773       -1.87423581340992
H           -3.22674168030503        5.25690601108174       -2.12701255677563
H           -0.91717537787691        5.61090671894680       -1.26774740494493
H            0.21482358166443        3.84603496051429        0.00635978450331
H           -0.86321011442787        1.69605825907558        0.42950509511473
H           -1.25607427492700       -0.06324473233659       -1.56565679602185

          :  Hamiltonian                  GFN2-xTB          :
         :: gradient norm              0.000116216592 Eh/a0 ::
         :: HOMO-LUMO gap              0.448585126283 eV    ::
         :: SCC energy              -118.796220032557 Eh    ::
         :: -> dispersion             -0.105449698832 Eh    ::
         :: -> Gsolv                  -0.045126779792 Eh    ::
         :: repulsion energy           2.007841026456 Eh    ::

    * Orbital Energies and Occupations

         #    Occupation            Energy/Eh            Energy/eV
      -------------------------------------------------------------
         1        2.0000           -0.7451105             -20.2755
       ...           ...                  ...                  ...
        96        2.0000           -0.4281876             -11.6516
        97        2.0000           -0.4232280             -11.5166
        98        2.0000           -0.4189714             -11.4008
        99        2.0000           -0.4112766             -11.1914
       100        2.0000           -0.4093512             -11.1390
       101        2.0000           -0.4058024             -11.0424
       102        2.0000           -0.4038660             -10.9898
       103        2.0000           -0.3858059             -10.4983
       104        2.0000           -0.3849103             -10.4739
       105        2.0000           -0.3834724             -10.4348
       106        1.9997           -0.3799766             -10.3397
       107        1.0003           -0.3645831              -9.9208
       108        0.9998           -0.2806778              -7.6376 (HOMO)
       109        0.0001           -0.2641921              -7.1890 (LUMO)
       110        0.0001           -0.2631920              -7.1618
       111                         -0.2559654              -6.9652
       112                         -0.2506514              -6.8206
       113                         -0.2421210              -6.5884
       114                         -0.2295635              -6.2467
       115                         -0.2270621              -6.1787
       116                         -0.2211579              -6.0180
       117                         -0.2168357              -5.9004
       118                         -0.2048246              -5.5736
       119                         -0.2012229              -5.4756
       ...                                ...                  ...
       206                          0.7509526              20.4345
      -------------------------------------------------------------
                  HL-Gap            0.0164856 Eh            0.4486 eV

     #   Z          covCN         q      C6AA      α(0)
     1   6 C        2.926    -0.031    28.763     8.795
     2   6 C        2.920    -0.036    28.891     8.814
     3   6 C        2.913    -0.033    28.822     8.803
     4   6 C        3.050    -0.018    28.401     8.740
     5   6 C        3.100     0.128    25.081     8.207
     6   6 C        2.908    -0.052    29.299     8.876
     7   8 O        1.715    -0.229    17.789     5.695
     8   6 C        3.098     0.125    25.142     8.217
     9   6 C        2.910    -0.058    29.452     8.899
    10   6 C        2.918    -0.032    28.806     8.801
    11   6 C        3.065    -0.021    28.468     8.749
    12   6 C        3.064    -0.010    28.199     8.708
    13   6 C        2.913    -0.031    28.767     8.795
    14   6 C        2.920    -0.035    28.864     8.810
    15   6 C        2.924    -0.031    28.782     8.798
    16   6 C        2.910    -0.044    29.103     8.846
    17   6 C        3.081     0.048    26.836     8.493
    18   7 N        2.801    -0.037    21.952     6.959
    19   6 C        2.877     0.125    25.264     8.240
    20   6 C        2.881     0.033    27.254     8.558
    21   7 N        1.841    -0.280    28.122     7.859
    22   6 C        2.874     0.124    25.273     8.241
    23   7 N        2.798    -0.028    21.780     6.931
    24   6 C        3.072     0.051    26.791     8.487
    25   6 C        2.910    -0.042    29.042     8.837
    26   6 C        2.923    -0.033    28.816     8.803
    27   6 C        2.920    -0.034    28.840     8.807
    28   6 C        2.913    -0.032    28.787     8.798
    29   6 C        3.060    -0.012    28.244     8.715
    30   6 C        3.066    -0.021    28.452     8.747
    31   6 C        2.918    -0.033    28.826     8.804
    32   6 C        2.910    -0.059    29.477     8.903
    33   6 C        3.104     0.125    25.137     8.215
    34   8 O        1.715    -0.229    17.795     5.696
    35   6 C        3.100     0.127    25.101     8.210
    36   6 C        2.908    -0.053    29.322     8.879
    37   6 C        2.926    -0.031    28.773     8.797
    38   6 C        2.920    -0.037    28.921     8.819
    39   6 C        2.914    -0.037    28.916     8.818
    40   6 C        3.050    -0.022    28.511     8.757
    41   6 C        3.035    -0.037    28.896     8.817
    42   6 C        3.047     0.036    27.143     8.545
    43   6 C        2.884     0.039    27.127     8.539
    44   7 N        1.839    -0.277    28.041     7.848
    45   6 C        3.062     0.052    26.780     8.486
    46   6 C        3.042    -0.034    28.794     8.801
    47   1 H        0.926     0.051     2.309     2.376
    48   1 H        0.926     0.042     2.417     2.431
    49   1 H        0.926     0.026     2.640     2.541
    50   1 H        0.926     0.054     2.275     2.359
    51   1 H        0.926     0.058     2.225     2.333
    52   1 H        0.926     0.059     2.216     2.328
    53   1 H        0.926     0.048     2.346     2.395
    54   1 H        0.926     0.045     2.377     2.411
    55   1 H        0.926     0.044     2.401     2.423
    56   1 H        0.926     0.028     2.616     2.529
    57   1 H        0.926     0.043     2.409     2.427
    58   1 H        0.926     0.051     2.302     2.373
    59   1 H        0.926     0.044     2.401     2.423
    60   1 H        0.926     0.045     2.384     2.414
    61   1 H        0.926     0.047     2.362     2.403
    62   1 H        0.926     0.058     2.225     2.332
    63   1 H        0.926     0.057     2.235     2.338
    64   1 H        0.926     0.053     2.287     2.365
    65   1 H        0.926     0.049     2.330     2.387
    66   1 H        0.926     0.040     2.455     2.450
    67   1 H        0.926     0.032     2.565     2.504
    68   1 H        0.926     0.044     2.399     2.422

molecular dipole:
                 x           y           z       tot (Debye)
 q only:        0.070      -0.720       0.110
   full:        0.064      -0.619       0.076       1.593

 projected vibrational frequencies (cm⁻¹)
eigval :       -0.00    -0.00    -0.00     0.00     0.00     0.00
eigval :       12.37    15.36    24.80    38.50    50.94    56.44
eigval :       69.93    72.89    86.26    94.30   105.05   120.34
eigval :      133.06   139.50   143.16   148.22   162.99   167.28
eigval :      211.51   214.09   250.34   260.84   264.89   277.80
eigval :      285.58   296.88   308.51   329.99   342.44   343.51
eigval :      348.83   352.46   377.20   400.01   411.31   412.45
eigval :      420.44   431.65   440.60   451.00   461.40   473.43
eigval :      489.33   491.92   496.27   516.01   536.87   539.07
eigval :      542.06   543.01   547.93   553.60   558.33   564.15
eigval :      577.19   600.54   605.50   610.76   620.95   627.48
eigval :      627.85   630.96   637.69   658.06   677.82   679.75
eigval :      693.43   703.89   704.35   710.82   712.11   712.74
eigval :      730.58   771.97   774.50   775.18   777.85   790.35
eigval :      799.11   818.34   820.04   827.90   832.18   846.11
eigval :      847.71   850.95   853.07   867.82   868.34   873.15
eigval :      874.49   889.23   891.83   894.16   901.54   901.72
eigval :      905.18   906.46   917.98   921.53   924.57   925.95
eigval :      933.04   970.60   993.53   995.28  1036.68  1051.24
eigval :     1055.94  1065.79  1066.88  1066.98  1067.18  1088.42
eigval :     1094.17  1124.19  1127.32  1129.53  1134.28  1153.40
eigval :     1163.30  1168.36  1174.07  1175.32  1178.27  1195.54
eigval :     1197.88  1201.98  1203.79  1207.05  1229.40  1238.08
eigval :     1240.47  1245.86  1252.29  1253.72  1264.29  1272.03
eigval :     1283.71  1294.73  1297.21  1300.44  1344.80  1346.29
eigval :     1351.70  1353.72  1360.78  1363.98  1368.25  1385.17
eigval :     1390.78  1392.68  1411.38  1416.42  1418.87  1423.34
eigval :     1430.14  1439.55  1443.34  1469.08  1469.79  1471.66
eigval :     1473.36  1506.80  1549.08  1561.47  1562.60  1573.76
eigval :     1578.80  1581.33  1584.98  1591.89  1592.27  1595.74
eigval :     1598.27  1603.74  3064.33  3068.55  3076.71  3082.25
eigval :     3084.21  3086.50  3089.64  3090.56  3092.38  3096.06
eigval :     3098.21  3099.96  3100.32  3102.98  3104.21  3106.09
eigval :     3107.43  3107.55  3114.13  3115.32  3117.59  3129.13

   temp. (K)  partition function   enthalpy   heat capacity  entropy
                                   cal/mol     cal/K/mol   cal/K/mol   J/K/mol
 298.15  VIB  0.205E+14            19069.588    128.179    115.238
         ROT  0.577E+08              888.752      2.981     38.493
         INT  0.118E+22            19958.341    131.160    153.731
         TR   0.139E+29             1481.254      4.968     44.992
         TOT                       21439.5948   136.1277   198.7229   831.4564

       T/K    H(0)-H(T)+PV         H(T)/Eh          T*S/Eh         G(T)/Eh
   ------------------------------------------------------------------------
    298.15    0.341662E-01    0.531014E+00    0.944196E-01    0.436594E+00
   ------------------------------------------------------------------------

         :::::::::::::::::::::::::::::::::::::::::::::::::::::
         ::                  THERMODYNAMIC                  ::
         :::::::::::::::::::::::::::::::::::::::::::::::::::::
         :: total free energy        -116.351784804247 Eh   ::
         ::.................................................::
         :: total energy             -116.788379013689 Eh   ::
         :: zero point energy           0.496847683513 Eh   ::
         :: G(RRHO) w/o ZPVE           -0.060253474070 Eh   ::
         :: G(RRHO) contrib.            0.436594209442 Eh   ::
         :::::::::::::::::::::::::::::::::::::::::::::::::::::

           -------------------------------------------------
          | TOTAL ENERGY             -116.788379013689 Eh   |
          | TOTAL ENTHALPY           -116.257365161169 Eh   |
          | TOTAL FREE ENERGY        -116.351784804247 Eh   |
          | GRADIENT NORM               0.000114856802 Eh/α |
          | HOMO-LUMO GAP               0.448597361186 eV   |
           -------------------------------------------------

 * finished run on 2025/08/21 at 18:32:05.843
