   * xtb version 6.7.1 (edcfbbe) compiled by 'albert@albert-system' on 2024-07-22

   ID    Z sym.   atoms
    1    6 C      1-6, 8-17, 19, 20, 22, 24-33, 35-43, 45, 46
    2    8 O      7, 34
    3    7 N      18, 21, 23, 44
    4    1 H      47-68

          program call               : xtb data2507/toluene/BFCZPZ3/BFCZPZ3_toluene_S0_finalOpt.xtbopt.xyz --gfn 2 --uhf 2 --gbsa toluene --ohess vtight --parallel 40 --molden --ceasefiles --namespace data2507/toluene/BFCZPZ3/BFCZPZ3_toluene_T1_preOpt
      * Solvation model:               GBSA
        Solvent                        toluene
        Solvent mass                       9.2140E+01 g/mol
          :  Hamiltonian                  GFN2-xTB          :
 * total energy  :  -116.7840443 Eh     change       -0.3130395E-08 Eh
 * total energy  :  -116.7869974 Eh     change       -0.2953077E-02 Eh
 * total energy  :  -116.7878445 Eh     change       -0.8471478E-03 Eh
 * total energy  :  -116.7880113 Eh     change       -0.1667948E-03 Eh
 * total energy  :  -116.7881076 Eh     change       -0.9626786E-04 Eh
 * total energy  :  -116.7881327 Eh     change       -0.2513859E-04 Eh
 * total energy  :  -116.7881644 Eh     change       -0.3162951E-04 Eh
 * total energy  :  -116.7881820 Eh     change       -0.1759629E-04 Eh
 * total energy  :  -116.7882129 Eh     change       -0.3089463E-04 Eh
 * total energy  :  -116.7882448 Eh     change       -0.3197992E-04 Eh
 * total energy  :  -116.7885832 Eh     change       -0.1231456E-05 Eh
 * total energy  :  -116.7885848 Eh     change       -0.1539795E-05 Eh
 * total energy  :  -116.7885868 Eh     change       -0.2017373E-05 Eh
 * total energy  :  -116.7885891 Eh     change       -0.2351923E-05 Eh
 * total energy  :  -116.7885912 Eh     change       -0.2078899E-05 Eh
 * total energy  :  -116.7885927 Eh     change       -0.1452494E-05 Eh
 * total energy  :  -116.7885939 Eh     change       -0.1230844E-05 Eh
 * total energy  :  -116.7885951 Eh     change       -0.1241018E-05 Eh
 * total energy  :  -116.7885951 Eh     change       -0.1298969E-07 Eh
   *** GEOMETRY OPTIMIZATION CONVERGED AFTER 44 ITERATIONS ***

 final structure:
================
68
 xtb: 6.7.1 (edcfbbe)
C            2.03671247996658        3.97010939809908        2.74831010917609
C            1.19779641529063        3.26262666908505        1.89052652562469
C            1.65837539913155        2.18463821556983        1.16162913086900
C            2.98680058740616        1.79447642062740        1.30645827218808
C            3.82970795793195        2.55284815029925        2.14825836349983
C            3.37159156868556        3.63236014990444        2.88153678179026
O            5.11092193022479        2.09956429548483        2.11218844332557
C            5.12531384356565        1.05173635454360        1.24364019754657
C            6.27404958296050        0.36674162215304        0.86906811271593
C            6.15456666209097       -0.63416329213200       -0.07653078411585
C            4.90013859441387       -0.95927354655314       -0.57955023102510
C            4.48875423491675       -1.94145531877500       -1.54713475481772
C            5.17513653817368       -2.85559691158540       -2.33359057914689
C            4.44987498302071       -3.67250262103201       -3.18299535067132
C            3.06217906486664       -3.58434304457632       -3.25523825084274
C            2.35767552961101       -2.68249067408746       -2.47704846416649
C            3.08288348364953       -1.85863319118744       -1.63133899413482
N            2.62736341497356       -0.87121723677347       -0.76536367111947
C            1.29563584639170       -0.78176770750640       -0.37916915993746
C            0.93525050441367       -0.82443392073230        0.94893841153186
N           -0.33738753640477       -0.76113559507980        1.35397058538450
C           -1.29780970485847       -0.77630554874550        0.38631923747372
N           -2.62963020136031       -0.86026938562636        0.77355678825193
C           -3.08643052029588       -1.84017691954168        1.64727472967408
C           -2.36199348796363       -2.66128541795477        2.49632913816242
C           -3.06771186858926       -3.55544809875276        3.28224441579241
C           -4.45591860664737       -3.63893273870526        3.21430008352336
C           -5.18039761341158       -2.82513239406099        2.36125761742623
C           -4.49274656785621       -1.91875910610527        1.56694590736715
C           -4.90298013026141       -0.94214228915381        0.59328560404040
C           -6.15749184754789       -0.61692158077062        0.09054694983789
C           -6.27579177322729        0.37687866009246       -0.86263103070507
C           -5.12564663055059        1.05509077219466       -1.24510413534906
O           -5.10983691574704        2.09544354371109       -2.12253431588323
C           -3.82713125519188        2.54379844206973       -2.16584007655245
C           -3.36697354232307        3.61455828890111       -2.91057518797124
C           -2.03042139516111        3.94835360372390       -2.78433255742106
C           -1.19189518753461        3.24585415340704       -1.92208606674787
C           -1.65457861275695        2.17664965061421       -1.18167237319684
C           -2.98478693397056        1.78997428975926       -1.31938718273274
C           -3.83391624630357        0.78364713369103       -0.73841858765667
C           -3.72121430877235       -0.29124633160994        0.15287703730729
C           -0.93752929317511       -0.83132048234239       -0.94134705608583
N            0.33523596667579       -0.77367013795208       -1.34691912686092
C            3.71958390812883       -0.30127400035045       -0.14661438716091
C            3.83386426172774        0.78030366794821        0.73630972243507
H            1.64302897733535        4.80645121923580        3.30519523093434
H            0.16736398700479        3.56850499675619        1.78843026477161
H            1.00568449505457        1.66277761186440        0.48251212262245
H            4.04070758175232        4.18643064031687        3.52013595820285
H            7.22565569707746        0.63798818164533        1.29547995309998
H            7.02713071945855       -1.16506719399100       -0.42155177327957
H            6.25085497323061       -2.92316980656466       -2.28411561208314
H            4.96580901454416       -4.39097776938963       -3.80212521915574
H            2.52324523166082       -4.23438793947652       -3.92798310789943
H            1.28268603845162       -2.60845432399240       -2.53086653835360
H            1.68710135709419       -0.89346132309699        1.72042366473026
H           -1.28660011516869       -2.59103088632073        2.54678470235384
H           -2.52934856579335       -4.20314678404556        3.95770317571072
H           -4.97285797117353       -4.35133614323830        3.83957596188481
H           -6.25645859599812       -2.88928358660578        2.31473544568785
H           -7.03095480409914       -1.14238458492276        0.44156071736278
H           -7.22735768051591        0.64775017154477       -1.28935121800545
H           -4.03577220414445        4.16505445942121       -3.55258164358561
H           -1.63492164835126        4.77752003357370       -3.35056734453029
H           -0.15999785552535        3.54865035887077       -1.82576621896095
H           -1.00195018041658        1.65878885331593       -0.49946641614056
H           -1.68952167154481       -0.90583600492170       -1.71218596722624

          :  Hamiltonian                  GFN2-xTB          :
         :: gradient norm              0.000080569135 Eh/a0 ::
         :: HOMO-LUMO gap              0.451918074158 eV    ::
         :: SCC energy              -118.797267103279 Eh    ::
         :: -> dispersion             -0.103840197850 Eh    ::
         :: -> Gsolv                  -0.045697197556 Eh    ::
         :: repulsion energy           2.008671953362 Eh    ::

    * Orbital Energies and Occupations

         #    Occupation            Energy/Eh            Energy/eV
      -------------------------------------------------------------
         1        2.0000           -0.7453428             -20.2818
       ...           ...                  ...                  ...
        96        2.0000           -0.4280743             -11.6485
        97        2.0000           -0.4261764             -11.5969
        98        2.0000           -0.4186487             -11.3920
        99        2.0000           -0.4105251             -11.1710
       100        2.0000           -0.4101483             -11.1607
       101        2.0000           -0.4064708             -11.0606
       102        2.0000           -0.4035570             -10.9813
       103        2.0000           -0.3886948             -10.5769
       104        2.0000           -0.3851036             -10.4792
       105        2.0000           -0.3848968             -10.4736
       106        1.9306           -0.3733071             -10.1582
       107        1.0694           -0.3683739             -10.0240
       108        0.9998           -0.2804565              -7.6316 (HOMO)
       109        0.0001           -0.2638474              -7.1797 (LUMO)
       110        0.0001           -0.2637494              -7.1770
       111                         -0.2567638              -6.9869
       112                         -0.2503860              -6.8133
       113                         -0.2416099              -6.5745
       114                         -0.2285476              -6.2191
       115                         -0.2281437              -6.2081
       116                         -0.2207301              -6.0064
       117                         -0.2160254              -5.8783
       118                         -0.2052945              -5.5863
       119                         -0.1992480              -5.4218
       ...                                ...                  ...
       206                          0.7490699              20.3832
      -------------------------------------------------------------
                  HL-Gap            0.0166091 Eh            0.4520 eV

     #   Z          covCN         q      C6AA      α(0)
     1   6 C        2.926    -0.031    28.767     8.796
     2   6 C        2.919    -0.036    28.901     8.816
     3   6 C        2.914    -0.035    28.861     8.809
     4   6 C        3.050    -0.021    28.490     8.754
     5   6 C        3.099     0.128    25.090     8.209
     6   6 C        2.908    -0.053    29.309     8.877
     7   8 O        1.715    -0.230    17.804     5.697
     8   6 C        3.100     0.125    25.149     8.218
     9   6 C        2.910    -0.060    29.483     8.904
    10   6 C        2.918    -0.033    28.815     8.803
    11   6 C        3.065    -0.022    28.479     8.751
    12   6 C        3.062    -0.012    28.248     8.716
    13   6 C        2.913    -0.031    28.781     8.797
    14   6 C        2.920    -0.034    28.852     8.808
    15   6 C        2.924    -0.032    28.803     8.801
    16   6 C        2.910    -0.042    29.042     8.837
    17   6 C        3.078     0.051    26.772     8.483
    18   7 N        2.800    -0.034    21.897     6.950
    19   6 C        2.876     0.127    25.217     8.232
    20   6 C        2.884     0.032    27.288     8.564
    21   7 N        1.841    -0.269    27.839     7.819
    22   6 C        2.876     0.127    25.218     8.232
    23   7 N        2.800    -0.034    21.896     6.950
    24   6 C        3.078     0.051    26.771     8.483
    25   6 C        2.910    -0.042    29.042     8.837
    26   6 C        2.924    -0.032    28.803     8.801
    27   6 C        2.920    -0.034    28.851     8.808
    28   6 C        2.913    -0.031    28.780     8.797
    29   6 C        3.062    -0.012    28.248     8.716
    30   6 C        3.065    -0.022    28.479     8.751
    31   6 C        2.918    -0.033    28.815     8.803
    32   6 C        2.910    -0.060    29.483     8.904
    33   6 C        3.100     0.125    25.149     8.218
    34   8 O        1.715    -0.230    17.804     5.697
    35   6 C        3.099     0.128    25.090     8.209
    36   6 C        2.908    -0.053    29.309     8.877
    37   6 C        2.926    -0.031    28.767     8.796
    38   6 C        2.919    -0.036    28.901     8.816
    39   6 C        2.914    -0.035    28.862     8.809
    40   6 C        3.050    -0.021    28.490     8.754
    41   6 C        3.039    -0.038    28.903     8.818
    42   6 C        3.057     0.040    27.051     8.529
    43   6 C        2.884     0.032    27.287     8.564
    44   7 N        1.841    -0.269    27.839     7.819
    45   6 C        3.057     0.040    27.051     8.529
    46   6 C        3.039    -0.038    28.903     8.818
    47   1 H        0.926     0.050     2.319     2.381
    48   1 H        0.926     0.042     2.417     2.431
    49   1 H        0.926     0.027     2.624     2.533
    50   1 H        0.926     0.053     2.284     2.363
    51   1 H        0.926     0.057     2.238     2.339
    52   1 H        0.926     0.058     2.227     2.334
    53   1 H        0.926     0.047     2.360     2.402
    54   1 H        0.926     0.045     2.386     2.416
    55   1 H        0.926     0.043     2.408     2.427
    56   1 H        0.926     0.045     2.381     2.413
    57   1 H        0.926     0.043     2.414     2.430
    58   1 H        0.926     0.045     2.383     2.414
    59   1 H        0.926     0.043     2.408     2.427
    60   1 H        0.926     0.045     2.386     2.415
    61   1 H        0.926     0.047     2.360     2.402
    62   1 H        0.926     0.058     2.227     2.334
    63   1 H        0.926     0.057     2.238     2.339
    64   1 H        0.926     0.053     2.284     2.363
    65   1 H        0.926     0.050     2.319     2.381
    66   1 H        0.926     0.042     2.417     2.431
    67   1 H        0.926     0.027     2.624     2.533
    68   1 H        0.926     0.043     2.414     2.430

molecular dipole:
                 x           y           z       tot (Debye)
 q only:       -0.002      -0.580       0.001
   full:       -0.001      -0.513       0.001       1.304

 projected vibrational frequencies (cm⁻¹)
eigval :       -0.00    -0.00    -0.00    -0.00     0.00     0.00
eigval :        9.00    19.79    21.15    29.68    33.91    53.25
eigval :       61.74    69.22    86.96    91.30   109.62   112.30
eigval :      119.40   142.28   144.75   155.97   164.43   166.21
eigval :      209.24   211.81   253.93   261.56   262.17   278.66
eigval :      279.86   298.37   304.76   321.19   330.79   338.24
eigval :      346.70   353.31   375.21   396.63   407.01   408.52
eigval :      418.95   433.54   437.66   446.26   457.81   481.32
eigval :      487.42   490.64   494.43   515.67   534.31   536.06
eigval :      542.05   542.20   546.58   551.46   556.63   562.89
eigval :      576.92   601.84   604.07   610.94   621.59   621.77
eigval :      629.05   630.85   636.99   654.52   677.44   677.92
eigval :      694.39   703.83   704.04   709.73   710.02   712.25
eigval :      731.64   756.26   771.14   771.82   773.63   775.26
eigval :      785.73   816.25   816.39   826.94   835.25   845.28
eigval :      850.18   850.95   853.42   867.31   867.77   870.70
eigval :      873.34   887.38   887.40   891.08   898.17   898.96
eigval :      903.98   906.02   919.69   920.88   921.70   922.67
eigval :      938.20   978.33   993.90   996.51  1034.77  1050.85
eigval :     1057.06  1064.56  1067.57  1068.17  1068.55  1090.38
eigval :     1094.68  1125.75  1126.59  1130.74  1134.14  1153.68
eigval :     1163.87  1167.77  1175.33  1176.63  1178.80  1193.26
eigval :     1197.21  1203.86  1206.28  1209.75  1228.21  1236.70
eigval :     1239.43  1248.78  1251.85  1256.92  1258.41  1279.55
eigval :     1285.03  1293.10  1296.70  1304.51  1345.36  1345.67
eigval :     1348.03  1353.13  1354.93  1362.04  1363.96  1384.80
eigval :     1390.73  1391.88  1405.48  1415.87  1418.61  1420.57
eigval :     1424.72  1439.89  1439.94  1469.59  1470.04  1471.84
eigval :     1472.23  1504.54  1553.06  1554.64  1562.85  1564.86
eigval :     1580.02  1581.42  1583.45  1584.24  1591.06  1592.80
eigval :     1594.76  1596.35  3071.35  3071.59  3082.51  3082.64
eigval :     3085.67  3085.89  3088.87  3089.26  3095.28  3095.53
eigval :     3095.98  3096.76  3100.71  3101.49  3104.87  3104.98
eigval :     3107.73  3107.91  3117.04  3117.32  3123.43  3124.24

   temp. (K)  partition function   enthalpy   heat capacity  entropy
                                   cal/mol     cal/K/mol   cal/K/mol   J/K/mol
 298.15  VIB  0.659E+14            19198.820    127.795    116.259
         ROT  0.296E+08              888.752      2.981     37.167
         INT  0.195E+22            20087.572    130.776    153.426
         TR   0.139E+29             1481.254      4.968     44.992
         TOT                       21568.8263   135.7440   198.4172   830.1775

       T/K    H(0)-H(T)+PV         H(T)/Eh          T*S/Eh         G(T)/Eh
   ------------------------------------------------------------------------
    298.15    0.343721E-01    0.530673E+00    0.942744E-01    0.436399E+00
   ------------------------------------------------------------------------

         :::::::::::::::::::::::::::::::::::::::::::::::::::::
         ::                  THERMODYNAMIC                  ::
         :::::::::::::::::::::::::::::::::::::::::::::::::::::
         :: total free energy        -116.352196601685 Eh   ::
         ::.................................................::
         :: total energy             -116.788595149999 Eh   ::
         :: zero point energy           0.496300840255 Eh   ::
         :: G(RRHO) w/o ZPVE           -0.059902291942 Eh   ::
         :: G(RRHO) contrib.            0.436398548313 Eh   ::
         :::::::::::::::::::::::::::::::::::::::::::::::::::::

           -------------------------------------------------
          | TOTAL ENERGY             -116.788595149999 Eh   |
          | TOTAL ENTHALPY           -116.257922197221 Eh   |
          | TOTAL FREE ENERGY        -116.352196601685 Eh   |
          | GRADIENT NORM               0.000077955906 Eh/α |
          | HOMO-LUMO GAP               0.451955320944 eV   |
           -------------------------------------------------

 * finished run on 2025/08/21 at 18:28:05.689
