   * xtb version 6.7.1 (edcfbbe) compiled by 'albert@albert-system' on 2024-07-22

   ID    Z sym.   atoms
    1    6 C      1-6, 8-17, 19, 20, 22, 24-33, 35-43, 45, 46
    2    8 O      7, 34
    3    7 N      18, 21, 23, 44
    4    1 H      47-68

          program call               : xtb data2507/toluene/BFCZPZ3/BFCZPZ3.xyz --gfn 2 --gbsa toluene --ohess vtight --parallel 40 --molden --ceasefiles --namespace data2507/toluene/BFCZPZ3/BFCZPZ3_toluene_S0_preOpt
      * Solvation model:               GBSA
        Solvent                        toluene
        Solvent mass                       9.2140E+01 g/mol
          :  Hamiltonian                  GFN2-xTB          :
 * total energy  :  -116.8312184 Eh     change       -0.1447603E-08 Eh
 * total energy  :  -116.8577055 Eh     change       -0.2648713E-01 Eh
 * total energy  :  -116.8652452 Eh     change       -0.7539735E-02 Eh
 * total energy  :  -116.8674183 Eh     change       -0.2173094E-02 Eh
 * total energy  :  -116.8689137 Eh     change       -0.1495379E-02 Eh
 * total energy  :  -116.8696308 Eh     change       -0.7170383E-03 Eh
 * total energy  :  -116.8701778 Eh     change       -0.5470531E-03 Eh
 * total energy  :  -116.8706816 Eh     change       -0.5037799E-03 Eh
 * total energy  :  -116.8711226 Eh     change       -0.4409630E-03 Eh
 * total energy  :  -116.8714977 Eh     change       -0.3751040E-03 Eh
 * total energy  :  -116.8738752 Eh     change       -0.3942105E-06 Eh
 * total energy  :  -116.8738756 Eh     change       -0.4411927E-06 Eh
 * total energy  :  -116.8738761 Eh     change       -0.4111603E-06 Eh
 * total energy  :  -116.8738764 Eh     change       -0.3051764E-06 Eh
 * total energy  :  -116.8738767 Eh     change       -0.3887395E-06 Eh
 * total energy  :  -116.8738772 Eh     change       -0.4285351E-06 Eh
 * total energy  :  -116.8738774 Eh     change       -0.2282733E-06 Eh
 * total energy  :  -116.8738775 Eh     change       -0.1147140E-06 Eh
 * total energy  :  -116.8738775 Eh     change       -0.2460041E-08 Eh
   *** GEOMETRY OPTIMIZATION CONVERGED AFTER 44 ITERATIONS ***

 final structure:
================
68
 xtb: 6.7.1 (edcfbbe)
C            1.92970407501202        3.84024515472715        3.10583657566778
C            1.15693966645087        3.25104742336221        2.10897756373936
C            1.63885446618856        2.19906561749626        1.35501275341505
C            2.91853826595802        1.71867862619150        1.61363910315029
C            3.70392107075929        2.36643000570434        2.59067514775232
C            3.22231760589249        3.41502597372892        3.35373200591918
O            4.96093181450535        1.85017479141621        2.64582687921937
C            5.01964624872808        0.87330378418152        1.69907179771459
C            6.17097495679617        0.16904553708361        1.36810512236847
C            6.10336470109029       -0.73119079832143        0.32525833337810
C            4.88551712952905       -0.95808323542869       -0.31255591429842
C            4.52891105483233       -1.81104751578592       -1.41570851876150
C            5.25881348479537       -2.67537946304171       -2.22144129402470
C            4.59739465101930       -3.36207934365237       -3.22110088671980
C            3.22850035725147       -3.20027742969454       -3.41625049442080
C            2.48212694151940       -2.34615807024736       -2.62345597842895
C            3.14469464322676       -1.65072324754203       -1.62661597075692
N            2.63802363718339       -0.75660791683889       -0.68045231211798
C            1.29920788734412       -0.69242991367580       -0.33681149890561
C            0.87616711069080       -0.70206210687942        0.99947720323312
N           -0.39988600268777       -0.71341793112428        1.32104302863109
C           -1.29909433251053       -0.69363572783518        0.33436650865372
N           -2.63789609114368       -0.75900341205284        0.67781883292032
C           -3.14451124214525       -1.65575558172738        1.62150213546628
C           -2.48186449080108       -2.35401012075844        2.61631843844748
C           -3.22823542815205       -3.21014673138684        3.40693892448010
C           -4.59719028693770       -3.37120635481926        3.21158648254179
C           -5.25865812538211       -2.68178916194646        2.21382943990348
C           -4.52875329224219       -1.81544713178837        1.41025816598965
C           -4.88541000927104       -0.95946384006137        0.30945322474517
C           -6.10322867232948       -0.73089475018514       -0.32783099604007
C           -6.17086003786519        0.17231469601508       -1.36810841961539
C           -5.01961501838228        0.87774453891712       -1.69688721562583
O           -4.96099512871689        1.85760726307721       -2.64055991634689
C           -3.70409359420589        2.37393947214223       -2.58364733854337
C           -3.22267461845903        3.42517771346570       -3.34318212379280
C           -1.93018970911532        3.84989936583094       -3.09375083001179
C           -1.15735773770789        3.25758952644778       -2.09878733953052
C           -1.63907173619886        2.20297006775470       -1.34838647447691
C           -2.91863709834835        1.72317138704106       -1.60868208175247
C           -3.77437234582993        0.70481511719938       -1.05272417156093
C           -3.70006897568764       -0.30164733139559       -0.08766531031181
C           -0.87605455528783       -0.69927366974793       -1.00194530564604
N            0.39999789123442       -0.70946433480560       -1.32353830859056
C            3.70015264788136       -0.30141139755250        0.08639017290332
C            3.77439137127744        0.70219072548732        1.05443577798179
H            1.52024774409833        4.65625832728921        3.68108465007074
H            0.16360555311826        3.62842914682659        1.91742062758193
H            1.04109936738527        1.77628456731495        0.56353228478537
H            3.84460093550773        3.88264974177374        4.09972751918179
H            7.08861221582129        0.35733133256366        1.90064023223860
H            6.98513044593280       -1.26165617096286        0.00394480668525
H            6.31907773131547       -2.80293361017043       -2.06728191753977
H            5.14677893527407       -4.03482090342114       -3.86254373295908
H            2.73703459565778       -3.74908281248787       -4.20569830455404
H            1.42357212783751       -2.21465779739609       -2.77894989988086
H            1.57667474517233       -0.73351404984736        1.82160605442793
H           -1.42327249224247       -2.22305394789731        2.77201494612650
H           -2.73673067039911       -3.76117770286613        4.19481065200877
H           -5.14658839290173       -4.04549457321580        3.85138932236557
H           -6.31897400778346       -2.80874383280039        2.05953953095615
H           -6.98495833457409       -1.26240940297266       -0.00815322138631
H           -7.08847317475147        0.36199287932637       -1.90018746996425
H           -3.84499593977712        3.89511465233053       -4.08768797835690
H           -1.52084787068112        4.66785362263897       -3.66631567480336
H           -0.16411643786276        3.63455721046811       -1.90593168594928
H           -1.04129749361698        1.77768440464338       -0.55826468296720
H           -1.57655573228399       -0.72844335010986       -1.82416497600928

          :  Hamiltonian                  GFN2-xTB          :
         :: gradient norm              0.000033533277 Eh/a0 ::
         :: HOMO-LUMO gap              2.233625861161 eV    ::
         :: SCC energy              -118.892936892080 Eh    ::
         :: -> dispersion             -0.103848142248 Eh    ::
         :: -> Gsolv                  -0.044953245449 Eh    ::
         :: repulsion energy           2.019059370851 Eh    ::

    * Orbital Energies and Occupations

         #    Occupation            Energy/Eh            Energy/eV
      -------------------------------------------------------------
         1        2.0000           -0.7456206             -20.2894
       ...           ...                  ...                  ...
        95        2.0000           -0.4295092             -11.6875
        96        2.0000           -0.4274810             -11.6324
        97        2.0000           -0.4269651             -11.6183
        98        2.0000           -0.4222019             -11.4887
        99        2.0000           -0.4113377             -11.1931
       100        2.0000           -0.4110119             -11.1842
       101        2.0000           -0.4060309             -11.0487
       102        2.0000           -0.4037263             -10.9860
       103        2.0000           -0.3904381             -10.6244
       104        2.0000           -0.3844380             -10.4611
       105        2.0000           -0.3842999             -10.4573
       106        2.0000           -0.3752082             -10.2099
       107        2.0000           -0.3735063             -10.1636 (HOMO)
       108                         -0.2914221              -7.9300 (LUMO)
       109                         -0.2714773              -7.3873
       110                         -0.2640816              -7.1860
       111                         -0.2639439              -7.1823
       112                         -0.2500587              -6.8044
       113                         -0.2435569              -6.6275
       114                         -0.2299678              -6.2577
       115                         -0.2295651              -6.2468
       116                         -0.2201577              -5.9908
       117                         -0.2161529              -5.8818
       118                         -0.2062756              -5.6130
       ...                                ...                  ...
       206                          0.7484486              20.3663
      -------------------------------------------------------------
                  HL-Gap            0.0820842 Eh            2.2336 eV

     #   Z          covCN         q      C6AA      α(0)
     1   6 C        2.926    -0.031    28.776     8.797
     2   6 C        2.919    -0.037    28.926     8.820
     3   6 C        2.914    -0.035    28.861     8.809
     4   6 C        3.049    -0.023    28.527     8.760
     5   6 C        3.098     0.127    25.098     8.210
     6   6 C        2.908    -0.052    29.292     8.875
     7   8 O        1.715    -0.230    17.818     5.699
     8   6 C        3.098     0.124    25.162     8.221
     9   6 C        2.910    -0.061    29.522     8.909
    10   6 C        2.919    -0.034    28.855     8.809
    11   6 C        3.061    -0.022    28.485     8.752
    12   6 C        3.065    -0.013    28.263     8.718
    13   6 C        2.913    -0.034    28.836     8.806
    14   6 C        2.920    -0.037    28.925     8.819
    15   6 C        2.925    -0.032    28.807     8.802
    16   6 C        2.910    -0.048    29.192     8.860
    17   6 C        3.068     0.051    26.800     8.489
    18   7 N        2.799    -0.051    22.226     7.002
    19   6 C        2.895     0.145    24.844     8.172
    20   6 C        2.900     0.045    26.995     8.519
    21   7 N        1.846    -0.243    27.204     7.730
    22   6 C        2.895     0.145    24.844     8.172
    23   7 N        2.799    -0.051    22.226     7.002
    24   6 C        3.068     0.051    26.800     8.489
    25   6 C        2.910    -0.048    29.192     8.860
    26   6 C        2.925    -0.032    28.807     8.802
    27   6 C        2.920    -0.037    28.925     8.819
    28   6 C        2.913    -0.034    28.836     8.806
    29   6 C        3.065    -0.013    28.263     8.718
    30   6 C        3.061    -0.022    28.485     8.752
    31   6 C        2.919    -0.034    28.855     8.809
    32   6 C        2.910    -0.061    29.522     8.909
    33   6 C        3.098     0.124    25.162     8.221
    34   8 O        1.715    -0.230    17.818     5.699
    35   6 C        3.098     0.127    25.098     8.210
    36   6 C        2.908    -0.052    29.292     8.875
    37   6 C        2.926    -0.031    28.776     8.797
    38   6 C        2.919    -0.037    28.926     8.820
    39   6 C        2.914    -0.035    28.861     8.809
    40   6 C        3.049    -0.023    28.527     8.760
    41   6 C        3.040    -0.042    29.005     8.833
    42   6 C        3.057     0.040    27.046     8.529
    43   6 C        2.900     0.045    26.995     8.519
    44   7 N        1.846    -0.243    27.204     7.730
    45   6 C        3.057     0.040    27.046     8.529
    46   6 C        3.040    -0.042    29.005     8.833
    47   1 H        0.926     0.051     2.310     2.377
    48   1 H        0.926     0.042     2.426     2.436
    49   1 H        0.926     0.018     2.769     2.602
    50   1 H        0.926     0.054     2.273     2.358
    51   1 H        0.926     0.055     2.256     2.349
    52   1 H        0.926     0.056     2.246     2.343
    53   1 H        0.926     0.044     2.400     2.423
    54   1 H        0.926     0.041     2.431     2.438
    55   1 H        0.926     0.041     2.434     2.440
    56   1 H        0.926     0.046     2.365     2.405
    57   1 H        0.926     0.046     2.374     2.410
    58   1 H        0.926     0.046     2.365     2.405
    59   1 H        0.926     0.041     2.434     2.440
    60   1 H        0.926     0.041     2.431     2.438
    61   1 H        0.926     0.044     2.400     2.423
    62   1 H        0.926     0.056     2.246     2.343
    63   1 H        0.926     0.055     2.256     2.349
    64   1 H        0.926     0.054     2.273     2.358
    65   1 H        0.926     0.051     2.310     2.377
    66   1 H        0.926     0.042     2.426     2.436
    67   1 H        0.926     0.018     2.769     2.602
    68   1 H        0.926     0.046     2.374     2.410

molecular dipole:
                 x           y           z       tot (Debye)
 q only:       -0.000      -0.408      -0.000
   full:       -0.000      -0.283      -0.000       0.720

 projected vibrational frequencies (cm⁻¹)
eigval :       -0.00    -0.00     0.00     0.00     0.00     0.00
eigval :       13.44    20.57    25.06    33.53    37.70    54.68
eigval :       66.35    78.29    87.69    98.27   109.08   118.43
eigval :      122.23   140.59   145.04   164.98   165.88   173.10
eigval :      211.55   222.03   254.86   264.09   265.90   281.45
eigval :      284.26   308.81   311.00   328.47   341.41   351.16
eigval :      354.64   387.31   392.58   402.49   411.90   414.02
eigval :      424.66   431.69   437.21   445.62   465.03   479.98
eigval :      492.09   496.24   500.47   514.32   536.59   537.94
eigval :      543.48   543.52   555.43   556.43   564.80   577.49
eigval :      594.20   597.26   619.16   622.44   626.37   629.89
eigval :      630.97   643.70   655.26   679.59   679.90   700.96
eigval :      704.13   704.88   710.67   711.23   712.81   729.13
eigval :      750.53   776.69   777.35   777.83   778.76   818.85
eigval :      818.87   830.55   834.74   844.12   845.79   850.27
eigval :      852.43   856.69   870.90   873.17   873.70   874.14
eigval :      888.52   891.47   891.48   902.53   905.19   905.67
eigval :      906.11   922.47   922.73   923.66   924.23   925.44
eigval :      954.68   994.78   996.06  1030.89  1058.08  1059.12
eigval :     1068.06  1069.56  1069.64  1070.38  1095.48  1097.57
eigval :     1127.26  1128.13  1137.66  1138.05  1166.41  1168.07
eigval :     1176.23  1177.45  1179.16  1182.72  1199.73  1206.47
eigval :     1207.11  1209.59  1228.71  1234.35  1243.35  1244.12
eigval :     1244.71  1252.80  1256.95  1262.03  1276.03  1289.08
eigval :     1300.36  1302.05  1312.30  1350.30  1351.28  1352.27
eigval :     1354.51  1368.99  1370.03  1390.40  1393.10  1393.70
eigval :     1399.02  1414.85  1420.80  1424.17  1429.98  1437.49
eigval :     1452.15  1452.52  1473.63  1473.71  1477.72  1477.98
eigval :     1495.30  1566.37  1569.77  1570.36  1579.31  1579.74
eigval :     1589.16  1589.66  1597.42  1597.63  1604.18  1604.58
eigval :     1610.19  1611.16  3069.86  3071.81  3080.34  3080.41
eigval :     3083.75  3084.10  3088.11  3088.25  3094.85  3095.00
eigval :     3097.63  3097.68  3103.73  3104.12  3104.14  3104.43
eigval :     3109.31  3109.69  3110.95  3111.05  3115.03  3115.10

   temp. (K)  partition function   enthalpy   heat capacity  entropy
                                   cal/mol     cal/K/mol   cal/K/mol   J/K/mol
 298.15  VIB  0.153E+14            18845.106    126.260    113.471
         ROT  0.295E+08              888.752      2.981     37.160
         INT  0.450E+21            19733.859    129.241    150.631
         TR   0.139E+29             1481.254      4.968     44.992
         TOT                       21215.1125   134.2089   195.6226   818.4850

       T/K    H(0)-H(T)+PV         H(T)/Eh          T*S/Eh         G(T)/Eh
   ------------------------------------------------------------------------
    298.15    0.338084E-01    0.534256E+00    0.929466E-01    0.441310E+00
   ------------------------------------------------------------------------

         :::::::::::::::::::::::::::::::::::::::::::::::::::::
         ::                  THERMODYNAMIC                  ::
         :::::::::::::::::::::::::::::::::::::::::::::::::::::
         :: total free energy        -116.432567883031 Eh   ::
         ::.................................................::
         :: total energy             -116.873877519107 Eh   ::
         :: zero point energy           0.500447820662 Eh   ::
         :: G(RRHO) w/o ZPVE           -0.059138184586 Eh   ::
         :: G(RRHO) contrib.            0.441309636076 Eh   ::
         :::::::::::::::::::::::::::::::::::::::::::::::::::::

           -------------------------------------------------
          | TOTAL ENERGY             -116.873877519107 Eh   |
          | TOTAL ENTHALPY           -116.339621264716 Eh   |
          | TOTAL FREE ENERGY        -116.432567883031 Eh   |
          | GRADIENT NORM               0.000033539422 Eh/α |
          | HOMO-LUMO GAP               2.233625850144 eV   |
           -------------------------------------------------

 * finished run on 2025/08/21 at 18:25:12.368
