   * xtb version 6.7.1 (edcfbbe) compiled by 'albert@albert-system' on 2024-07-22

   ID    Z sym.   atoms
    1    6 C      1-6, 8-17, 19, 20, 22, 24-33, 35-43, 45, 46
    2    8 O      7, 34
    3    7 N      18, 21, 23, 44
    4    1 H      47-68

          program call               : xtb data2507/toluene/BFCZPZ3/BFCZPZ3_toluene_S0_crest.xyz --gfn 2 --gbsa toluene --ohess vtight --parallel 40 --molden --ceasefiles --namespace data2507/toluene/BFCZPZ3/BFCZPZ3_toluene_S0_finalOpt
      * Solvation model:               GBSA
        Solvent                        toluene
        Solvent mass                       9.2140E+01 g/mol
          :  Hamiltonian                  GFN2-xTB          :
 * total energy  :  -116.8735971 Eh     change       -0.5356881E-08 Eh
 * total energy  :  -116.8736382 Eh     change       -0.4112035E-04 Eh
 * total energy  :  -116.8736587 Eh     change       -0.2050456E-04 Eh
 * total energy  :  -116.8736697 Eh     change       -0.1099917E-04 Eh
 * total energy  :  -116.8736865 Eh     change       -0.1679655E-04 Eh
 * total energy  :  -116.8737043 Eh     change       -0.1779875E-04 Eh
 * total energy  :  -116.8737229 Eh     change       -0.1861518E-04 Eh
 * total energy  :  -116.8737420 Eh     change       -0.1910573E-04 Eh
 * total energy  :  -116.8737587 Eh     change       -0.1670824E-04 Eh
 * total energy  :  -116.8737695 Eh     change       -0.1077128E-04 Eh
 * total energy  :  -116.8738495 Eh     change       -0.3429102E-06 Eh
 * total energy  :  -116.8738498 Eh     change       -0.2877790E-06 Eh
 * total energy  :  -116.8738501 Eh     change       -0.2554724E-06 Eh
 * total energy  :  -116.8738503 Eh     change       -0.2548117E-06 Eh
 * total energy  :  -116.8738506 Eh     change       -0.2812858E-06 Eh
 * total energy  :  -116.8738509 Eh     change       -0.3463984E-06 Eh
 * total energy  :  -116.8738514 Eh     change       -0.4167956E-06 Eh
 * total energy  :  -116.8738518 Eh     change       -0.4023039E-06 Eh
 * total energy  :  -116.8738518 Eh     change       -0.2088441E-08 Eh
   *** GEOMETRY OPTIMIZATION CONVERGED AFTER 44 ITERATIONS ***

 final structure:
================
68
 xtb: 6.7.1 (edcfbbe)
C            2.14037282700405        3.86657214735183        2.90834503534532
C            1.30196929288444        3.25783741436394        1.97855309307179
C            1.73081984282124        2.18818608560160        1.21736549421706
C            3.02390376025207        1.70912491658654        1.40090023849054
C            3.87267750811611        2.37400717967730        2.31117537139374
C            3.44527430181984        3.44149942728118        3.08025863263089
O            5.12866681543225        1.85275026886041        2.29732144149454
C            5.12327182072181        0.85566858880762        1.37019391304948
C            6.24866551990987        0.13782227163704        0.98387335216091
C            6.11240570933131       -0.78382996059109       -0.03311916188348
C            4.85656698943642       -1.01534896054609       -0.59062433601123
C            4.42896515262355       -1.88899333596001       -1.65145187989166
C            5.10371418750271       -2.77591758173098       -2.48045083803181
C            4.37862163418299       -3.48135700880313       -3.42113175044184
C            3.00118618619700       -3.31482539082576       -3.53588756287926
C            2.30934928433632       -2.43756497862421       -2.71931145047685
C            3.03546318984342       -1.72371225753294       -1.78141077654041
N            2.59228876167914       -0.80628170014409       -0.82582747934779
C            1.27617671028529       -0.72650043917177       -0.40542090150622
C            0.93144237139218       -0.72120923685100        0.95313466992333
N           -0.32401372848092       -0.73156597886258        1.34754888459534
C           -1.27859924477342       -0.72026750581928        0.41428443502114
N           -2.59488066680107       -0.79383269418645        0.83529721088836
C           -3.03985450802461       -1.70301821621549        1.79790211255221
C           -2.31505346960063       -2.41162595175811        2.74078008757456
C           -3.00856002598891       -3.28160241201965        3.56370922823894
C           -4.38637824513776       -3.44601934467651        3.45044836246179
C           -5.11018599447434       -2.74579357213057        2.50490090046502
C           -4.43373915157029       -1.86619664523238        1.66951113836294
C           -4.85962993437972       -0.99979442232204        0.60209534877477
C           -6.11508521948356       -0.77001653478207        0.04302997455034
C           -6.24938712774991        0.14299202515734       -0.98198502236481
C           -5.12236110087887        0.85466966725267       -1.37489313200510
O           -5.12537334921621        1.84284297948130       -2.31152928315043
C           -3.86822589674997        2.36117045929501       -2.33010670961942
C           -3.43816473861935        3.42002206980404       -3.10957928942251
C           -2.13250207115402        3.84414085538599       -2.94109025784189
C           -1.29595279913404        3.24311920518649       -2.00463167766541
C           -1.72733377501294        2.18176292875652       -1.23332458388746
C           -3.02120331242805        1.70338679308351       -1.41306857721288
C           -3.83877723034375        0.67948511509312       -0.81154081484679
C           -3.70274190541328       -0.33408558782866        0.13935091385087
C           -0.93385380246083       -0.72636613500266       -0.94426830261931
N            0.32157050688788       -0.74280004232670       -1.33858595784214
C            3.70107663659344       -0.34339750043097       -0.13344652393715
C            3.83923523822603        0.67804719327685        0.80866341190675
H            1.77164620635534        4.69670274537688        3.49089601328822
H            0.29863547656623        3.63394854204438        1.84574507047797
H            1.08082105705918        1.75018887936308        0.47697799563150
H            4.11668800791384        3.92289416917032        3.77298309498953
H            7.19808407300774        0.33129255073617        1.45533699274355
H            6.96978410403130       -1.32716379400129       -0.39621198999554
H            6.17074168038842       -2.90697857345888       -2.38822359466313
H            4.88402196644276       -4.17251899941414       -4.07893263517696
H            2.45909093461663       -3.87908580394039       -4.27992840011187
H            1.24388873228197       -2.30302554853975       -2.81359084901371
H            1.67834514746859       -0.74197174281382        1.73380555115975
H           -1.24927661107478       -2.27870142913881        2.83379965735640
H           -2.46749891414539       -3.84167725564195        4.31165501253850
H           -4.89305832209438       -4.13152744459246        4.11316004347061
H           -6.17749428210858       -2.87530666411428        2.41372187050787
H           -6.97364448191237       -1.30813918766868        0.41105311641947
H           -7.19844686808521        0.33447531128833       -1.45499882079120
H           -4.10816809139625        3.89584607414903       -3.80750483730690
H           -1.76178750875005        4.66774697406775       -3.53159364605223
H           -0.29201512595297        3.61865191090909       -1.87477224543290
H           -1.07864851057224        1.74978549093777       -0.48825434566619
H           -1.68080302144266       -0.75148449067607       -1.72475864286556

          :  Hamiltonian                  GFN2-xTB          :
         :: gradient norm              0.000034713185 Eh/a0 ::
         :: HOMO-LUMO gap              2.229166599031 eV    ::
         :: SCC energy              -118.892905349439 Eh    ::
         :: -> dispersion             -0.103825250760 Eh    ::
         :: -> Gsolv                  -0.044918479733 Eh    ::
         :: repulsion energy           2.019053584879 Eh    ::

    * Orbital Energies and Occupations

         #    Occupation            Energy/Eh            Energy/eV
      -------------------------------------------------------------
         1        2.0000           -0.7456333             -20.2897
       ...           ...                  ...                  ...
        95        2.0000           -0.4295458             -11.6885
        96        2.0000           -0.4275220             -11.6335
        97        2.0000           -0.4271225             -11.6226
        98        2.0000           -0.4223421             -11.4925
        99        2.0000           -0.4113709             -11.1940
       100        2.0000           -0.4110568             -11.1854
       101        2.0000           -0.4060740             -11.0498
       102        2.0000           -0.4038037             -10.9881
       103        2.0000           -0.3904639             -10.6251
       104        2.0000           -0.3844543             -10.4615
       105        2.0000           -0.3843186             -10.4578
       106        2.0000           -0.3753840             -10.2147
       107        2.0000           -0.3736098             -10.1664 (HOMO)
       108                         -0.2916894              -7.9373 (LUMO)
       109                         -0.2716557              -7.3921
       110                         -0.2640732              -7.1858
       111                         -0.2639354              -7.1820
       112                         -0.2500540              -6.8043
       113                         -0.2437200              -6.6320
       114                         -0.2299761              -6.2580
       115                         -0.2295868              -6.2474
       116                         -0.2201641              -5.9910
       117                         -0.2162558              -5.8846
       118                         -0.2062260              -5.6117
       ...                                ...                  ...
       206                          0.7484504              20.3664
      -------------------------------------------------------------
                  HL-Gap            0.0819204 Eh            2.2292 eV

     #   Z          covCN         q      C6AA      α(0)
     1   6 C        2.926    -0.031    28.777     8.797
     2   6 C        2.919    -0.037    28.927     8.820
     3   6 C        2.914    -0.035    28.863     8.810
     4   6 C        3.049    -0.023    28.528     8.760
     5   6 C        3.098     0.127    25.098     8.210
     6   6 C        2.908    -0.052    29.292     8.875
     7   8 O        1.715    -0.230    17.816     5.699
     8   6 C        3.098     0.124    25.161     8.220
     9   6 C        2.910    -0.061    29.522     8.909
    10   6 C        2.919    -0.034    28.855     8.809
    11   6 C        3.062    -0.022    28.486     8.752
    12   6 C        3.065    -0.013    28.263     8.718
    13   6 C        2.913    -0.034    28.836     8.805
    14   6 C        2.920    -0.037    28.925     8.820
    15   6 C        2.925    -0.032    28.807     8.802
    16   6 C        2.910    -0.048    29.190     8.859
    17   6 C        3.068     0.051    26.799     8.489
    18   7 N        2.799    -0.051    22.229     7.002
    19   6 C        2.895     0.145    24.841     8.172
    20   6 C        2.900     0.045    26.993     8.519
    21   7 N        1.846    -0.243    27.193     7.728
    22   6 C        2.895     0.145    24.841     8.172
    23   7 N        2.799    -0.051    22.229     7.002
    24   6 C        3.068     0.051    26.799     8.489
    25   6 C        2.910    -0.048    29.190     8.859
    26   6 C        2.925    -0.032    28.807     8.802
    27   6 C        2.920    -0.037    28.925     8.820
    28   6 C        2.913    -0.034    28.836     8.805
    29   6 C        3.065    -0.013    28.263     8.718
    30   6 C        3.062    -0.022    28.486     8.752
    31   6 C        2.919    -0.034    28.855     8.809
    32   6 C        2.910    -0.061    29.522     8.909
    33   6 C        3.098     0.124    25.161     8.220
    34   8 O        1.715    -0.230    17.816     5.699
    35   6 C        3.098     0.127    25.098     8.210
    36   6 C        2.908    -0.052    29.292     8.875
    37   6 C        2.926    -0.031    28.777     8.797
    38   6 C        2.919    -0.037    28.927     8.820
    39   6 C        2.914    -0.035    28.863     8.810
    40   6 C        3.049    -0.023    28.528     8.760
    41   6 C        3.040    -0.042    29.006     8.833
    42   6 C        3.057     0.040    27.045     8.529
    43   6 C        2.900     0.045    26.993     8.519
    44   7 N        1.846    -0.243    27.193     7.728
    45   6 C        3.057     0.040    27.045     8.529
    46   6 C        3.040    -0.042    29.006     8.833
    47   1 H        0.926     0.051     2.310     2.377
    48   1 H        0.926     0.042     2.425     2.435
    49   1 H        0.926     0.018     2.769     2.602
    50   1 H        0.926     0.054     2.273     2.358
    51   1 H        0.926     0.055     2.256     2.349
    52   1 H        0.926     0.056     2.246     2.343
    53   1 H        0.926     0.044     2.400     2.422
    54   1 H        0.926     0.041     2.430     2.438
    55   1 H        0.926     0.041     2.434     2.440
    56   1 H        0.926     0.046     2.374     2.409
    57   1 H        0.926     0.046     2.372     2.408
    58   1 H        0.926     0.046     2.374     2.409
    59   1 H        0.926     0.041     2.434     2.440
    60   1 H        0.926     0.041     2.430     2.438
    61   1 H        0.926     0.044     2.400     2.422
    62   1 H        0.926     0.056     2.246     2.343
    63   1 H        0.926     0.055     2.256     2.349
    64   1 H        0.926     0.054     2.273     2.358
    65   1 H        0.926     0.051     2.310     2.377
    66   1 H        0.926     0.042     2.425     2.435
    67   1 H        0.926     0.018     2.769     2.602
    68   1 H        0.926     0.046     2.372     2.408

molecular dipole:
                 x           y           z       tot (Debye)
 q only:       -0.000      -0.420       0.001
   full:       -0.000      -0.292       0.001       0.742

 projected vibrational frequencies (cm⁻¹)
eigval :       -0.00    -0.00    -0.00     0.00     0.00     0.00
eigval :       14.65    19.09    24.63    34.35    38.04    52.66
eigval :       66.65    76.27    85.46    97.75   108.50   116.71
eigval :      120.54   141.42   146.97   163.34   165.40   172.09
eigval :      211.64   222.71   254.49   264.32   265.94   281.62
eigval :      284.36   309.11   310.83   328.43   341.24   351.99
eigval :      355.26   387.93   392.87   402.11   410.29   410.74
eigval :      424.90   432.55   437.81   445.73   464.94   479.16
eigval :      492.48   496.09   500.22   514.31   536.65   537.78
eigval :      543.59   543.66   555.49   556.39   564.79   577.46
eigval :      594.24   597.73   619.23   622.37   626.10   630.11
eigval :      631.22   644.05   655.26   679.94   680.21   701.00
eigval :      704.63   705.39   710.83   711.29   713.00   729.07
eigval :      750.35   772.47   775.72   775.96   777.09   821.39
eigval :      821.53   830.54   835.10   844.65   845.86   849.85
eigval :      852.48   856.79   866.93   868.33   873.09   873.33
eigval :      889.79   893.56   893.57   898.30   902.38   905.09
eigval :      905.23   919.58   922.56   922.76   922.98   925.81
eigval :      954.64   994.79   995.97  1029.38  1057.80  1058.76
eigval :     1067.92  1069.31  1069.50  1069.76  1095.60  1097.50
eigval :     1127.48  1128.09  1137.53  1138.13  1166.84  1168.29
eigval :     1176.23  1177.35  1179.26  1182.45  1198.89  1205.63
eigval :     1205.89  1207.15  1223.22  1233.54  1243.40  1244.46
eigval :     1244.91  1252.62  1256.81  1260.72  1275.61  1288.83
eigval :     1300.34  1301.93  1311.67  1350.02  1351.14  1352.19
eigval :     1354.47  1368.81  1369.79  1389.95  1392.89  1393.40
eigval :     1398.93  1414.71  1420.57  1423.25  1428.68  1437.17
eigval :     1452.20  1452.56  1473.58  1473.68  1477.62  1477.90
eigval :     1495.34  1564.87  1569.67  1570.12  1579.35  1579.73
eigval :     1589.05  1589.56  1597.38  1597.56  1604.23  1604.61
eigval :     1610.15  1611.08  3068.98  3070.93  3080.68  3080.91
eigval :     3084.38  3084.64  3087.92  3088.17  3094.10  3094.43
eigval :     3097.42  3097.49  3102.60  3104.10  3104.35  3104.37
eigval :     3108.78  3109.03  3110.12  3110.21  3115.60  3115.67

   temp. (K)  partition function   enthalpy   heat capacity  entropy
                                   cal/mol     cal/K/mol   cal/K/mol   J/K/mol
 298.15  VIB  0.165E+14            18860.962    126.262    113.626
         ROT  0.295E+08              888.752      2.981     37.164
         INT  0.486E+21            19749.715    129.243    150.790
         TR   0.139E+29             1481.254      4.968     44.992
         TOT                       21230.9685   134.2109   195.7815   819.1496

       T/K    H(0)-H(T)+PV         H(T)/Eh          T*S/Eh         G(T)/Eh
   ------------------------------------------------------------------------
    298.15    0.338337E-01    0.534148E+00    0.930221E-01    0.441126E+00
   ------------------------------------------------------------------------

         :::::::::::::::::::::::::::::::::::::::::::::::::::::
         ::                  THERMODYNAMIC                  ::
         :::::::::::::::::::::::::::::::::::::::::::::::::::::
         :: total free energy        -116.432726013986 Eh   ::
         ::.................................................::
         :: total energy             -116.873851764574 Eh   ::
         :: zero point energy           0.500314136589 Eh   ::
         :: G(RRHO) w/o ZPVE           -0.059188386001 Eh   ::
         :: G(RRHO) contrib.            0.441125750588 Eh   ::
         :::::::::::::::::::::::::::::::::::::::::::::::::::::

           -------------------------------------------------
          | TOTAL ENERGY             -116.873851764574 Eh   |
          | TOTAL ENTHALPY           -116.339703926134 Eh   |
          | TOTAL FREE ENERGY        -116.432726013986 Eh   |
          | GRADIENT NORM               0.000034712729 Eh/α |
          | HOMO-LUMO GAP               2.229166607188 eV   |
           -------------------------------------------------

 * finished run on 2025/08/21 at 18:27:59.930
