   * xtb version 6.7.1 (edcfbbe) compiled by 'albert@albert-system' on 2024-07-22

   ID    Z sym.   atoms
    1    6 C      1-9, 11-21
    2    7 N      10
    3    1 H      22-34

          program call               : xtb data2507/toluene/dbG2TAZ/dbG2TAZ.xyz --gfn 2 --gbsa toluene --ohess vtight --parallel 40 --molden --ceasefiles --namespace data2507/toluene/dbG2TAZ/dbG2TAZ_toluene_S0_preOpt
      * Solvation model:               GBSA
        Solvent                        toluene
        Solvent mass                       9.2140E+01 g/mol
          :  Hamiltonian                  GFN2-xTB          :
 * total energy  :   -52.4177087 Eh     change       -0.3738002E-08 Eh
 * total energy  :   -52.4256054 Eh     change       -0.7896650E-02 Eh
 * total energy  :   -52.4268745 Eh     change       -0.1269148E-02 Eh
 * total energy  :   -52.4269959 Eh     change       -0.1213666E-03 Eh
 * total energy  :   -52.4270408 Eh     change       -0.4488278E-04 Eh
 * total energy  :   -52.4270542 Eh     change       -0.1342903E-04 Eh
 * total energy  :   -52.4270634 Eh     change       -0.9224901E-05 Eh
 * total energy  :   -52.4270682 Eh     change       -0.4752094E-05 Eh
 * total energy  :   -52.4270699 Eh     change       -0.1764355E-05 Eh
 * total energy  :   -52.4270707 Eh     change       -0.7298717E-06 Eh
 * total energy  :   -52.4270707 Eh     change       -0.1992905E-07 Eh
 * total energy  :   -52.4270710 Eh     change       -0.2855775E-06 Eh
 * total energy  :   -52.4270709 Eh     change        0.2707814E-07 Eh
 * total energy  :   -52.4270711 Eh     change       -0.1622153E-06 Eh
 * total energy  :   -52.4270712 Eh     change       -0.1272569E-06 Eh
 * total energy  :   -52.4270713 Eh     change       -0.1118831E-06 Eh
 * total energy  :   -52.4270714 Eh     change       -0.1026381E-06 Eh
 * total energy  :   -52.4270715 Eh     change       -0.7304163E-07 Eh
   *** GEOMETRY OPTIMIZATION CONVERGED AFTER 18 ITERATIONS ***

 final structure:
================
34
 xtb: 6.7.1 (edcfbbe)
C            3.84867371461548       -2.09135825290351        0.27216184977679
C            2.54759872846703       -2.46271483635222        0.62799938013867
C            1.51983577549185       -1.55925763066345        0.54521921697632
C            1.73919480818418       -0.24363088873300        0.09728327634346
C            3.08125106819951        0.16526148493693       -0.14411827467747
C            4.10917955897945       -0.79543371948611       -0.08423335573822
C            3.39205867650405        1.53077699806517       -0.37447575810390
C            2.43422953850068        2.49774008537340       -0.30047695744161
C            1.10616811179449        2.09363427047248       -0.10794647962505
N           -0.00000265610423        2.88705149830082        0.00000121047360
C           -1.10617195072568        2.09363213837071        0.10794827250298
C           -2.43423409745853        2.49773531350072        0.30047930380656
C           -3.39206142751781        1.53077038137853        0.37447742133994
C           -3.08125133553716        0.16525566186320        0.14411862348826
C           -4.10917806012685       -0.79544138928543        0.08423300273876
C           -3.84866987498309       -2.09136510939072       -0.27216344237105
C           -2.54759426177638       -2.46271896401761       -0.62800150792060
C           -1.51983297728670       -1.55925991436795       -0.54522078833976
C           -1.73919436048636       -0.24363400267105       -0.09728355961625
C           -0.71745471376492        0.74193052709723        0.02585316264743
C            0.71745335777539        0.74193186971343       -0.02585266761525
H            4.64666558864408       -2.81859779557947        0.31722231709879
H            2.35673233577641       -3.46589119200651        0.98197188608832
H            0.53366551326484       -1.84232276129154        0.87669632305273
H            5.12099101735651       -0.48229953222411       -0.30254351774816
H            4.42307849858151        1.79595918189205       -0.55893673703783
H            2.67607319249517        3.54589067589697       -0.39880587328687
H           -0.00000353787781        3.89365394792313        0.00000186202056
H           -2.67607969220645        3.54588537536378        0.39880913893059
H           -4.42308171634144        1.79595050714649        0.55893874427383
H           -5.12099001852397       -0.48230934608392        0.30254391960066
H           -4.64666035528399       -2.81860616553941       -0.31722421218659
H           -2.35672613384195       -3.46589458001355       -0.98197519010998
H           -0.53366231478734       -1.84232283668557       -0.87669858947964

          :  Hamiltonian                  GFN2-xTB          :
         :: gradient norm              0.000021933702 Eh/a0 ::
         :: HOMO-LUMO gap              2.603158428272 eV    ::
         :: SCC energy               -53.432335856460 Eh    ::
         :: -> dispersion             -0.043262702404 Eh    ::
         :: -> Gsolv                  -0.020724849591 Eh    ::
         :: repulsion energy           1.005264346838 Eh    ::

    * Orbital Energies and Occupations

         #    Occupation            Energy/Eh            Energy/eV
      -------------------------------------------------------------
         1        2.0000           -0.6781650             -18.4538
       ...           ...                  ...                  ...
        37        2.0000           -0.4442391             -12.0884
        38        2.0000           -0.4440297             -12.0827
        39        2.0000           -0.4333551             -11.7922
        40        2.0000           -0.4288568             -11.6698
        41        2.0000           -0.4213210             -11.4647
        42        2.0000           -0.4142703             -11.2729
        43        2.0000           -0.4129787             -11.2377
        44        2.0000           -0.4119085             -11.2086
        45        2.0000           -0.4073420             -11.0843
        46        2.0000           -0.3965249             -10.7900
        47        2.0000           -0.3854328             -10.4882
        48        2.0000           -0.3676811             -10.0051
        49        2.0000           -0.3582467              -9.7484 (HOMO)
        50                         -0.2625824              -7.1452 (LUMO)
        51                         -0.2421592              -6.5895
        52                         -0.2248647              -6.1189
        53                         -0.2123722              -5.7789
        54                         -0.1924243              -5.2361
        55                         -0.1684857              -4.5847
        56                         -0.1310648              -3.5665
        57                         -0.1300774              -3.5396
        58                         -0.0623249              -1.6959
        59                         -0.0416153              -1.1324
        60                          0.0222991               0.6068
       ...                                ...                  ...
        97                          0.7434040              20.2291
      -------------------------------------------------------------
                  HL-Gap            0.0956643 Eh            2.6032 eV

     #   Z          covCN         q      C6AA      α(0)
     1   6 C        2.915    -0.036    28.890     8.814
     2   6 C        2.917    -0.034    28.846     8.807
     3   6 C        2.917    -0.041    29.023     8.834
     4   6 C        2.979     0.008    27.828     8.653
     5   6 C        2.986     0.002    27.974     8.676
     6   6 C        2.922    -0.037    28.928     8.820
     7   6 C        2.925    -0.041    29.017     8.834
     8   6 C        2.906    -0.053    29.306     8.877
     9   6 C        3.094     0.048    26.807     8.486
    10   7 N        2.761    -0.112    23.437     7.190
    11   6 C        3.094     0.048    26.807     8.486
    12   6 C        2.906    -0.053    29.306     8.877
    13   6 C        2.925    -0.041    29.017     8.834
    14   6 C        2.986     0.002    27.974     8.676
    15   6 C        2.922    -0.037    28.928     8.820
    16   6 C        2.915    -0.036    28.890     8.814
    17   6 C        2.917    -0.034    28.846     8.807
    18   6 C        2.917    -0.041    29.023     8.834
    19   6 C        2.979     0.008    27.828     8.653
    20   6 C        3.070    -0.027    28.590     8.767
    21   6 C        3.070    -0.027    28.590     8.767
    22   1 H        0.926     0.026     2.650     2.546
    23   1 H        0.926     0.026     2.638     2.540
    24   1 H        0.926     0.040     2.455     2.450
    25   1 H        0.925     0.028     2.620     2.531
    26   1 H        0.926     0.033     2.549     2.497
    27   1 H        0.926     0.031     2.569     2.506
    28   1 H        0.860     0.165     1.302     1.787
    29   1 H        0.926     0.031     2.569     2.506
    30   1 H        0.926     0.033     2.549     2.497
    31   1 H        0.925     0.028     2.620     2.531
    32   1 H        0.926     0.026     2.650     2.546
    33   1 H        0.926     0.026     2.638     2.540
    34   1 H        0.926     0.040     2.455     2.450

molecular dipole:
                 x           y           z       tot (Debye)
 q only:        0.000       0.825      -0.000
   full:        0.000       1.085      -0.000       2.757

 projected vibrational frequencies (cm⁻¹)
eigval :       -0.00    -0.00    -0.00     0.00     0.00     0.00
eigval :       63.59    63.78    91.08   140.55   172.75   176.64
eigval :      228.93   239.03   295.82   328.69   345.74   387.56
eigval :      395.85   416.24   429.14   479.01   485.45   493.33
eigval :      503.33   515.38   529.91   539.37   551.77   579.31
eigval :      603.53   634.58   660.07   679.05   716.46   728.74
eigval :      732.50   736.29   755.47   770.95   810.32   820.50
eigval :      821.51   846.55   862.26   882.13   894.02   897.90
eigval :      899.10   904.13   918.25   919.53   963.94  1010.56
eigval :     1046.96  1081.64  1088.63  1096.04  1127.87  1153.63
eigval :     1159.71  1161.83  1177.03  1177.19  1199.10  1223.33
eigval :     1223.77  1238.03  1258.99  1308.52  1322.27  1346.45
eigval :     1352.42  1369.07  1370.68  1390.66  1407.95  1422.73
eigval :     1437.29  1447.62  1455.16  1529.38  1531.44  1551.35
eigval :     1557.38  1578.14  1582.73  1603.83  1604.33  3060.26
eigval :     3060.34  3067.48  3067.65  3069.87  3069.95  3079.16
eigval :     3079.48  3082.50  3083.77  3106.94  3110.54  3471.23

   temp. (K)  partition function   enthalpy   heat capacity  entropy
                                   cal/mol     cal/K/mol   cal/K/mol   J/K/mol
 298.15  VIB  0.839E+04             7468.147     56.961     42.372
         ROT  0.262E+07              888.752      2.981     32.351
         INT  0.220E+11             8356.900     59.942     74.723
         TR   0.423E+28             1481.254      4.968     42.630
         TOT                        9838.1538    64.9104   117.3523   491.0021

       T/K    H(0)-H(T)+PV         H(T)/Eh          T*S/Eh         G(T)/Eh
   ------------------------------------------------------------------------
    298.15    0.156781E-01    0.277469E+00    0.557579E-01    0.221711E+00
   ------------------------------------------------------------------------

         :::::::::::::::::::::::::::::::::::::::::::::::::::::
         ::                  THERMODYNAMIC                  ::
         :::::::::::::::::::::::::::::::::::::::::::::::::::::
         :: total free energy         -52.205360517283 Eh   ::
         ::.................................................::
         :: total energy              -52.427071511337 Eh   ::
         :: zero point energy           0.261790769011 Eh   ::
         :: G(RRHO) w/o ZPVE           -0.040079774956 Eh   ::
         :: G(RRHO) contrib.            0.221710994054 Eh   ::
         :::::::::::::::::::::::::::::::::::::::::::::::::::::

           -------------------------------------------------
          | TOTAL ENERGY              -52.427071511337 Eh   |
          | TOTAL ENTHALPY            -52.149602646365 Eh   |
          | TOTAL FREE ENERGY         -52.205360517283 Eh   |
          | GRADIENT NORM               0.000021939647 Eh/α |
          | HOMO-LUMO GAP               2.603158426101 eV   |
           -------------------------------------------------

 * finished run on 2025/09/14 at 03:39:22.080
