   * xtb version 6.7.1 (edcfbbe) compiled by 'albert@albert-system' on 2024-07-22

   ID    Z sym.   atoms
    1    6 C      1-9, 11-21
    2    7 N      10
    3    1 H      22-34

          program call               : xtb data2507/toluene/dbG2TAZ/dbG2TAZ_toluene_S0_finalOpt.xtbopt.xyz --gfn 2 --uhf 2 --gbsa toluene --ohess vtight --parallel 40 --molden --ceasefiles --namespace data2507/toluene/dbG2TAZ/dbG2TAZ_toluene_T1_preOpt
      * Solvation model:               GBSA
        Solvent                        toluene
        Solvent mass                       9.2140E+01 g/mol
          :  Hamiltonian                  GFN2-xTB          :
 * total energy  :   -52.3303651 Eh     change       -0.7795862E-09 Eh
 * total energy  :   -52.3374686 Eh     change       -0.7103521E-02 Eh
 * total energy  :   -52.3391941 Eh     change       -0.1725503E-02 Eh
 * total energy  :   -52.3393011 Eh     change       -0.1070293E-03 Eh
 * total energy  :   -52.3393644 Eh     change       -0.6329616E-04 Eh
 * total energy  :   -52.3393870 Eh     change       -0.2260026E-04 Eh
 * total energy  :   -52.3394131 Eh     change       -0.2609536E-04 Eh
 * total energy  :   -52.3394265 Eh     change       -0.1342392E-04 Eh
 * total energy  :   -52.3394326 Eh     change       -0.6075105E-05 Eh
 * total energy  :   -52.3394341 Eh     change       -0.1477500E-05 Eh
 * total energy  :   -52.3394343 Eh     change       -0.2573605E-06 Eh
 * total energy  :   -52.3394345 Eh     change       -0.1397013E-06 Eh
 * total energy  :   -52.3394346 Eh     change       -0.1234390E-06 Eh
 * total energy  :   -52.3394347 Eh     change       -0.7949779E-07 Eh
   *** GEOMETRY OPTIMIZATION CONVERGED AFTER 14 ITERATIONS ***

 final structure:
================
34
 xtb: 6.7.1 (edcfbbe)
C            3.81322255499572       -2.24715706910849        0.25831980676542
C            2.53153415168162       -2.59214627775853        0.66052962403887
C            1.50164248256666       -1.65606372733195        0.58712340939157
C            1.72610110878260       -0.37242590912285        0.10983399705602
C            3.06812667716895        0.02585240769895       -0.18528343734849
C            4.08337754621152       -0.95652851784375       -0.14509495148776
C            3.38277670009655        1.37111334350957       -0.43231706663191
C            2.41174686110067        2.38457420247567       -0.33997496430451
C            1.11511438955562        2.01249413906671       -0.10765578496880
N           -0.00129183682517        2.80678517910324       -0.00164279722054
C           -1.11693652693886        2.01148780614301        0.10486218887882
C           -2.41396181990052        2.38249657701750        0.33670487649999
C           -3.38404064625453        1.36818452818444        0.42958822853098
C           -3.06805996342403        0.02304056227564        0.18360599905316
C           -4.08237767116638       -0.96032172077920        0.14391449551939
C           -3.81089562976563       -2.25102566383223       -0.25836066553748
C           -2.52876198722395       -2.59514905292435       -0.65989491963955
C           -1.49978249781151       -1.65802996135215       -0.58700677546679
C           -1.72558804506801       -0.37419012414000       -0.11089147921963
C           -0.69665166514330        0.63129324668566        0.00848481260750
C            0.69617264848977        0.63196412294809       -0.01021049943713
H            4.60526319672777       -2.98203251346595        0.28453614874423
H            2.32347386026073       -3.58675927954863        1.02597763789550
H            0.51788643300722       -1.92934833734839        0.93528431069967
H            5.08915692352373       -0.67094035230004       -0.41888926999666
H            4.40849457640763        1.63916455761092       -0.63553729465903
H            2.68870666829279        3.42145951781529       -0.45311764052731
H           -0.00178657430546        3.81209876980322       -0.00209328526890
H           -2.69193369496220        3.41919980102888        0.44903502191383
H           -4.41005440899964        1.63540694888297        0.63240609180745
H           -5.08850646290421       -0.67545696304241        0.41718448244994
H           -4.60223812550642       -2.98666592467553       -0.28420335319713
H           -2.31965315928950       -3.58988295875837       -1.02441674259712
H           -0.51567071247568       -1.93068295653726       -0.93465777189503

          :  Hamiltonian                  GFN2-xTB          :
         :: gradient norm              0.000049384280 Eh/a0 ::
         :: HOMO-LUMO gap              0.731894533269 eV    ::
         :: SCC energy               -53.326831095159 Eh    ::
         :: -> dispersion             -0.043199854081 Eh    ::
         :: -> Gsolv                  -0.020674911330 Eh    ::
         :: repulsion energy           0.987396421943 Eh    ::

    * Orbital Energies and Occupations

         #    Occupation            Energy/Eh            Energy/eV
      -------------------------------------------------------------
         1        2.0000           -0.6786419             -18.4668
       ...           ...                  ...                  ...
        38        2.0000           -0.4453547             -12.1187
        39        2.0000           -0.4322360             -11.7617
        40        2.0000           -0.4309199             -11.7259
        41        2.0000           -0.4224459             -11.4953
        42        2.0000           -0.4162726             -11.3274
        43        2.0000           -0.4146594             -11.2835
        44        2.0000           -0.4128813             -11.2351
        45        2.0000           -0.4088944             -11.1266
        46        2.0000           -0.3998589             -10.8807
        47        2.0000           -0.3828767             -10.4186
        48        2.0000           -0.3717195             -10.1150
        49        1.0000           -0.3527070              -9.5976
        50        1.0000           -0.2731689              -7.4333 (HOMO)
        51        0.0000           -0.2462723              -6.7014 (LUMO)
        52                         -0.2233685              -6.0782
        53                         -0.2115877              -5.7576
        54                         -0.1961249              -5.3368
        55                         -0.1713551              -4.6628
        56                         -0.1346440              -3.6638
        57                         -0.1327995              -3.6137
        58                         -0.0666182              -1.8128
        59                         -0.0462917              -1.2597
        60                          0.0146444               0.3985
        61                          0.0867180               2.3597
       ...                                ...                  ...
        97                          0.7560991              20.5745
      -------------------------------------------------------------
                  HL-Gap            0.0268966 Eh            0.7319 eV

     #   Z          covCN         q      C6AA      α(0)
     1   6 C        2.912    -0.032    28.803     8.800
     2   6 C        2.916    -0.037    28.922     8.819
     3   6 C        2.917    -0.038    28.943     8.822
     4   6 C        2.974     0.006    27.892     8.663
     5   6 C        2.978     0.004    27.926     8.668
     6   6 C        2.922    -0.040    28.985     8.829
     7   6 C        2.923    -0.043    29.057     8.840
     8   6 C        2.902    -0.065    29.613     8.923
     9   6 C        3.062     0.062    26.560     8.451
    10   7 N        2.744    -0.130    23.827     7.250
    11   6 C        3.062     0.062    26.560     8.451
    12   6 C        2.902    -0.065    29.613     8.923
    13   6 C        2.923    -0.043    29.057     8.840
    14   6 C        2.978     0.004    27.926     8.668
    15   6 C        2.922    -0.040    28.985     8.829
    16   6 C        2.912    -0.032    28.803     8.800
    17   6 C        2.916    -0.037    28.922     8.819
    18   6 C        2.917    -0.038    28.943     8.822
    19   6 C        2.974     0.006    27.892     8.663
    20   6 C        3.054    -0.017    28.388     8.738
    21   6 C        3.054    -0.017    28.388     8.738
    22   1 H        0.926     0.027     2.622     2.532
    23   1 H        0.926     0.028     2.619     2.531
    24   1 H        0.926     0.038     2.473     2.459
    25   1 H        0.926     0.028     2.608     2.526
    26   1 H        0.926     0.032     2.558     2.501
    27   1 H        0.926     0.029     2.596     2.519
    28   1 H        0.860     0.164     1.307     1.791
    29   1 H        0.926     0.029     2.596     2.519
    30   1 H        0.926     0.032     2.558     2.501
    31   1 H        0.926     0.028     2.608     2.526
    32   1 H        0.926     0.027     2.622     2.532
    33   1 H        0.926     0.028     2.619     2.531
    34   1 H        0.926     0.038     2.473     2.459

molecular dipole:
                 x           y           z       tot (Debye)
 q only:       -0.000       0.667      -0.000
   full:       -0.000       0.921      -0.000       2.341

 projected vibrational frequencies (cm⁻¹)
eigval :       -0.00    -0.00    -0.00    -0.00     0.00     0.00
eigval :       56.30    64.79    90.89   134.52   160.82   162.67
eigval :      223.52   229.10   296.18   313.42   344.05   344.11
eigval :      380.27   387.13   402.49   416.86   433.11   480.30
eigval :      480.52   495.50   496.67   511.83   533.50   575.92
eigval :      596.34   609.74   647.84   667.48   698.20   709.29
eigval :      723.00   726.99   729.46   737.39   760.73   769.14
eigval :      800.99   820.67   824.22   833.35   842.97   847.37
eigval :      875.74   881.00   907.66   907.93   938.96   978.09
eigval :     1026.46  1070.36  1078.06  1082.63  1096.26  1128.92
eigval :     1136.73  1155.37  1170.50  1174.86  1190.93  1204.30
eigval :     1217.50  1218.75  1235.78  1247.53  1260.63  1271.55
eigval :     1321.64  1338.23  1345.94  1360.67  1364.38  1393.42
eigval :     1402.36  1424.24  1442.36  1451.52  1504.15  1511.75
eigval :     1525.11  1531.59  1537.41  1552.91  1596.39  3063.72
eigval :     3063.80  3072.97  3073.06  3080.01  3080.09  3082.97
eigval :     3083.68  3090.04  3091.41  3101.36  3104.17  3488.36

   temp. (K)  partition function   enthalpy   heat capacity  entropy
                                   cal/mol     cal/K/mol   cal/K/mol   J/K/mol
 298.15  VIB  0.151E+05             7870.178     59.211     44.748
         ROT  0.263E+07              888.752      2.981     32.354
         INT  0.397E+11             8758.930     62.192     77.102
         TR   0.423E+28             1481.254      4.968     42.630
         TOT                       10240.1844    67.1603   119.7313   500.9558

       T/K    H(0)-H(T)+PV         H(T)/Eh          T*S/Eh         G(T)/Eh
   ------------------------------------------------------------------------
    298.15    0.163188E-01    0.273514E+00    0.568882E-01    0.216626E+00
   ------------------------------------------------------------------------

         :::::::::::::::::::::::::::::::::::::::::::::::::::::
         ::                  THERMODYNAMIC                  ::
         :::::::::::::::::::::::::::::::::::::::::::::::::::::
         :: total free energy         -52.122808405515 Eh   ::
         ::.................................................::
         :: total energy              -52.339434675139 Eh   ::
         :: zero point energy           0.257195710852 Eh   ::
         :: G(RRHO) w/o ZPVE           -0.040569441227 Eh   ::
         :: G(RRHO) contrib.            0.216626269625 Eh   ::
         :::::::::::::::::::::::::::::::::::::::::::::::::::::

           -------------------------------------------------
          | TOTAL ENERGY              -52.339434675139 Eh   |
          | TOTAL ENTHALPY            -52.065920191770 Eh   |
          | TOTAL FREE ENERGY         -52.122808405515 Eh   |
          | GRADIENT NORM               0.000049354093 Eh/α |
          | HOMO-LUMO GAP               0.731894249279 eV   |
           -------------------------------------------------

 * finished run on 2025/09/14 at 03:40:09.553
