   * xtb version 6.7.1 (edcfbbe) compiled by 'albert@albert-system' on 2024-07-22

   ID    Z sym.   atoms
    1    6 C      1-9, 11-21
    2    7 N      10
    3    1 H      22-34

          program call               : xtb data2507/toluene/dbG2TAZ/dbG2TAZ_toluene_T1_crest.xyz --gfn 2 --uhf 2 --gbsa toluene --ohess vtight --parallel 40 --molden --ceasefiles --namespace data2507/toluene/dbG2TAZ/dbG2TAZ_toluene_T1_finalOpt
      * Solvation model:               GBSA
        Solvent                        toluene
        Solvent mass                       9.2140E+01 g/mol
          :  Hamiltonian                  GFN2-xTB          :
 * total energy  :   -52.3394205 Eh     change       -0.9483827E-09 Eh
 * total energy  :   -52.3394313 Eh     change       -0.1075405E-04 Eh
 * total energy  :   -52.3394328 Eh     change       -0.1521457E-05 Eh
 * total energy  :   -52.3394337 Eh     change       -0.9599409E-06 Eh
 * total energy  :   -52.3394342 Eh     change       -0.4966273E-06 Eh
 * total energy  :   -52.3394345 Eh     change       -0.2958331E-06 Eh
 * total energy  :   -52.3394346 Eh     change       -0.7173954E-07 Eh
   *** GEOMETRY OPTIMIZATION CONVERGED AFTER 7 ITERATIONS ***

 final structure:
================
34
 xtb: 6.7.1 (edcfbbe)
C            3.81255288665088       -2.25278026103540        0.26079872157096
C            2.53056177203853       -2.59729044914170        0.66246784240426
C            1.50085355873755       -1.66107673696951        0.58795357156418
C            1.72593679048721       -0.37757279394582        0.11059357078303
C            3.06821960177522        0.02021450833760       -0.18407859626072
C            4.08317513309850       -0.96245973615597       -0.14325704680457
C            3.38355518479555        1.36531831304701       -0.43109777735693
C            2.41296166016264        2.37919239014409       -0.33883265382751
C            1.11613857801079        2.00760261823180       -0.10678593233390
N            0.00017480338104        2.80249785914589       -0.00062077738849
C           -1.11588626792683        2.00778414231188        0.10589616173019
C           -2.41262245893504        2.37959355813170        0.33804590086955
C           -3.38332614044477        1.36585950622955        0.43075833035444
C           -3.06820705431143        0.02066075969735        0.18399795965738
C           -4.08330239982412       -0.96187903384182        0.14348091303784
C           -3.81291355301892       -2.25229333348053       -0.26043796439087
C           -2.53101864760329       -2.59705932482386       -0.66218263476760
C           -1.50115735000335       -1.66099146857939       -0.58789896624364
C           -1.72601537703062       -0.37737077802350       -0.11075786179227
C           -0.69638084681287        0.62737637453021        0.00911617673852
C            0.69644782800263        0.62728012211032       -0.00962177957220
H            4.60444179131505       -2.98778888265404        0.28793234850019
H            2.32219574835975       -3.59164447274065        1.02845755793131
H            0.51675542619132       -1.93410034647576        0.93537006686801
H            5.08909366021373       -0.67725217857827       -0.41691642946385
H            4.40945849592311        1.63286167085317       -0.63403571533691
H            2.69028813068576        3.41601072093498       -0.45170118465924
H            0.00025162509068        3.80780835787604       -0.00071278124613
H           -2.68981373813821        3.41647528335287        0.45066442134949
H           -4.40915374554812        1.63359140938344        0.63383026334337
H           -5.08914092597890       -0.67650375302106        0.41726015203455
H           -4.60489292287140       -2.98721664889238       -0.28726419001255
H           -2.32282991370378       -3.59151013600905       -1.02801017692930
H           -0.51714624146833       -1.93419628364921       -0.93541999055060

          :  Hamiltonian                  GFN2-xTB          :
         :: gradient norm              0.000032023730 Eh/a0 ::
         :: HOMO-LUMO gap              0.732047597344 eV    ::
         :: SCC energy               -53.326811921337 Eh    ::
         :: -> dispersion             -0.043197881066 Eh    ::
         :: -> Gsolv                  -0.020675728523 Eh    ::
         :: repulsion energy           0.987377313134 Eh    ::

    * Orbital Energies and Occupations

         #    Occupation            Energy/Eh            Energy/eV
      -------------------------------------------------------------
         1        2.0000           -0.6786412             -18.4668
       ...           ...                  ...                  ...
        38        2.0000           -0.4453523             -12.1187
        39        2.0000           -0.4322388             -11.7618
        40        2.0000           -0.4309151             -11.7258
        41        2.0000           -0.4224441             -11.4953
        42        2.0000           -0.4162836             -11.3277
        43        2.0000           -0.4146576             -11.2834
        44        2.0000           -0.4128816             -11.2351
        45        2.0000           -0.4088994             -11.1267
        46        2.0000           -0.3998577             -10.8807
        47        2.0000           -0.3828832             -10.4188
        48        2.0000           -0.3717222             -10.1151
        49        1.0000           -0.3527058              -9.5976
        50        1.0000           -0.2731700              -7.4333 (HOMO)
        51        0.0000           -0.2462677              -6.7013 (LUMO)
        52                         -0.2233677              -6.0781
        53                         -0.2115845              -5.7575
        54                         -0.1961352              -5.3371
        55                         -0.1713676              -4.6631
        56                         -0.1346462              -3.6639
        57                         -0.1327977              -3.6136
        58                         -0.0666289              -1.8131
        59                         -0.0463220              -1.2605
        60                          0.0146641               0.3990
        61                          0.0866902               2.3590
       ...                                ...                  ...
        97                          0.7560788              20.5740
      -------------------------------------------------------------
                  HL-Gap            0.0269023 Eh            0.7320 eV

     #   Z          covCN         q      C6AA      α(0)
     1   6 C        2.912    -0.032    28.803     8.800
     2   6 C        2.916    -0.037    28.922     8.819
     3   6 C        2.917    -0.038    28.943     8.822
     4   6 C        2.974     0.006    27.892     8.663
     5   6 C        2.978     0.004    27.926     8.668
     6   6 C        2.922    -0.040    28.985     8.829
     7   6 C        2.923    -0.043    29.056     8.840
     8   6 C        2.902    -0.065    29.613     8.923
     9   6 C        3.062     0.062    26.560     8.451
    10   7 N        2.744    -0.130    23.827     7.250
    11   6 C        3.062     0.062    26.560     8.451
    12   6 C        2.902    -0.065    29.613     8.923
    13   6 C        2.923    -0.043    29.056     8.840
    14   6 C        2.978     0.004    27.926     8.668
    15   6 C        2.922    -0.040    28.985     8.829
    16   6 C        2.912    -0.032    28.803     8.800
    17   6 C        2.916    -0.037    28.922     8.819
    18   6 C        2.917    -0.038    28.943     8.822
    19   6 C        2.974     0.006    27.892     8.663
    20   6 C        3.054    -0.017    28.388     8.738
    21   6 C        3.054    -0.017    28.388     8.738
    22   1 H        0.926     0.027     2.622     2.532
    23   1 H        0.926     0.028     2.619     2.531
    24   1 H        0.926     0.038     2.473     2.459
    25   1 H        0.926     0.028     2.608     2.526
    26   1 H        0.926     0.032     2.558     2.501
    27   1 H        0.926     0.029     2.596     2.519
    28   1 H        0.860     0.164     1.307     1.791
    29   1 H        0.926     0.029     2.596     2.519
    30   1 H        0.926     0.032     2.558     2.501
    31   1 H        0.926     0.028     2.608     2.526
    32   1 H        0.926     0.027     2.622     2.532
    33   1 H        0.926     0.028     2.619     2.531
    34   1 H        0.926     0.038     2.473     2.459

molecular dipole:
                 x           y           z       tot (Debye)
 q only:        0.000       0.667      -0.000
   full:        0.000       0.921      -0.000       2.341

 projected vibrational frequencies (cm⁻¹)
eigval :       -0.00    -0.00    -0.00    -0.00     0.00     0.00
eigval :       56.26    64.76    90.90   134.52   160.71   162.64
eigval :      223.56   229.03   296.16   313.43   344.06   344.11
eigval :      380.21   387.10   402.51   416.81   433.10   480.27
eigval :      480.54   495.48   496.64   511.84   533.50   575.93
eigval :      596.33   609.73   647.81   667.48   698.19   709.27
eigval :      723.01   727.01   729.48   737.39   760.76   769.15
eigval :      800.97   820.66   824.20   833.38   842.97   847.37
eigval :      875.79   880.97   907.68   907.95   938.73   978.06
eigval :     1026.45  1070.33  1078.02  1082.60  1096.24  1128.92
eigval :     1136.68  1155.34  1170.51  1174.86  1190.89  1204.29
eigval :     1217.47  1218.76  1235.78  1247.53  1260.61  1271.54
eigval :     1321.63  1338.21  1345.92  1360.65  1364.36  1393.42
eigval :     1402.35  1424.22  1442.32  1451.52  1504.13  1511.72
eigval :     1525.08  1531.58  1537.39  1552.91  1596.37  3063.73
eigval :     3063.81  3072.98  3073.07  3080.03  3080.10  3082.93
eigval :     3083.65  3090.05  3091.42  3101.32  3104.11  3488.40

   temp. (K)  partition function   enthalpy   heat capacity  entropy
                                   cal/mol     cal/K/mol   cal/K/mol   J/K/mol
 298.15  VIB  0.151E+05             7870.577     59.211     44.751
         ROT  0.263E+07              888.752      2.981     32.354
         INT  0.398E+11             8759.330     62.192     77.105
         TR   0.423E+28             1481.254      4.968     42.630
         TOT                       10240.5836    67.1605   119.7347   500.9702

       T/K    H(0)-H(T)+PV         H(T)/Eh          T*S/Eh         G(T)/Eh
   ------------------------------------------------------------------------
    298.15    0.163194E-01    0.273512E+00    0.568898E-01    0.216622E+00
   ------------------------------------------------------------------------

         :::::::::::::::::::::::::::::::::::::::::::::::::::::
         ::                  THERMODYNAMIC                  ::
         :::::::::::::::::::::::::::::::::::::::::::::::::::::
         :: total free energy         -52.122812179085 Eh   ::
         ::.................................................::
         :: total energy              -52.339434610160 Eh   ::
         :: zero point energy           0.257192862585 Eh   ::
         :: G(RRHO) w/o ZPVE           -0.040570431510 Eh   ::
         :: G(RRHO) contrib.            0.216622431074 Eh   ::
         :::::::::::::::::::::::::::::::::::::::::::::::::::::

           -------------------------------------------------
          | TOTAL ENERGY              -52.339434610160 Eh   |
          | TOTAL ENTHALPY            -52.065922338902 Eh   |
          | TOTAL FREE ENERGY         -52.122812179085 Eh   |
          | GRADIENT NORM               0.000031975522 Eh/α |
          | HOMO-LUMO GAP               0.732047767493 eV   |
           -------------------------------------------------

 * finished run on 2025/09/14 at 03:40:57.097
