   * xtb version 6.7.1 (edcfbbe) compiled by 'albert@albert-system' on 2024-07-22

   ID    Z sym.   atoms
    1    6 C      1-9, 11-21
    2    7 N      10
    3    1 H      22-34

          program call               : xtb data2507/toluene/dbG2TAZ/dbG2TAZ_toluene_S0_crest.xyz --gfn 2 --gbsa toluene --ohess vtight --parallel 40 --molden --ceasefiles --namespace data2507/toluene/dbG2TAZ/dbG2TAZ_toluene_S0_finalOpt
      * Solvation model:               GBSA
        Solvent                        toluene
        Solvent mass                       9.2140E+01 g/mol
          :  Hamiltonian                  GFN2-xTB          :
 * total energy  :   -52.4270607 Eh     change       -0.3235847E-08 Eh
 * total energy  :   -52.4270709 Eh     change       -0.1027725E-04 Eh
 * total energy  :   -52.4270725 Eh     change       -0.1615393E-05 Eh
 * total energy  :   -52.4270737 Eh     change       -0.1127659E-05 Eh
 * total energy  :   -52.4270745 Eh     change       -0.7985945E-06 Eh
 * total energy  :   -52.4270750 Eh     change       -0.4930783E-06 Eh
 * total energy  :   -52.4270751 Eh     change       -0.1074512E-06 Eh
 * total energy  :   -52.4270750 Eh     change        0.5928207E-07 Eh
 * total energy  :   -52.4270751 Eh     change       -0.9268178E-07 Eh
   *** GEOMETRY OPTIMIZATION CONVERGED AFTER 9 ITERATIONS ***

 final structure:
================
34
 xtb: 6.7.1 (edcfbbe)
C            3.85243384579580       -2.21991704334979        0.23985644607801
C            2.55475224692686       -2.59191041687095        0.60722236101924
C            1.52579079383744       -1.68901864865782        0.53344772319932
C            1.74036704592507       -0.37338976371173        0.08317121827136
C            3.08005850769922        0.03619061591540       -0.17003554004815
C            4.10904460698479       -0.92387199869033       -0.11892836710519
C            3.38817995361895        1.40182332954975       -0.40330284397944
C            2.43046831530793        2.36825518319337       -0.32136936789452
C            1.10432774541004        1.96340461081735       -0.11748119995142
N           -0.00128809909417        2.75632163203391       -0.00079431012347
C           -1.10617106782311        1.96242044762325        0.11618504995465
C           -2.43287752830981        2.36623639436001        0.31840060826622
C           -3.38988957424323        1.39904969500427        0.39951688684657
C           -3.08026086055317        0.03351766156375        0.16766071934644
C           -4.10844600818649       -0.92734335538092        0.11539010944344
C           -3.85019004665697       -2.22355100418971       -0.24161947396663
C           -2.55144780793462       -2.59503427651589       -0.60571921868578
C           -1.52333497075180       -1.69125682290308       -0.53101665318464
C           -1.73980859664495       -0.37518503023020       -0.08295521061898
C           -0.71749131345934        0.61083490644706        0.03178066988015
C            0.71699686096534        0.61152920851017       -0.03159679682091
H            4.65121973673935       -2.94669270008679        0.27788146944164
H            2.36755210423730       -3.59513368219984        0.96302031002085
H            0.54289803702986       -1.97251066303534        0.87414767153374
H            5.11870277103992       -0.61014053849717       -0.34618592331495
H            4.41743839092281        1.66750774491310       -0.59665927702135
H            2.67080061228362        3.41653719815386       -0.42195960786408
H           -0.00186001595678        3.76292140929949       -0.00169454892021
H           -2.67424346111713        3.41437652213353        0.41800924938021
H           -4.41967782146859        1.66399922104922        0.59106325747446
H           -5.11879411692505       -0.61411914017673        0.34026990756877
H           -4.64839319471792       -2.95091205630956       -0.28067173861614
H           -2.36271553394955       -3.59860462488414       -0.95972816627687
H           -0.53951288443167       -1.97452554867754       -0.86917071083230

          :  Hamiltonian                  GFN2-xTB          :
         :: gradient norm              0.000036580447 Eh/a0 ::
         :: HOMO-LUMO gap              2.603291436610 eV    ::
         :: SCC energy               -53.432312628235 Eh    ::
         :: -> dispersion             -0.043261380842 Eh    ::
         :: -> Gsolv                  -0.020728790785 Eh    ::
         :: repulsion energy           1.005237523379 Eh    ::

    * Orbital Energies and Occupations

         #    Occupation            Energy/Eh            Energy/eV
      -------------------------------------------------------------
         1        2.0000           -0.6781669             -18.4539
       ...           ...                  ...                  ...
        37        2.0000           -0.4442333             -12.0882
        38        2.0000           -0.4440333             -12.0828
        39        2.0000           -0.4333575             -11.7923
        40        2.0000           -0.4288581             -11.6698
        41        2.0000           -0.4213207             -11.4647
        42        2.0000           -0.4142655             -11.2727
        43        2.0000           -0.4129737             -11.2376
        44        2.0000           -0.4119068             -11.2086
        45        2.0000           -0.4073544             -11.0847
        46        2.0000           -0.3965270             -10.7900
        47        2.0000           -0.3854299             -10.4881
        48        2.0000           -0.3676811             -10.0051
        49        2.0000           -0.3582493              -9.7485 (HOMO)
        50                         -0.2625801              -7.1452 (LUMO)
        51                         -0.2421607              -6.5895
        52                         -0.2248640              -6.1189
        53                         -0.2123738              -5.7790
        54                         -0.1924263              -5.2362
        55                         -0.1684839              -4.5847
        56                         -0.1310650              -3.5665
        57                         -0.1300775              -3.5396
        58                         -0.0623231              -1.6959
        59                         -0.0416112              -1.1323
        60                          0.0223218               0.6074
       ...                                ...                  ...
        97                          0.7433666              20.2280
      -------------------------------------------------------------
                  HL-Gap            0.0956692 Eh            2.6033 eV

     #   Z          covCN         q      C6AA      α(0)
     1   6 C        2.915    -0.036    28.890     8.814
     2   6 C        2.917    -0.034    28.847     8.807
     3   6 C        2.917    -0.041    29.023     8.834
     4   6 C        2.979     0.008    27.828     8.653
     5   6 C        2.986     0.002    27.974     8.676
     6   6 C        2.922    -0.037    28.928     8.820
     7   6 C        2.925    -0.041    29.017     8.834
     8   6 C        2.906    -0.053    29.306     8.877
     9   6 C        3.094     0.048    26.807     8.486
    10   7 N        2.761    -0.112    23.437     7.190
    11   6 C        3.094     0.048    26.807     8.486
    12   6 C        2.906    -0.053    29.306     8.877
    13   6 C        2.925    -0.041    29.017     8.834
    14   6 C        2.986     0.002    27.974     8.676
    15   6 C        2.922    -0.037    28.928     8.820
    16   6 C        2.915    -0.036    28.890     8.814
    17   6 C        2.917    -0.034    28.846     8.807
    18   6 C        2.917    -0.041    29.024     8.834
    19   6 C        2.979     0.008    27.828     8.653
    20   6 C        3.070    -0.027    28.591     8.767
    21   6 C        3.070    -0.027    28.591     8.767
    22   1 H        0.926     0.026     2.650     2.546
    23   1 H        0.926     0.026     2.638     2.540
    24   1 H        0.926     0.040     2.455     2.450
    25   1 H        0.925     0.028     2.620     2.531
    26   1 H        0.926     0.033     2.549     2.497
    27   1 H        0.926     0.031     2.569     2.506
    28   1 H        0.860     0.165     1.301     1.787
    29   1 H        0.926     0.031     2.569     2.506
    30   1 H        0.926     0.033     2.549     2.497
    31   1 H        0.925     0.028     2.620     2.531
    32   1 H        0.926     0.026     2.650     2.546
    33   1 H        0.926     0.026     2.638     2.540
    34   1 H        0.926     0.040     2.454     2.450

molecular dipole:
                 x           y           z       tot (Debye)
 q only:       -0.000       0.825      -0.000
   full:       -0.000       1.085      -0.001       2.757

 projected vibrational frequencies (cm⁻¹)
eigval :       -0.00    -0.00    -0.00    -0.00     0.00     0.00
eigval :       63.82    64.02    89.64   139.87   172.58   177.65
eigval :      229.07   239.06   295.67   328.34   345.65   387.50
eigval :      395.79   416.24   429.28   478.62   485.56   493.38
eigval :      503.32   515.30   529.56   539.43   552.27   579.35
eigval :      603.53   634.61   660.11   678.92   716.56   729.18
eigval :      732.51   736.29   756.01   771.30   810.31   820.20
eigval :      821.36   846.47   863.37   882.78   893.74   897.16
eigval :      898.83   904.49   918.73   920.04   964.72  1010.56
eigval :     1046.97  1081.74  1088.68  1096.12  1127.92  1153.64
eigval :     1159.74  1161.81  1177.29  1177.60  1199.14  1223.33
eigval :     1223.78  1238.07  1259.23  1308.47  1322.26  1346.37
eigval :     1352.38  1369.09  1370.65  1390.62  1407.97  1422.79
eigval :     1437.29  1447.61  1455.14  1529.38  1531.45  1551.40
eigval :     1557.43  1578.16  1582.74  1603.83  1604.32  3060.23
eigval :     3060.34  3067.49  3067.66  3069.82  3069.91  3079.12
eigval :     3079.44  3082.45  3083.72  3106.59  3110.41  3471.24

   temp. (K)  partition function   enthalpy   heat capacity  entropy
                                   cal/mol     cal/K/mol   cal/K/mol   J/K/mol
 298.15  VIB  0.845E+04             7468.932     56.957     42.391
         ROT  0.262E+07              888.752      2.981     32.351
         INT  0.221E+11             8357.684     59.938     74.742
         TR   0.423E+28             1481.254      4.968     42.630
         TOT                        9838.9378    64.9064   117.3721   491.0850

       T/K    H(0)-H(T)+PV         H(T)/Eh          T*S/Eh         G(T)/Eh
   ------------------------------------------------------------------------
    298.15    0.156793E-01    0.277476E+00    0.557673E-01    0.221709E+00
   ------------------------------------------------------------------------

         :::::::::::::::::::::::::::::::::::::::::::::::::::::
         ::                  THERMODYNAMIC                  ::
         :::::::::::::::::::::::::::::::::::::::::::::::::::::
         :: total free energy         -52.205366069192 Eh   ::
         ::.................................................::
         :: total energy              -52.427075106296 Eh   ::
         :: zero point energy           0.261796973326 Eh   ::
         :: G(RRHO) w/o ZPVE           -0.040087936223 Eh   ::
         :: G(RRHO) contrib.            0.221709037103 Eh   ::
         :::::::::::::::::::::::::::::::::::::::::::::::::::::

           -------------------------------------------------
          | TOTAL ENERGY              -52.427075106296 Eh   |
          | TOTAL ENTHALPY            -52.149598787476 Eh   |
          | TOTAL FREE ENERGY         -52.205366069192 Eh   |
          | GRADIENT NORM               0.000036551967 Eh/α |
          | HOMO-LUMO GAP               2.603291210176 eV   |
           -------------------------------------------------

 * finished run on 2025/09/14 at 03:40:08.501
