   * xtb version 6.7.1 (edcfbbe) compiled by 'albert@albert-system' on 2024-07-22

   ID    Z sym.   atoms
    1    6 C      1-5, 8-12, 14-19, 21-28, 30, 31
    2    7 N      6, 7, 13
    3    8 O      20, 29
    4    1 H      32-48

          program call               : xtb data2507/gas/PXZ-OXD/PXZ-OXD_gas_S0_crest.xyz --gfn 2 --ohess vtight --parallel 40 --molden --ceasefiles --namespace data2507/gas/PXZ-OXD/PXZ-OXD_gas_S0_finalOpt
          :  Hamiltonian                  GFN2-xTB          :
 * total energy  :   -81.2623579 Eh     change       -0.1594017E-08 Eh
 * total energy  :   -81.2623583 Eh     change       -0.4136289E-06 Eh
 * total energy  :   -81.2623588 Eh     change       -0.5320533E-06 Eh
 * total energy  :   -81.2623593 Eh     change       -0.4423891E-06 Eh
 * total energy  :   -81.2623596 Eh     change       -0.3105063E-06 Eh
 * total energy  :   -81.2623598 Eh     change       -0.2079545E-06 Eh
 * total energy  :   -81.2623599 Eh     change       -0.1403334E-06 Eh
 * total energy  :   -81.2623601 Eh     change       -0.1475077E-06 Eh
 * total energy  :   -81.2623602 Eh     change       -0.1786075E-06 Eh
 * total energy  :   -81.2623604 Eh     change       -0.1771988E-06 Eh
 * total energy  :   -81.2623606 Eh     change       -0.1686648E-06 Eh
 * total energy  :   -81.2623608 Eh     change       -0.2007343E-06 Eh
 * total energy  :   -81.2623611 Eh     change       -0.2704225E-06 Eh
 * total energy  :   -81.2623613 Eh     change       -0.2544416E-06 Eh
 * total energy  :   -81.2623614 Eh     change       -0.1247481E-06 Eh
 * total energy  :   -81.2623615 Eh     change       -0.5387564E-07 Eh
   *** GEOMETRY OPTIMIZATION CONVERGED AFTER 16 ITERATIONS ***

 final structure:
================
48
 xtb: 6.7.1 (edcfbbe)
C            8.41359087016707       -0.85572574740499        1.16047862690009
C            7.23570686226111       -1.32743901031055        1.71760058696606
C            6.01637189074693       -0.92168613839087        1.20989700200636
C            5.97458865014133       -0.03564802589938        0.13464165355495
C            4.71219753390775        0.40107332316060       -0.41283561275828
N            4.53316387501233        1.21874824095453       -1.41023113296020
N            3.21481092358965        1.34984690138199       -1.58884330719388
C            2.62565159029666        0.60797530227882       -0.69476955647832
C            1.20607836886060        0.43852646586205       -0.51079998053254
C            0.32140709351728        1.09834247161581       -1.36617423236895
C           -1.03787903711535        0.94438563764792       -1.20453498557582
C           -1.53783287917321        0.13276766007177       -0.18541783800429
N           -2.92654691097276       -0.02323817187486       -0.01928001822482
C           -3.51954314168404       -1.28451828735490       -0.13521300048663
C           -2.79542540504109       -2.41670773876606       -0.48723752791047
C           -3.41529231108433       -3.65235144797618       -0.59514574504011
C           -4.77043470838824       -3.77595458531041       -0.36572150301106
C           -5.51443019873409       -2.64919467671940       -0.04933697596414
C           -4.90148040257351       -1.41439329053091        0.05676929249159
O           -5.71082449302507       -0.34246788171773        0.33640954347845
C           -5.11768976965015        0.89149452182207        0.43061751808848
C           -5.94533997754717        1.96152904513693        0.71639718401324
C           -5.41760378620997        3.23534838510938        0.86466263306822
C           -4.05588721778387        3.42426430552588        0.74460666463430
C           -3.22188086785697        2.35492861437608        0.45533728628760
C           -3.73850170338756        1.07886065563982        0.26893102853200
C           -0.65326053357931       -0.52412394568824        0.66861922372695
C            0.70780301912273       -0.37460945959574        0.50727496826426
O            3.52907769958884       -0.02660829014661        0.09068706179155
C            7.16119266235410        0.43846158284799       -0.42516644865836
C            8.37367009662606        0.02607698525123        0.09050869972238
H            9.36410279953685       -1.17590182740816        1.56070480091946
H            7.26859381781618       -2.01400528113215        2.55058587532611
H            5.09451691319973       -1.28524565912233        1.63889825681267
H            0.72570064503766        1.71613980791862       -2.15172590430151
H           -1.72694721316333        1.44261406588752       -1.86995432245625
H           -1.73917139063450       -2.33263241270125       -0.68910425603801
H           -2.82582910125895       -4.51505027631461       -0.86493565548148
H           -5.25658841490788       -4.73553617028388       -0.44286928765621
H           -6.57874413085918       -2.70556810377521        0.11390188002189
H           -7.00154138214631        1.77393856482730        0.82533806560080
H           -6.07126916488777        4.06453230722955        1.08431735008863
H           -3.62626239446139        4.40501935511096        0.87837723484108
H           -2.15782926939212        2.51596356195528        0.38310723768515
H           -1.04383452730248       -1.14435396268625        1.46177550651521
H            1.39254389891812       -0.87824382231883        1.17277184467141
H            7.10351353518367        1.12295799007237       -1.25626356970382
H            9.29337946213576        0.39151247514584       -0.34105800480338

          :  Hamiltonian                  GFN2-xTB          :
         :: gradient norm              0.000028741648 Eh/a0 ::
         :: HOMO-LUMO gap              1.620049957515 eV    ::
         :: SCC energy               -82.608798516694 Eh    ::
         :: -> dispersion             -0.059874668700 Eh    ::
         :: repulsion energy           1.346437026475 Eh    ::

    * Orbital Energies and Occupations

         #    Occupation            Energy/Eh            Energy/eV
      -------------------------------------------------------------
         1        2.0000           -0.7686001             -20.9147
       ...           ...                  ...                  ...
        62        2.0000           -0.4363874             -11.8747
        63        2.0000           -0.4360252             -11.8648
        64        2.0000           -0.4309891             -11.7278
        65        2.0000           -0.4257104             -11.5842
        66        2.0000           -0.4234903             -11.5238
        67        2.0000           -0.4208696             -11.4524
        68        2.0000           -0.4204444             -11.4409
        69        2.0000           -0.4171144             -11.3503
        70        2.0000           -0.4139737             -11.2648
        71        2.0000           -0.3988270             -10.8526
        72        2.0000           -0.3910238             -10.6403
        73        2.0000           -0.3866812             -10.5221
        74        2.0000           -0.3452220              -9.3940 (HOMO)
        75                         -0.2856861              -7.7739 (LUMO)
        76                         -0.2611596              -7.1065
        77                         -0.2445276              -6.6539
        78                         -0.2396295              -6.5207
        79                         -0.2375748              -6.4647
        80                         -0.2308884              -6.2828
        81                         -0.2173493              -5.9144
        82                         -0.2005598              -5.4575
        83                         -0.1904073              -5.1812
        84                         -0.1839466              -5.0054
        85                         -0.1040088              -2.8302
       ...                                ...                  ...
       141                          0.6734885              18.3266
      -------------------------------------------------------------
                  HL-Gap            0.0595358 Eh            1.6201 eV

     #   Z          covCN         q      C6AA      α(0)
     1   6 C        2.920    -0.024    28.597     8.769
     2   6 C        2.919    -0.027    28.664     8.780
     3   6 C        2.923    -0.026    28.647     8.777
     4   6 C        2.975    -0.003    28.098     8.695
     5   6 C        3.171     0.214    23.182     7.865
     6   7 N        2.048    -0.196    25.980     7.561
     7   7 N        2.048    -0.198    26.010     7.565
     8   6 C        3.171     0.213    23.190     7.867
     9   6 C        2.975    -0.007    28.197     8.710
    10   6 C        2.924    -0.028    28.703     8.786
    11   6 C        2.920    -0.037    28.931     8.820
    12   6 C        2.921     0.070    26.427     8.430
    13   7 N        2.751    -0.068    22.565     7.055
    14   6 C        2.922     0.042    27.061     8.531
    15   6 C        2.924    -0.060    29.486     8.905
    16   6 C        2.919    -0.039    28.958     8.824
    17   6 C        2.919    -0.040    28.985     8.829
    18   6 C        2.920    -0.056    29.389     8.890
    19   6 C        2.884     0.125    25.251     8.238
    20   8 O        1.709    -0.254    18.203     5.760
    21   6 C        2.884     0.125    25.254     8.239
    22   6 C        2.920    -0.056    29.387     8.890
    23   6 C        2.919    -0.039    28.981     8.828
    24   6 C        2.919    -0.038    28.951     8.823
    25   6 C        2.924    -0.060    29.486     8.905
    26   6 C        2.922     0.042    27.063     8.531
    27   6 C        2.921    -0.040    28.992     8.830
    28   6 C        2.922    -0.027    28.671     8.781
    29   8 O        1.722    -0.228    17.780     5.693
    30   6 C        2.925    -0.027    28.676     8.782
    31   6 C        2.919    -0.024    28.599     8.770
    32   1 H        0.926     0.041     2.441     2.443
    33   1 H        0.926     0.039     2.456     2.451
    34   1 H        0.926     0.044     2.395     2.420
    35   1 H        0.926     0.067     2.122     2.278
    36   1 H        0.926     0.051     2.304     2.374
    37   1 H        0.926     0.035     2.521     2.483
    38   1 H        0.926     0.037     2.494     2.470
    39   1 H        0.926     0.039     2.462     2.454
    40   1 H        0.926     0.051     2.303     2.373
    41   1 H        0.926     0.051     2.303     2.373
    42   1 H        0.926     0.039     2.458     2.452
    43   1 H        0.926     0.038     2.481     2.463
    44   1 H        0.926     0.036     2.503     2.474
    45   1 H        0.926     0.047     2.352     2.398
    46   1 H        0.926     0.050     2.325     2.385
    47   1 H        0.926     0.062     2.181     2.309
    48   1 H        0.926     0.043     2.405     2.425

molecular dipole:
                 x           y           z       tot (Debye)
 q only:        0.322      -0.432       0.550
   full:        0.324      -0.814       1.013       3.404

 projected vibrational frequencies (cm⁻¹)
eigval :       -0.00    -0.00    -0.00    -0.00     0.00     0.00
eigval :       14.69    22.89    23.27    40.95    42.89    60.57
eigval :       65.74    89.61   110.16   117.87   135.72   141.20
eigval :      197.79   203.69   243.14   254.53   272.25   285.69
eigval :      316.69   354.78   366.40   377.09   380.59   390.13
eigval :      398.16   425.17   430.40   446.00   452.15   474.14
eigval :      495.56   500.61   510.00   522.85   550.60   587.29
eigval :      587.48   596.83   608.76   654.37   656.22   661.59
eigval :      661.79   678.80   684.08   700.83   718.53   724.14
eigval :      770.19   779.23   779.54   803.26   824.98   855.70
eigval :      863.96   866.84   875.55   877.02   897.68   898.87
eigval :      906.88   911.04   913.99   915.34   917.22   926.20
eigval :      929.45   933.81   935.12   954.10   972.96   994.68
eigval :     1016.55  1075.30  1083.05  1090.69  1091.87  1097.90
eigval :     1108.65  1114.98  1121.07  1127.07  1170.83  1175.56
eigval :     1179.84  1180.84  1184.85  1188.34  1190.88  1202.18
eigval :     1223.00  1243.12  1259.02  1262.09  1270.86  1279.55
eigval :     1304.56  1310.40  1318.30  1324.32  1327.42  1338.94
eigval :     1355.66  1407.93  1424.41  1430.81  1442.25  1453.55
eigval :     1461.11  1487.64  1503.69  1534.78  1537.22  1559.35
eigval :     1568.15  1580.61  1582.54  1585.36  1591.23  1593.46
eigval :     1603.08  3079.44  3085.27  3087.25  3089.59  3090.44
eigval :     3092.69  3092.84  3097.53  3098.79  3099.55  3099.96
eigval :     3106.51  3107.46  3113.42  3113.96  3114.70  3116.66

   temp. (K)  partition function   enthalpy   heat capacity  entropy
                                   cal/mol     cal/K/mol   cal/K/mol   J/K/mol
 298.15  VIB  0.112E+11            13216.571     85.223     81.301
         ROT  0.278E+08              888.752      2.981     37.046
         INT  0.311E+18            14105.323     88.204    118.347
         TR   0.784E+28             1481.254      4.968     43.856
         TOT                       15586.5769    93.1725   162.2031   678.6579

       T/K    H(0)-H(T)+PV         H(T)/Eh          T*S/Eh         G(T)/Eh
   ------------------------------------------------------------------------
    298.15    0.248388E-01    0.382031E+00    0.770679E-01    0.304963E+00
   ------------------------------------------------------------------------

         :::::::::::::::::::::::::::::::::::::::::::::::::::::
         ::                  THERMODYNAMIC                  ::
         :::::::::::::::::::::::::::::::::::::::::::::::::::::
         :: total free energy         -80.957398608442 Eh   ::
         ::.................................................::
         :: total energy              -81.262361490218 Eh   ::
         :: zero point energy           0.357192028477 Eh   ::
         :: G(RRHO) w/o ZPVE           -0.052229146701 Eh   ::
         :: G(RRHO) contrib.            0.304962881776 Eh   ::
         :::::::::::::::::::::::::::::::::::::::::::::::::::::

           -------------------------------------------------
          | TOTAL ENERGY              -81.262361490218 Eh   |
          | TOTAL ENTHALPY            -80.880330670382 Eh   |
          | TOTAL FREE ENERGY         -80.957398608442 Eh   |
          | GRADIENT NORM               0.000028780310 Eh/α |
          | HOMO-LUMO GAP               1.620052747207 eV   |
           -------------------------------------------------

 * finished run on 2025/09/05 at 02:04:43.152
