   * xtb version 6.7.1 (edcfbbe) compiled by 'albert@albert-system' on 2024-07-22

   ID    Z sym.   atoms
    1    6 C      1-5, 8-12, 14-19, 21-28, 30, 31
    2    7 N      6, 7, 13
    3    8 O      20, 29
    4    1 H      32-48

          program call               : xtb data2507/gas/PXZ-OXD/PXZ-OXD.xyz --gfn 2 --ohess vtight --parallel 40 --molden --ceasefiles --namespace data2507/gas/PXZ-OXD/PXZ-OXD_gas_S0_preOpt
          :  Hamiltonian                  GFN2-xTB          :
 * total energy  :   -81.2478199 Eh     change       -0.2216510E-08 Eh
 * total energy  :   -81.2568921 Eh     change       -0.9072258E-02 Eh
 * total energy  :   -81.2594933 Eh     change       -0.2601143E-02 Eh
 * total energy  :   -81.2602428 Eh     change       -0.7495150E-03 Eh
 * total energy  :   -81.2606074 Eh     change       -0.3646111E-03 Eh
 * total energy  :   -81.2607298 Eh     change       -0.1223951E-03 Eh
 * total energy  :   -81.2607934 Eh     change       -0.6362940E-04 Eh
 * total energy  :   -81.2608299 Eh     change       -0.3645505E-04 Eh
 * total energy  :   -81.2608750 Eh     change       -0.4507474E-04 Eh
 * total energy  :   -81.2609174 Eh     change       -0.4241124E-04 Eh
 * total energy  :   -81.2623540 Eh     change       -0.5383774E-05 Eh
 * total energy  :   -81.2623571 Eh     change       -0.3121862E-05 Eh
 * total energy  :   -81.2623586 Eh     change       -0.1508832E-05 Eh
 * total energy  :   -81.2623594 Eh     change       -0.7529019E-06 Eh
 * total energy  :   -81.2623594 Eh     change        0.2081107E-07 Eh
 * total energy  :   -81.2623599 Eh     change       -0.5005817E-06 Eh
 * total energy  :   -81.2623601 Eh     change       -0.1948889E-06 Eh
 * total energy  :   -81.2623603 Eh     change       -0.2238762E-06 Eh
 * total energy  :   -81.2623604 Eh     change       -0.9483189E-07 Eh
   *** GEOMETRY OPTIMIZATION CONVERGED AFTER 94 ITERATIONS ***

 final structure:
================
48
 xtb: 6.7.1 (edcfbbe)
C            8.39165759667778        0.47055103884638       -1.11709125729084
C            7.22447800140338        0.77526595949056       -1.79912132984879
C            5.99583151174626        0.53434010644202       -1.21466539494537
C            5.93387850018452       -0.01648608493555        0.06428954371673
C            4.66159255706433       -0.27818414220709        0.69427613218490
N            4.46441043246504       -0.78150504909856        1.87884676881161
N            3.14304372414144       -0.85739584996583        2.06678772999278
C            2.57026941248021       -0.39779277964383        0.99088372974689
C            1.15419554480019       -0.29232450639714        0.74314919226822
C            0.67389494533472        0.20606661098580       -0.46799759622784
C           -0.68411983831002        0.29300759007613       -0.68964927401035
C           -1.58355223216178       -0.11336365856182        0.29485351287749
N           -2.96916702128109       -0.02651544348177        0.06458334899240
C           -3.76652822856605       -1.17594855634558        0.07388541473074
C           -3.23725266794360       -2.44716860985654        0.25799288220247
C           -4.05693510932562       -3.56557753450301        0.25686992709429
C           -5.41649347855463       -3.43484279930659        0.05973654309141
C           -5.95594865955477       -2.17647591154912       -0.16071247729574
C           -5.14253312472829       -1.05843712614947       -0.16324406596731
O           -5.74584825122866        0.14581591066788       -0.42620930621635
C           -4.95078500466565        1.26386977665896       -0.43487070824671
C           -5.57429429961603        2.47205723538031       -0.68626563335933
C           -4.84570215208074        3.65200793977905       -0.67629350260377
C           -3.49578239756931        3.61407159792579       -0.39235185898000
C           -2.86529700325974        2.40466248457161       -0.14227994916661
C           -3.57315075287788        1.20999035610263       -0.18448185802591
C           -1.10160330816275       -0.60750672352421        1.50762165614774
C            0.25463655489622       -0.69833258786909        1.73087763628537
O            3.48782451693614       -0.00961709100133        0.07264035423762
C            7.10973502101230       -0.32244790885155        0.74982735487118
C            8.33165915121358       -0.07752111986016        0.15571083334893
H            9.34949648390796        0.66041369003450       -1.57825158877913
H            7.27303011993702        1.20210123321728       -2.78996304911562
H            5.08223411156371        0.76921543669873       -1.74022202535710
H            1.37028260805940        0.51378199365367       -1.23334561292443
H           -1.06066218358290        0.66781704288391       -1.62989765521381
H           -2.17428655360170       -2.56833901098932        0.39494052308580
H           -3.61774892515917       -4.53951450532615        0.40826496595064
H           -6.05916092618892       -4.30089031453271        0.06322389156888
H           -7.01034035723994       -2.03994290231258       -0.34024408151365
H           -6.63462263120281        2.46738788022166       -0.88190879442387
H           -5.33993836893089        4.58932665589730       -0.87694644133954
H           -2.91883709513411        4.52535993641598       -0.35787337569158
H           -1.81373953245144        2.39309238421740        0.09774777339619
H           -1.80233687722537       -0.91007671745408        2.27132960718933
H            0.64505021107941       -1.07253972878830        2.66348703517392
H            7.03640568956481       -0.74772003341138        1.73793635848884
H            9.24305928614635       -0.31373316424679        0.68412412109970

          :  Hamiltonian                  GFN2-xTB          :
         :: gradient norm              0.000049761344 Eh/a0 ::
         :: HOMO-LUMO gap              1.619777813498 eV    ::
         :: SCC energy               -82.608791762599 Eh    ::
         :: -> dispersion             -0.059873767861 Eh    ::
         :: repulsion energy           1.346431377644 Eh    ::

    * Orbital Energies and Occupations

         #    Occupation            Energy/Eh            Energy/eV
      -------------------------------------------------------------
         1        2.0000           -0.7686012             -20.9147
       ...           ...                  ...                  ...
        62        2.0000           -0.4363881             -11.8747
        63        2.0000           -0.4360205             -11.8647
        64        2.0000           -0.4309838             -11.7277
        65        2.0000           -0.4257084             -11.5841
        66        2.0000           -0.4234875             -11.5237
        67        2.0000           -0.4208757             -11.4526
        68        2.0000           -0.4204427             -11.4408
        69        2.0000           -0.4171088             -11.3501
        70        2.0000           -0.4139695             -11.2647
        71        2.0000           -0.3988216             -10.8525
        72        2.0000           -0.3910206             -10.6402
        73        2.0000           -0.3866823             -10.5222
        74        2.0000           -0.3452156              -9.3938 (HOMO)
        75                         -0.2856897              -7.7740 (LUMO)
        76                         -0.2611581              -7.1065
        77                         -0.2445259              -6.6539
        78                         -0.2396246              -6.5205
        79                         -0.2375736              -6.4647
        80                         -0.2308836              -6.2827
        81                         -0.2173431              -5.9142
        82                         -0.2005555              -5.4574
        83                         -0.1904078              -5.1813
        84                         -0.1839477              -5.0055
        85                         -0.1040037              -2.8301
       ...                                ...                  ...
       141                          0.6734886              18.3266
      -------------------------------------------------------------
                  HL-Gap            0.0595258 Eh            1.6198 eV

     #   Z          covCN         q      C6AA      α(0)
     1   6 C        2.920    -0.024    28.597     8.769
     2   6 C        2.919    -0.027    28.664     8.780
     3   6 C        2.923    -0.026    28.647     8.777
     4   6 C        2.975    -0.003    28.098     8.695
     5   6 C        3.171     0.214    23.181     7.865
     6   7 N        2.048    -0.196    25.980     7.561
     7   7 N        2.048    -0.198    26.010     7.565
     8   6 C        3.171     0.213    23.189     7.867
     9   6 C        2.975    -0.007    28.197     8.710
    10   6 C        2.922    -0.027    28.671     8.781
    11   6 C        2.921    -0.040    28.992     8.830
    12   6 C        2.921     0.070    26.427     8.430
    13   7 N        2.751    -0.068    22.565     7.055
    14   6 C        2.922     0.042    27.063     8.531
    15   6 C        2.924    -0.060    29.487     8.905
    16   6 C        2.919    -0.038    28.951     8.823
    17   6 C        2.919    -0.039    28.981     8.828
    18   6 C        2.920    -0.056    29.387     8.890
    19   6 C        2.884     0.125    25.254     8.239
    20   8 O        1.709    -0.254    18.203     5.760
    21   6 C        2.884     0.125    25.251     8.238
    22   6 C        2.920    -0.056    29.389     8.890
    23   6 C        2.919    -0.040    28.985     8.829
    24   6 C        2.919    -0.039    28.958     8.824
    25   6 C        2.924    -0.060    29.486     8.905
    26   6 C        2.922     0.042    27.061     8.531
    27   6 C        2.920    -0.037    28.931     8.820
    28   6 C        2.924    -0.028    28.703     8.786
    29   8 O        1.722    -0.228    17.780     5.693
    30   6 C        2.925    -0.027    28.676     8.782
    31   6 C        2.919    -0.024    28.599     8.770
    32   1 H        0.926     0.041     2.441     2.443
    33   1 H        0.926     0.039     2.456     2.451
    34   1 H        0.926     0.044     2.395     2.420
    35   1 H        0.926     0.050     2.325     2.385
    36   1 H        0.926     0.047     2.353     2.399
    37   1 H        0.926     0.036     2.503     2.474
    38   1 H        0.926     0.038     2.482     2.463
    39   1 H        0.926     0.039     2.458     2.452
    40   1 H        0.926     0.051     2.303     2.373
    41   1 H        0.926     0.051     2.303     2.373
    42   1 H        0.926     0.039     2.462     2.454
    43   1 H        0.926     0.037     2.494     2.470
    44   1 H        0.926     0.035     2.521     2.483
    45   1 H        0.926     0.051     2.304     2.374
    46   1 H        0.926     0.067     2.122     2.278
    47   1 H        0.926     0.062     2.180     2.309
    48   1 H        0.926     0.043     2.405     2.425

molecular dipole:
                 x           y           z       tot (Debye)
 q only:        0.333       0.258      -0.645
   full:        0.343       0.496      -1.196       3.403

 projected vibrational frequencies (cm⁻¹)
eigval :       -0.00    -0.00    -0.00     0.00     0.00     0.00
eigval :       14.72    22.86    23.45    40.93    42.91    60.49
eigval :       65.79    89.77   110.20   117.86   135.70   141.20
eigval :      197.78   203.69   243.13   254.58   272.26   285.71
eigval :      316.74   354.73   366.43   377.10   380.54   390.13
eigval :      398.16   425.17   430.39   446.07   452.13   474.13
eigval :      495.68   500.48   509.98   522.84   550.61   587.28
eigval :      587.47   596.84   608.75   654.35   656.23   661.59
eigval :      661.82   678.80   684.07   700.85   718.54   724.09
eigval :      770.21   779.25   779.52   803.27   825.03   855.68
eigval :      863.96   866.84   875.58   877.04   897.67   898.86
eigval :      906.90   911.03   914.01   915.33   917.21   926.18
eigval :      929.48   933.83   935.18   954.10   972.96   994.65
eigval :     1016.54  1075.28  1083.08  1090.68  1091.87  1097.91
eigval :     1108.65  1114.97  1121.08  1127.05  1170.82  1175.56
eigval :     1179.83  1180.83  1184.93  1188.33  1190.86  1202.18
eigval :     1223.10  1243.12  1259.01  1262.04  1270.86  1279.55
eigval :     1304.57  1310.40  1318.33  1324.33  1327.41  1338.93
eigval :     1355.66  1407.94  1424.43  1430.81  1442.23  1453.51
eigval :     1461.10  1487.63  1503.69  1534.74  1537.22  1559.36
eigval :     1568.14  1580.60  1582.54  1585.36  1591.22  1593.45
eigval :     1603.06  3079.47  3085.27  3087.29  3089.57  3090.43
eigval :     3092.69  3092.88  3097.55  3098.80  3099.50  3099.98
eigval :     3106.43  3107.52  3113.42  3113.96  3114.70  3116.71

   temp. (K)  partition function   enthalpy   heat capacity  entropy
                                   cal/mol     cal/K/mol   cal/K/mol   J/K/mol
 298.15  VIB  0.111E+11            13216.070     85.224     81.291
         ROT  0.279E+08              888.752      2.981     37.047
         INT  0.308E+18            14104.822     88.205    118.339
         TR   0.784E+28             1481.254      4.968     43.856
         TOT                       15586.0760    93.1735   162.1944   678.6212

       T/K    H(0)-H(T)+PV         H(T)/Eh          T*S/Eh         G(T)/Eh
   ------------------------------------------------------------------------
    298.15    0.248380E-01    0.382031E+00    0.770638E-01    0.304968E+00
   ------------------------------------------------------------------------

         :::::::::::::::::::::::::::::::::::::::::::::::::::::
         ::                  THERMODYNAMIC                  ::
         :::::::::::::::::::::::::::::::::::::::::::::::::::::
         :: total free energy         -80.957392881842 Eh   ::
         ::.................................................::
         :: total energy              -81.262360384954 Eh   ::
         :: zero point energy           0.357193282582 Eh   ::
         :: G(RRHO) w/o ZPVE           -0.052225779470 Eh   ::
         :: G(RRHO) contrib.            0.304967503112 Eh   ::
         :::::::::::::::::::::::::::::::::::::::::::::::::::::

           -------------------------------------------------
          | TOTAL ENERGY              -81.262360384954 Eh   |
          | TOTAL ENTHALPY            -80.880329109240 Eh   |
          | TOTAL FREE ENERGY         -80.957392881842 Eh   |
          | GRADIENT NORM               0.000049771003 Eh/α |
          | HOMO-LUMO GAP               1.619779902572 eV   |
           -------------------------------------------------

 * finished run on 2025/09/05 at 02:03:37.361
