   * xtb version 6.7.1 (edcfbbe) compiled by 'albert@albert-system' on 2024-07-22

   ID    Z sym.   atoms
    1    6 C      1-5, 8-12, 14-19, 21-28, 30, 31
    2    7 N      6, 7, 13
    3    8 O      20, 29
    4    1 H      32-48

          program call               : xtb data2507/gas/PXZ-OXD/PXZ-OXD_gas_S0_finalOpt.xtbopt.xyz --gfn 2 --spinpol --tblite --uhf 2 --ohess vtight --parallel 40 --molden --ceasefiles --namespace data2507/gas/PXZ-OXD/PXZ-OXD_gas_T1_preOpt
 * total energy  :   -81.1735486 Eh     change        0.3119716E-07 Eh
 * total energy  :   -81.1784488 Eh     change       -0.4900105E-02 Eh
 * total energy  :   -81.1804553 Eh     change       -0.2006526E-02 Eh
 * total energy  :   -81.1807961 Eh     change       -0.3407865E-03 Eh
 * total energy  :   -81.1809327 Eh     change       -0.1366340E-03 Eh
 * total energy  :   -81.1809594 Eh     change       -0.2672901E-04 Eh
 * total energy  :   -81.1809738 Eh     change       -0.1433518E-04 Eh
 * total energy  :   -81.1809843 Eh     change       -0.1050305E-04 Eh
 * total energy  :   -81.1810047 Eh     change       -0.2046763E-04 Eh
 * total energy  :   -81.1810134 Eh     change       -0.8679032E-05 Eh
 * total energy  :   -81.1810219 Eh     change       -0.1415206E-05 Eh
 * total energy  :   -81.1810232 Eh     change       -0.1275415E-05 Eh
 * total energy  :   -81.1810241 Eh     change       -0.9225827E-06 Eh
 * total energy  :   -81.1810248 Eh     change       -0.7170436E-06 Eh
 * total energy  :   -81.1810255 Eh     change       -0.6955577E-06 Eh
 * total energy  :   -81.1810262 Eh     change       -0.7158254E-06 Eh
 * total energy  :   -81.1810269 Eh     change       -0.7142250E-06 Eh
 * total energy  :   -81.1810277 Eh     change       -0.7445254E-06 Eh
 * total energy  :   -81.1810277 Eh     change       -0.1370965E-07 Eh
   *** GEOMETRY OPTIMIZATION CONVERGED AFTER 22 ITERATIONS ***

 final structure:
================
48
 xtb: 6.7.1 (edcfbbe)
C            8.45110163784782       -0.83444129136603        1.12512487608822
C            7.28381388426253       -1.33272328019877        1.69256264094099
C            6.05455140759102       -0.94477686068433        1.21126614363563
C            5.97254860531388       -0.03689149498339        0.13935359861709
C            4.71731293375168        0.37914749149713       -0.36734673026579
N            4.50213296380842        1.22298407703170       -1.36896939701789
N            3.22501388490888        1.35177296315003       -1.54349349593641
C            2.59624912001067        0.57756233303129       -0.63646719241464
C            1.22585698637704        0.41810567902315       -0.47997390809392
C            0.31718179879879        1.12741145276851       -1.32548606844890
C           -1.02630774468348        0.99434714134083       -1.16423625371261
C           -1.54994807343407        0.12653918874853       -0.17768000865196
N           -2.93691979469142       -0.02165661243920       -0.02412555663303
C           -3.53076019396134       -1.27271024521621       -0.13793751158656
C           -2.80454540012627       -2.40933173842004       -0.49807757515256
C           -3.42385568379945       -3.64080247503485       -0.59178205329637
C           -4.78150370934606       -3.76712296707766       -0.34516728486078
C           -5.52887712277284       -2.64436627654349       -0.03309998828428
C           -4.91629954242510       -1.40512865477123        0.06086264830642
O           -5.71799028806486       -0.33326502502149        0.32605250193119
C           -5.12990360538638        0.89564194748454        0.40657894575546
C           -5.95724227154918        1.97380242304144        0.67704390480365
C           -5.42164421193141        3.24238774686077        0.81853931497389
C           -4.05181472098659        3.42385112913803        0.71667885094007
C           -3.21942474142011        2.35453949572947        0.44644446483851
C           -3.74372471447199        1.07521396219123        0.25443015685816
C           -0.66289628816991       -0.59481299091671        0.65215503127418
C            0.68303802846335       -0.44651977877457        0.52025254260976
O            3.52771308267390       -0.07869314300059        0.14546110534574
C            7.15932241144762        0.46279947260900       -0.42972982059903
C            8.37873523485496        0.06317320288640        0.06382822482141
H            9.41227705135568       -1.14403974065580        1.50730973253655
H            7.34279122559884       -2.02925538953442        2.51662526468399
H            5.14294291196150       -1.32641882125406        1.64576066800795
H            0.73468133457680        1.75641175361522       -2.09434626750905
H           -1.71368973338690        1.51297133972239       -1.81716692592272
H           -1.75321016213419       -2.31634881864162       -0.71639024645016
H           -2.84037815458238       -4.50518818019910       -0.86740152743965
H           -5.26284740014252       -4.72948781667346       -0.41373739972618
H           -6.59231570717066       -2.70220210126875        0.13388168868951
H           -7.01477730935822        1.79210977891937        0.78082895600206
H           -6.07056450137744        4.07816647269650        1.02574382824800
H           -3.62303588225826        4.40377194176133        0.85594394094423
H           -2.15312041791617        2.50185549907080        0.39415119668972
H           -1.07356952825776       -1.23163019620219        1.42300852637247
H            1.36424087641898       -0.96690942916033        1.17480926313772
H            7.08101879160474        1.15683279386576       -1.25135961713842
H            9.28843109144571        0.44742487388626       -0.37412597645642

 projected vibrational frequencies (cm⁻¹)
eigval :       -0.00    -0.00     0.00     0.00     0.00     0.00
eigval :       15.96    25.02    29.42    44.63    48.49    71.05
eigval :       74.45   106.71   110.76   128.43   132.60   143.69
eigval :      173.50   205.67   238.37   254.36   268.59   275.20
eigval :      317.43   328.05   365.43   367.29   385.14   391.49
eigval :      397.30   413.27   435.96   438.56   449.18   456.19
eigval :      471.05   499.40   500.55   527.91   533.29   546.96
eigval :      581.14   583.50   593.35   600.12   636.54   642.89
eigval :      645.74   666.84   671.70   674.72   678.55   706.36
eigval :      744.14   776.64   779.21   793.32   798.63   822.06
eigval :      853.21   856.48   866.89   867.73   880.20   880.31
eigval :      897.35   898.06   899.77   905.19   907.22   912.27
eigval :      913.58   919.59   920.75   922.70   922.77   959.40
eigval :      969.22  1023.23  1054.64  1069.63  1084.65  1085.70
eigval :     1113.24  1113.86  1118.12  1123.03  1154.35  1172.51
eigval :     1172.62  1178.11  1183.37  1186.97  1195.75  1209.90
eigval :     1211.61  1233.21  1234.62  1245.66  1253.69  1263.12
eigval :     1280.07  1297.04  1306.75  1319.10  1331.97  1337.00
eigval :     1345.14  1368.40  1379.27  1404.28  1411.01  1430.43
eigval :     1438.39  1439.03  1442.48  1471.58  1485.57  1525.28
eigval :     1530.39  1546.18  1548.87  1554.35  1566.39  1576.05
eigval :     1591.55  3070.99  3072.33  3074.71  3077.66  3090.13
eigval :     3095.28  3097.84  3098.39  3103.23  3106.47  3106.79
eigval :     3109.77  3116.26  3116.68  3116.86  3118.09  3118.78

   temp. (K)  partition function   enthalpy   heat capacity  entropy
                                   cal/mol     cal/K/mol   cal/K/mol   J/K/mol
 298.15  VIB  0.547E+10            13406.635     87.618     81.765
         ROT  0.278E+08              888.752      2.981     37.044
         INT  0.152E+18            14295.387     90.599    118.809
         TR   0.784E+28             1481.254      4.968     43.856
         TOT                       15776.6412    95.5674   162.6647   680.5890

       T/K    H(0)-H(T)+PV         H(T)/Eh          T*S/Eh         G(T)/Eh
   ------------------------------------------------------------------------
    298.15    0.251417E-01    0.378298E+00    0.772872E-01    0.301011E+00
   ------------------------------------------------------------------------

         :::::::::::::::::::::::::::::::::::::::::::::::::::::
         ::                  THERMODYNAMIC                  ::
         :::::::::::::::::::::::::::::::::::::::::::::::::::::
         :: total free energy         -80.880016458356 Eh   ::
         ::.................................................::
         :: total energy              -81.181027679368 Eh   ::
         :: zero point energy           0.353156778250 Eh   ::
         :: G(RRHO) w/o ZPVE           -0.052145557238 Eh   ::
         :: G(RRHO) contrib.            0.301011221012 Eh   ::
         :::::::::::::::::::::::::::::::::::::::::::::::::::::

           -------------------------------------------------
          | TOTAL ENERGY              -81.181027679368 Eh   |
          | TOTAL ENTHALPY            -80.802729223071 Eh   |
          | TOTAL FREE ENERGY         -80.880016458356 Eh   |
          | GRADIENT NORM               0.000070633504 Eh/α |
           -------------------------------------------------

 * finished run on 2025/09/05 at 02:04:46.332
