   * xtb version 6.7.1 (edcfbbe) compiled by 'albert@albert-system' on 2024-07-22

   ID    Z sym.   atoms
    1    6 C      1-5, 8-12, 14-19, 21-28, 30, 31
    2    7 N      6, 7, 13
    3    8 O      20, 29
    4    1 H      32-48

          program call               : xtb data2507/gas/PXZ-OXD/PXZ-OXD_gas_T1_crest.xyz --gfn 2 --spinpol --tblite --uhf 2 --ohess vtight --parallel 40 --molden --ceasefiles --namespace data2507/gas/PXZ-OXD/PXZ-OXD_gas_T1_finalOpt
 * total energy  :   -81.1810167 Eh     change       -0.3685273E-07 Eh
 * total energy  :   -81.1810277 Eh     change       -0.1100556E-04 Eh
 * total energy  :   -81.1810322 Eh     change       -0.4495439E-05 Eh
 * total energy  :   -81.1810328 Eh     change       -0.5584112E-06 Eh
 * total energy  :   -81.1810332 Eh     change       -0.4308317E-06 Eh
 * total energy  :   -81.1810337 Eh     change       -0.4824693E-06 Eh
 * total energy  :   -81.1810342 Eh     change       -0.4761622E-06 Eh
 * total energy  :   -81.1810344 Eh     change       -0.1937593E-06 Eh
 * total energy  :   -81.1810344 Eh     change       -0.8204124E-07 Eh
   *** GEOMETRY OPTIMIZATION CONVERGED AFTER 9 ITERATIONS ***

 final structure:
================
48
 xtb: 6.7.1 (edcfbbe)
C            8.46438595425878        0.84604758307450        1.07834606833860
C            8.38314254483150       -0.07159996442537        0.03497579780064
C            7.15966137461130       -0.47763699829550       -0.44293135376168
C            5.97766366583557        0.03543162916754        0.12428615573086
C            4.71874686946279       -0.38690746997125       -0.36776584258917
N            4.49759366095572       -1.24461526996262       -1.35624164019669
N            3.21950208660643       -1.37353899973726       -1.52312468511800
C            2.59620060877546       -0.58583183983058       -0.62395172572346
C            1.22642354426018       -0.42322758677763       -0.46529329058308
C            0.31645555497901       -1.13928540278942       -1.30375261457794
C           -1.02662482282253       -1.00265655432695       -1.14361277976486
C           -1.54899649116526       -0.12540871973377       -0.16450685837880
N           -2.93608359068368        0.02406884525093       -0.01396938993710
C           -3.74239678207543       -1.07317650993274        0.26450517200769
C           -3.21549187369241       -2.34866379314829        0.47461933600567
C           -4.04711989085252       -3.41926160666273        0.74171776980301
C           -5.41909289220048       -3.24291181208256        0.82193847212695
C           -5.95784630083627       -1.97765434546060        0.66341693582765
C           -5.13113729342191       -0.89804759077049        0.39697002408921
O           -5.72240963827093        0.32809143799560        0.29996077807040
C           -4.92037960071631        1.40167934396245        0.04289346512942
C           -5.53568090022103        2.63875720787892       -0.06152771896871
C           -4.78821585522867        3.76314618419004       -0.36729322525614
C           -3.42743397362223        3.64041452651736       -0.59768213888026
C           -2.80543226101199        2.41108071026048       -0.49365222495631
C           -3.53206940123453        1.27313199369835       -0.13875544797154
C           -0.66076760033874        0.60044290067744        0.66003112182642
C            0.68508941286814        0.44985506421706        0.52838097499157
O            3.53223704792753        0.07958896879992        0.14463378627304
C            6.06862269012050        0.96327653272587        1.17818941200555
C            7.30189928070793        1.35773780150703        1.64371162518508
H            9.42871493054090        1.16080143937113        1.44815610514574
H            9.28908659766795       -0.46627767835127       -0.40148653661472
H            7.07439858444233       -1.18692117051132       -1.25072759532978
H            0.73300126169081       -1.77570035465016       -2.06699082545117
H           -1.71497878953518       -1.52599508613492       -1.79173349219827
H           -2.14791328793186       -2.49169157845854        0.43846377812104
H           -3.61628570320403       -4.39613504912620        0.89530776769706
H           -6.06746415609817       -4.07994620096639        1.02573132667814
H           -7.01753231342520       -1.79978765763135        0.75052508604520
H           -6.60128870907943        2.69349620681482        0.09217677950780
H           -5.27171477967563        4.72383023773234       -0.44382366442171
H           -2.84345469373007        4.50593234770669       -0.86866373148920
H           -1.75145331368625        2.32098732991470       -0.69997377415210
H           -1.07017632284925        1.24254633044872        1.42716728128314
H            1.36713112240548        0.97414133171360        1.17897211023367
H            5.16072054043175        1.35543084742323        1.61108221088732
H            7.36783919512996        2.07002062428909        2.45365841550980

 projected vibrational frequencies (cm⁻¹)
eigval :       -0.00    -0.00    -0.00     0.00     0.00     0.00
eigval :       16.02    25.02    29.67    44.72    48.59    71.06
eigval :       74.69   106.76   110.75   128.37   132.61   144.24
eigval :      173.74   205.81   238.22   254.55   268.64   275.14
eigval :      317.34   328.10   365.65   367.33   385.12   391.71
eigval :      397.26   413.35   436.04   438.60   449.07   456.26
eigval :      471.14   499.39   500.55   527.96   533.36   547.11
eigval :      581.20   583.63   593.41   600.17   636.57   642.93
eigval :      645.75   666.82   671.69   674.86   678.41   706.39
eigval :      744.23   776.65   779.29   793.45   798.38   822.04
eigval :      853.31   856.46   866.82   867.73   880.35   880.47
eigval :      897.31   898.18   899.79   905.29   907.22   912.36
eigval :      913.53   919.83   921.03   922.68   922.84   959.90
eigval :      968.95  1022.85  1054.39  1069.45  1084.62  1085.70
eigval :     1113.18  1114.03  1118.56  1123.09  1155.25  1172.81
eigval :     1173.03  1178.34  1183.41  1187.39  1195.58  1210.38
eigval :     1211.48  1233.27  1234.89  1246.16  1253.77  1263.03
eigval :     1280.18  1297.46  1306.83  1319.07  1331.92  1337.08
eigval :     1345.31  1368.29  1379.50  1404.71  1411.31  1430.86
eigval :     1438.65  1439.17  1442.87  1471.53  1485.67  1525.36
eigval :     1530.45  1546.14  1548.92  1554.54  1566.69  1576.10
eigval :     1591.56  3071.08  3072.77  3075.15  3077.85  3090.48
eigval :     3095.66  3098.04  3098.54  3103.42  3106.70  3107.00
eigval :     3109.82  3116.34  3116.67  3116.93  3118.30  3118.75

   temp. (K)  partition function   enthalpy   heat capacity  entropy
                                   cal/mol     cal/K/mol   cal/K/mol   J/K/mol
 298.15  VIB  0.534E+10            13403.675     87.619     81.737
         ROT  0.278E+08              888.752      2.981     37.044
         INT  0.149E+18            14292.427     90.600    118.781
         TR   0.784E+28             1481.254      4.968     43.856
         TOT                       15773.6811    95.5680   162.6366   680.4715

       T/K    H(0)-H(T)+PV         H(T)/Eh          T*S/Eh         G(T)/Eh
   ------------------------------------------------------------------------
    298.15    0.251370E-01    0.378326E+00    0.772739E-01    0.301052E+00
   ------------------------------------------------------------------------

         :::::::::::::::::::::::::::::::::::::::::::::::::::::
         ::                  THERMODYNAMIC                  ::
         :::::::::::::::::::::::::::::::::::::::::::::::::::::
         :: total free energy         -80.879982083762 Eh   ::
         ::.................................................::
         :: total energy              -81.181034448759 Eh   ::
         :: zero point energy           0.353189300214 Eh   ::
         :: G(RRHO) w/o ZPVE           -0.052136935218 Eh   ::
         :: G(RRHO) contrib.            0.301052364996 Eh   ::
         :::::::::::::::::::::::::::::::::::::::::::::::::::::

           -------------------------------------------------
          | TOTAL ENERGY              -81.181034448759 Eh   |
          | TOTAL ENTHALPY            -80.802708187736 Eh   |
          | TOTAL FREE ENERGY         -80.879982083762 Eh   |
          | GRADIENT NORM               0.000071184691 Eh/α |
           -------------------------------------------------

 * finished run on 2025/09/05 at 02:06:16.279
