   * xtb version 6.7.1 (edcfbbe) compiled by 'albert@albert-system' on 2024-07-22

   ID    Z sym.   atoms
    1    6 C      1-6, 8-13, 15-19, 21-24, 26-31, 33-40, 42-46, 48-53, 55-64
    2    8 O      7, 32, 54
    3    7 N      14, 20, 25, 41, 47
    4    1 H      65-99

          program call               : xtb data2507/toluene/DBQ-3PXZ/DBQ-3PXZ.xyz --gfn 2 --gbsa toluene --ohess vtight --parallel 40 --molden --ceasefiles --namespace data2507/toluene/DBQ-3PXZ/DBQ-3PXZ_toluene_S0_preOpt
      * Solvation model:               GBSA
        Solvent                        toluene
        Solvent mass                       9.2140E+01 g/mol
          :  Hamiltonian                  GFN2-xTB          :
 * total energy  :  -164.7045032 Eh     change       -0.4385015E-08 Eh
 * total energy  :  -164.7215872 Eh     change       -0.1708395E-01 Eh
 * total energy  :  -164.7278326 Eh     change       -0.6245464E-02 Eh
 * total energy  :  -164.7297895 Eh     change       -0.1956913E-02 Eh
 * total energy  :  -164.7316477 Eh     change       -0.1858170E-02 Eh
 * total energy  :  -164.7326778 Eh     change       -0.1030106E-02 Eh
 * total energy  :  -164.7333173 Eh     change       -0.6394444E-03 Eh
 * total energy  :  -164.7337469 Eh     change       -0.4296329E-03 Eh
 * total energy  :  -164.7341068 Eh     change       -0.3599276E-03 Eh
 * total energy  :  -164.7345238 Eh     change       -0.4169794E-03 Eh
 * total energy  :  -164.7368192 Eh     change       -0.2810731E-06 Eh
 * total energy  :  -164.7368194 Eh     change       -0.2057184E-06 Eh
 * total energy  :  -164.7368196 Eh     change       -0.1823934E-06 Eh
 * total energy  :  -164.7368197 Eh     change       -0.1835131E-06 Eh
 * total energy  :  -164.7368199 Eh     change       -0.1606998E-06 Eh
 * total energy  :  -164.7368201 Eh     change       -0.1558142E-06 Eh
 * total energy  :  -164.7368202 Eh     change       -0.1467267E-06 Eh
 * total energy  :  -164.7368203 Eh     change       -0.1110008E-06 Eh
 * total energy  :  -164.7368203 Eh     change       -0.3600991E-07 Eh
   *** GEOMETRY OPTIMIZATION CONVERGED AFTER 111 ITERATIONS ***

 final structure:
================
99
 xtb: 6.7.1 (edcfbbe)
C            7.69725695263058       -0.93943721337146        1.00211506345543
C            6.42257042657071       -0.41127899297725        1.03801972797929
C            5.32077546224155       -1.22553382625072        0.82309350526769
C            5.47524206371135       -2.58168683222209        0.56256132951319
C            6.77204884566600       -3.11286361223762        0.55988773059910
C            7.86829338934527       -2.29694127517856        0.76974302452855
O            7.02030640744090       -4.45267447294672        0.36764128208034
C            5.93392912880194       -5.27606162341555        0.17762601657422
C            6.19442118296670       -6.62026098555557       -0.01283702015672
C            5.15418965513711       -7.51000915348997       -0.24112105859638
C            3.85743087756202       -7.04003366201830       -0.29301227162929
C            3.59110665667179       -5.69256045885283       -0.10112694696772
C            4.61840557756320       -4.79311594868546        0.15718175733673
N            4.38548378202948       -3.42956655084722        0.35033546502485
C            3.07080876168933       -2.91420563606036        0.34239901633607
C            2.15633387378225       -3.30140726597221        1.31856640567777
C            0.87701982045216       -2.78444670653400        1.31042423402024
C            0.49223291774524       -1.85554299059623        0.34438224365476
C           -0.87308949084195       -1.32110968113251        0.36173356326970
N           -1.83172487133597       -2.16822851655418        0.66220583902333
C           -3.10984306646548       -1.76142171421010        0.57165394808503
C           -4.16323165618647       -2.63813506127966        0.90248094990334
C           -5.45737262110223       -2.24263552765932        0.72415260574291
C           -5.76234799391682       -0.95945998001056        0.21243347874640
N           -7.11269957460423       -0.60494264620124        0.02510281818453
C           -7.98792757925980       -0.57758741367472        1.11579771280229
C           -7.55128759721880       -0.77356883802581        2.42083163292495
C           -8.44403688971614       -0.74406226421843        3.48149237528923
C           -9.78477941557240       -0.50136703522848        3.25918813539170
C          -10.23064107276607       -0.26387125656322        1.96720245100211
C           -9.34389819912036       -0.29423503590235        0.90635238637111
O           -9.85450786631040       -0.01885601328425       -0.33971773762951
C           -8.97363355426347       -0.00430178543914       -1.39544374481866
C           -9.49944606576483        0.29801784920070       -2.63849409820277
C           -8.68670864156813        0.29745497790822       -3.76226538358712
C           -7.35040769296266       -0.02347316347470       -3.63213352194721
C           -6.81844583608713       -0.32337047532965       -2.38717033190124
C           -7.61129548982572       -0.29805530858355       -1.24618963450052
C           -4.75332311558106       -0.07780663282748       -0.09915440597571
C           -3.41384598342446       -0.45904030984190        0.08626198456529
N           -2.42275569593535        0.42784508758173       -0.13273786791437
C           -1.17969236138476        0.04384187836694        0.04323468974558
C           -0.14989818244367        1.08290724521271       -0.06508054310796
C           -0.26655975717483        2.06861374069804       -1.04397064854086
C            0.69032592023325        3.05577193805165       -1.16508499852497
C            1.77320494577113        3.08838771472439       -0.29039206466207
N            2.76070683729827        4.09054460088104       -0.41047425181400
C            4.07706455867787        3.74920160707615       -0.73054606796403
C            4.45378429601547        2.44460100914314       -1.02576831267738
C            5.76711916106869        2.13826515364050       -1.34917333752168
C            6.72496659954565        3.13131361089143       -1.38921220000511
C            6.36049404419358        4.44375149873539       -1.12337122930944
C            5.05100847104800        4.75390564817126       -0.80608436241238
O            4.76027766253243        6.08081018154523       -0.58670043194102
C            3.45470297574474        6.40175720750883       -0.29218481899514
C            3.17387969007500        7.73823509204517       -0.07762917655279
C            1.88712391235466        8.13967902332981        0.25230529095043
C            0.89210515753353        7.19171302286177        0.38041889616981
C            1.16881253614130        5.84986086308088        0.16503578398615
C            2.44569498395086        5.43402766826188       -0.19229474985665
C            1.87522536119806        2.12645740091385        0.71206119750616
C            0.92516719462578        1.13226010543240        0.82214468952086
C            1.40459549318948       -1.48855716029408       -0.64475856817825
C            2.67980635525495       -2.01523082452973       -0.64715072088984
H            8.55846373983632       -0.31025447324893        1.16254163243676
H            6.27224690579445        0.63955786775537        1.23111700248801
H            4.32967192169555       -0.80331749924385        0.86276903791186
H            8.84915864143333       -2.74580851620204        0.75298373642122
H            7.22103972991568       -6.95054372225069        0.01585391143012
H            5.36765115040024       -8.55733028456616       -0.38596736286986
H            3.03884900937672       -7.71596774825125       -0.48747284221555
H            2.57486654081440       -5.33601950193717       -0.16001249877683
H            2.45684174476442       -4.00463310445958        2.08105061005634
H            0.16201158838049       -3.07957073736679        2.06284958530380
H           -3.91694318861310       -3.62092677922622        1.27304860493650
H           -6.27198651096451       -2.91307883146706        0.95492823182175
H           -6.50337735356367       -0.94418550495939        2.61166257223726
H           -8.07711274719171       -0.90767752354867        4.48304307985230
H          -10.48463288342515       -0.48105601739364        4.07955216223002
H          -11.26716443529835       -0.04882824212413        1.76003744897047
H          -10.55217964672326        0.52355774184191       -2.70499971788009
H           -9.10538622737192        0.53644803843163       -4.72700017233265
H           -6.70742384074461       -0.04809792205266       -4.49853481627832
H           -5.77616514522675       -0.58789465151035       -2.30563756055983
H           -4.96518225940037        0.91353020307657       -0.46932692055717
H           -1.10896140616208        2.03689926408472       -1.71767208266521
H            0.60718465997802        3.80465147654511       -1.93861033982337
H            3.71246343341670        1.66205153114734       -1.00576228548807
H            6.03236411150646        1.11522626121971       -1.56651054602042
H            7.74942018385386        2.89845491990001       -1.63331667094227
H            7.07989874011810        5.24668689685530       -1.16325132592498
H            3.97926173487701        8.45013820547192       -0.16922511219372
H            1.67764462154933        9.18515960773777        0.41521684428838
H           -0.11012086375185        7.48522608574646        0.65279431208582
H            0.38518715377219        5.11849634090963        0.28457641136546
H            2.70154574116962        2.16903495732110        1.40592878947075
H            1.00221788512265        0.40500172315606        1.61649138041225
H            1.10600470352751       -0.80860786564651       -1.42851044580730
H            3.38212189942607       -1.73860246959638       -1.41942437783810

          :  Hamiltonian                  GFN2-xTB          :
         :: gradient norm              0.000057304187 Eh/a0 ::
         :: HOMO-LUMO gap              1.076639424466 eV    ::
         :: SCC energy              -167.580319486865 Eh    ::
         :: -> dispersion             -0.147387982152 Eh    ::
         :: -> Gsolv                  -0.064391726891 Eh    ::
         :: repulsion energy           2.843499138716 Eh    ::

    * Orbital Energies and Occupations

         #    Occupation            Energy/Eh            Energy/eV
      -------------------------------------------------------------
         1        2.0000           -0.7332613             -19.9531
       ...           ...                  ...                  ...
       139        2.0000           -0.4166912             -11.3387
       140        2.0000           -0.4160737             -11.3219
       141        2.0000           -0.4136709             -11.2566
       142        2.0000           -0.4133967             -11.2491
       143        2.0000           -0.4111384             -11.1876
       144        2.0000           -0.4028413             -10.9619
       145        2.0000           -0.3941670             -10.7258
       146        2.0000           -0.3916831             -10.6582
       147        2.0000           -0.3906532             -10.6302
       148        2.0000           -0.3634013              -9.8887
       149        2.0000           -0.3484556              -9.4820
       150        2.0000           -0.3448457              -9.3837
       151        2.0000           -0.3440795              -9.3629 (HOMO)
       152                         -0.3045138              -8.2862 (LUMO)
       153                         -0.2770234              -7.5382
       154                         -0.2445501              -6.6545
       155                         -0.2423174              -6.5938
       156                         -0.2410306              -6.5588
       157                         -0.2394063              -6.5146
       158                         -0.2391913              -6.5087
       159                         -0.2376295              -6.4662
       160                         -0.2358060              -6.4166
       161                         -0.2335160              -6.3543
       162                         -0.2307442              -6.2789
       ...                                ...                  ...
       291                          0.6845282              18.6270
      -------------------------------------------------------------
                  HL-Gap            0.0395657 Eh            1.0766 eV

     #   Z          covCN         q      C6AA      α(0)
     1   6 C        2.919    -0.041    29.019     8.834
     2   6 C        2.919    -0.038    28.950     8.823
     3   6 C        2.924    -0.061    29.510     8.909
     4   6 C        2.922     0.042    27.058     8.530
     5   6 C        2.882     0.122    25.315     8.249
     6   6 C        2.919    -0.058    29.441     8.898
     7   8 O        1.708    -0.273    18.527     5.812
     8   6 C        2.882     0.122    25.317     8.249
     9   6 C        2.919    -0.058    29.445     8.898
    10   6 C        2.919    -0.041    29.027     8.835
    11   6 C        2.919    -0.039    28.971     8.826
    12   6 C        2.924    -0.061    29.517     8.910
    13   6 C        2.921     0.042    27.052     8.529
    14   7 N        2.751    -0.072    22.638     7.067
    15   6 C        2.921     0.068    26.488     8.440
    16   6 C        2.920    -0.039    28.960     8.825
    17   6 C        2.925    -0.026    28.642     8.777
    18   6 C        2.981     0.002    27.979     8.677
    19   6 C        2.949     0.085    26.099     8.379
    20   7 N        1.851    -0.248    27.320     7.747
    21   6 C        2.962     0.077    26.281     8.409
    22   6 C        2.915    -0.043    29.056     8.839
    23   6 C        2.919    -0.039    28.967     8.826
    24   6 C        2.917     0.067    26.493     8.440
    25   7 N        2.751    -0.069    22.583     7.058
    26   6 C        2.922     0.042    27.063     8.531
    27   6 C        2.924    -0.059    29.476     8.903
    28   6 C        2.919    -0.039    28.958     8.824
    29   6 C        2.919    -0.040    28.985     8.829
    30   6 C        2.919    -0.057    29.422     8.895
    31   6 C        2.883     0.123    25.292     8.245
    32   8 O        1.708    -0.268    18.445     5.799
    33   6 C        2.883     0.123    25.294     8.245
    34   6 C        2.920    -0.057    29.418     8.894
    35   6 C        2.919    -0.040    28.989     8.829
    36   6 C        2.919    -0.038    28.952     8.824
    37   6 C        2.924    -0.060    29.484     8.905
    38   6 C        2.920     0.042    27.064     8.531
    39   6 C        2.920    -0.058    29.435     8.897
    40   6 C        2.961     0.080    26.221     8.399
    41   7 N        1.852    -0.252    27.404     7.759
    42   6 C        2.948     0.088    26.039     8.369
    43   6 C        2.981     0.002    27.979     8.677
    44   6 C        2.924    -0.025    28.635     8.775
    45   6 C        2.920    -0.039    28.959     8.825
    46   6 C        2.921     0.068    26.481     8.439
    47   7 N        2.751    -0.072    22.638     7.067
    48   6 C        2.922     0.042    27.060     8.531
    49   6 C        2.924    -0.061    29.506     8.908
    50   6 C        2.919    -0.038    28.949     8.823
    51   6 C        2.919    -0.041    29.018     8.834
    52   6 C        2.919    -0.058    29.441     8.898
    53   6 C        2.882     0.122    25.314     8.248
    54   8 O        1.708    -0.273    18.525     5.811
    55   6 C        2.882     0.122    25.317     8.249
    56   6 C        2.919    -0.058    29.444     8.898
    57   6 C        2.919    -0.041    29.026     8.835
    58   6 C        2.919    -0.039    28.970     8.826
    59   6 C        2.923    -0.061    29.519     8.910
    60   6 C        2.921     0.042    27.053     8.529
    61   6 C        2.921    -0.039    28.970     8.826
    62   6 C        2.922    -0.030    28.748     8.793
    63   6 C        2.922    -0.030    28.756     8.794
    64   6 C        2.920    -0.039    28.974     8.827
    65   1 H        0.926     0.042     2.425     2.435
    66   1 H        0.926     0.041     2.434     2.440
    67   1 H        0.926     0.038     2.473     2.459
    68   1 H        0.926     0.047     2.355     2.400
    69   1 H        0.926     0.047     2.356     2.401
    70   1 H        0.926     0.042     2.429     2.437
    71   1 H        0.926     0.041     2.433     2.439
    72   1 H        0.926     0.040     2.449     2.447
    73   1 H        0.926     0.051     2.306     2.375
    74   1 H        0.926     0.055     2.260     2.351
    75   1 H        0.926     0.062     2.175     2.306
    76   1 H        0.926     0.056     2.243     2.342
    77   1 H        0.926     0.038     2.474     2.460
    78   1 H        0.926     0.043     2.406     2.426
    79   1 H        0.926     0.045     2.387     2.416
    80   1 H        0.926     0.050     2.316     2.380
    81   1 H        0.926     0.051     2.313     2.378
    82   1 H        0.926     0.045     2.387     2.416
    83   1 H        0.926     0.043     2.411     2.428
    84   1 H        0.926     0.037     2.483     2.464
    85   1 H        0.926     0.059     2.208     2.324
    86   1 H        0.926     0.055     2.261     2.351
    87   1 H        0.926     0.052     2.298     2.371
    88   1 H        0.926     0.038     2.475     2.460
    89   1 H        0.926     0.041     2.431     2.438
    90   1 H        0.926     0.042     2.424     2.435
    91   1 H        0.926     0.047     2.354     2.399
    92   1 H        0.926     0.047     2.355     2.400
    93   1 H        0.926     0.042     2.428     2.437
    94   1 H        0.926     0.041     2.434     2.440
    95   1 H        0.926     0.040     2.448     2.447
    96   1 H        0.926     0.049     2.334     2.389
    97   1 H        0.926     0.039     2.463     2.454
    98   1 H        0.926     0.039     2.468     2.457
    99   1 H        0.926     0.049     2.334     2.389

molecular dipole:
                 x           y           z       tot (Debye)
 q only:       -0.467      -0.344       0.129
   full:       -0.512      -0.384       0.141       1.666

 projected vibrational frequencies (cm⁻¹)
eigval :       -0.00    -0.00    -0.00     0.00     0.00     0.00
eigval :        8.58    10.68    12.19    13.06    18.13    25.51
eigval :       29.22    31.02    34.40    41.08    42.27    48.92
eigval :       58.74    63.23    63.63    65.12    70.94    81.46
eigval :      100.20   114.34   116.11   120.50   125.74   133.78
eigval :      148.03   167.53   182.90   196.04   196.41   208.50
eigval :      223.38   245.70   246.93   249.91   253.38   254.74
eigval :      260.33   266.51   272.90   280.72   294.37   302.40
eigval :      324.76   353.84   354.59   370.16   375.42   378.06
eigval :      379.61   386.78   388.64   394.79   396.17   405.54
eigval :      414.16   418.64   425.29   428.18   428.75   429.97
eigval :      431.15   441.13   443.13   445.11   452.78   459.09
eigval :      491.19   508.27   509.69   511.14   511.98   517.22
eigval :      522.65   523.12   523.82   538.92   548.18   551.58
eigval :      556.23   569.38   576.65   584.45   588.09   592.96
eigval :      602.20   606.03   616.20   617.63   627.25   629.53
eigval :      657.04   660.07   660.41   661.21   661.41   661.79
eigval :      663.12   669.73   677.45   682.70   700.00   711.03
eigval :      716.58   729.65   762.44   776.58   776.68   777.26
eigval :      777.34   778.44   780.00   788.19   797.64   799.33
eigval :      816.73   817.93   824.05   840.40   852.25   852.64
eigval :      853.72   854.99   861.38   862.17   863.23   863.80
eigval :      864.70   865.53   872.19   873.58   884.34   896.26
eigval :      896.31   896.77   897.54   898.31   900.67   906.23
eigval :      910.91   912.69   912.99   913.73   914.83   915.23
eigval :      915.69   916.02   917.24   918.61   922.06   922.86
eigval :      924.24   929.53   931.05   973.34   985.91  1008.42
eigval :     1029.98  1088.92  1089.06  1089.20  1089.89  1090.34
eigval :     1090.63  1094.97  1105.07  1105.72  1106.70  1112.07
eigval :     1116.80  1117.67  1128.04  1129.38  1143.80  1163.84
eigval :     1168.32  1169.22  1173.17  1174.57  1175.23  1179.87
eigval :     1180.86  1182.37  1185.76  1188.60  1193.86  1196.71
eigval :     1197.91  1198.48  1212.90  1218.12  1219.27  1239.45
eigval :     1240.58  1240.66  1245.49  1257.92  1258.69  1258.89
eigval :     1259.61  1260.12  1265.56  1278.99  1290.79  1303.85
eigval :     1303.95  1304.28  1304.74  1311.23  1312.26  1313.50
eigval :     1328.07  1333.54  1334.17  1336.60  1347.91  1352.96
eigval :     1353.77  1377.31  1399.04  1400.21  1408.84  1420.12
eigval :     1422.19  1422.88  1435.49  1441.19  1441.82  1442.60
eigval :     1468.91  1478.33  1479.84  1481.02  1481.25  1481.86
eigval :     1499.28  1502.37  1503.16  1503.77  1524.38  1555.23
eigval :     1555.72  1566.06  1566.07  1566.58  1578.38  1579.03
eigval :     1579.41  1582.06  1584.72  1586.00  1588.66  1589.76
eigval :     1591.70  1601.16  1602.11  1602.44  3082.77  3084.17
eigval :     3086.93  3087.17  3087.39  3087.61  3088.22  3088.27
eigval :     3088.88  3090.34  3091.07  3094.26  3095.34  3095.45
eigval :     3095.82  3097.01  3097.10  3097.46  3098.11  3099.65
eigval :     3100.26  3101.29  3102.74  3103.13  3104.02  3104.03
eigval :     3105.01  3105.09  3105.78  3108.64  3108.89  3109.90
eigval :     3110.83  3110.86  3112.08

   temp. (K)  partition function   enthalpy   heat capacity  entropy
                                   cal/mol     cal/K/mol   cal/K/mol   J/K/mol
 298.15  VIB  0.395E+24            29307.702    185.080    182.433
         ROT  0.255E+09              888.752      2.981     41.450
         INT  0.101E+33            30196.455    188.061    223.883
         TR   0.230E+29             1481.254      4.968     45.991
         TOT                       31677.7087   193.0295   269.8734  1129.1505

       T/K    H(0)-H(T)+PV         H(T)/Eh          T*S/Eh         G(T)/Eh
   ------------------------------------------------------------------------
    298.15    0.504816E-01    0.790381E+00    0.128226E+00    0.662155E+00
   ------------------------------------------------------------------------

         :::::::::::::::::::::::::::::::::::::::::::::::::::::
         ::                  THERMODYNAMIC                  ::
         :::::::::::::::::::::::::::::::::::::::::::::::::::::
         :: total free energy        -164.074665122617 Eh   ::
         ::.................................................::
         :: total energy             -164.736820346221 Eh   ::
         :: zero point energy           0.739899162121 Eh   ::
         :: G(RRHO) w/o ZPVE           -0.077743938518 Eh   ::
         :: G(RRHO) contrib.            0.662155223604 Eh   ::
         :::::::::::::::::::::::::::::::::::::::::::::::::::::

           -------------------------------------------------
          | TOTAL ENERGY             -164.736820346221 Eh   |
          | TOTAL ENTHALPY           -163.946439541931 Eh   |
          | TOTAL FREE ENERGY        -164.074665122617 Eh   |
          | GRADIENT NORM               0.000057309557 Eh/α |
          | HOMO-LUMO GAP               1.076637098465 eV   |
           -------------------------------------------------

 * finished run on 2025/08/30 at 13:07:43.397
