   * xtb version 6.7.1 (edcfbbe) compiled by 'albert@albert-system' on 2024-07-22

   ID    Z sym.   atoms
    1    6 C      1-6, 8-13, 15-19, 21-24, 26-31, 33-40, 42-46, 48-53, 55-64
    2    8 O      7, 32, 54
    3    7 N      14, 20, 25, 41, 47
    4    1 H      65-99

          program call               : xtb data2507/toluene/DBQ-3PXZ/DBQ-3PXZ_toluene_T1_crest.xyz --gfn 2 --uhf 2 --gbsa toluene --ohess vtight --parallel 40 --molden --ceasefiles --namespace data2507/toluene/DBQ-3PXZ/DBQ-3PXZ_toluene_T1_finalOpt
      * Solvation model:               GBSA
        Solvent                        toluene
        Solvent mass                       9.2140E+01 g/mol
          :  Hamiltonian                  GFN2-xTB          :
 * total energy  :  -164.6834425 Eh     change       -0.4339148E-07 Eh
 * total energy  :  -164.6835488 Eh     change       -0.1062996E-03 Eh
 * total energy  :  -164.6836282 Eh     change       -0.7934259E-04 Eh
 * total energy  :  -164.6836556 Eh     change       -0.2740531E-04 Eh
 * total energy  :  -164.6836959 Eh     change       -0.4029543E-04 Eh
 * total energy  :  -164.6837342 Eh     change       -0.3829043E-04 Eh
 * total energy  :  -164.6837690 Eh     change       -0.3478491E-04 Eh
 * total energy  :  -164.6838023 Eh     change       -0.3331962E-04 Eh
 * total energy  :  -164.6838411 Eh     change       -0.3879735E-04 Eh
 * total energy  :  -164.6838618 Eh     change       -0.2074858E-04 Eh
 * total energy  :  -164.6845361 Eh     change       -0.6887605E-06 Eh
 * total energy  :  -164.6845368 Eh     change       -0.6621806E-06 Eh
 * total energy  :  -164.6845374 Eh     change       -0.6478828E-06 Eh
 * total energy  :  -164.6845381 Eh     change       -0.6444893E-06 Eh
 * total energy  :  -164.6845387 Eh     change       -0.6496093E-06 Eh
 * total energy  :  -164.6845393 Eh     change       -0.6362315E-06 Eh
 * total energy  :  -164.6845400 Eh     change       -0.6801693E-06 Eh
 * total energy  :  -164.6845407 Eh     change       -0.6528304E-06 Eh
 * total energy  :  -164.6845407 Eh     change       -0.4010843E-08 Eh
   *** GEOMETRY OPTIMIZATION CONVERGED AFTER 94 ITERATIONS ***

 final structure:
================
99
 xtb: 6.7.1 (edcfbbe)
C            7.54686946818050       -0.89644669721161        1.41988979945727
C            6.25569479820366       -0.40310238445895        1.41807347421173
C            5.19774042036846       -1.20681268418948        1.02587991243546
C            5.41455055231071       -2.52080097728635        0.62279678231230
C            6.72661229706625       -3.01869330985740        0.65094470644421
C            7.77939774689315       -2.20983495008602        1.04036170546525
O            7.02659367875681       -4.31459613932378        0.31052875728392
C            5.98964104457358       -5.12470688742030       -0.08188624824382
C            6.30437633907524       -6.42425636906905       -0.43650173221167
C            5.30958101508381       -7.29126024867580       -0.86307048584120
C            4.00330252691002       -6.84589623467540       -0.94388126106413
C            3.68144574335011       -5.54589082347480       -0.58955594895167
C            4.66317917006022       -4.66950897348567       -0.13835744359654
N            4.37557104885711       -3.35754866471782        0.22506487403893
C            3.04300768443124       -2.87476104991085        0.19640863900275
C            2.09900738806555       -3.36175064435761        1.09559589533119
C            0.81250937288901       -2.86395907226916        1.08184174697492
C            0.44540523070494       -1.85692221517052        0.18588918282506
C           -0.91239266502575       -1.32082119321670        0.21416999385824
N           -1.91229506591982       -2.18816010755207        0.40018883583787
C           -3.18430200375121       -1.77590834243392        0.33551353650987
C           -4.24966690047111       -2.65520059943065        0.53995447167190
C           -5.56027585660074       -2.22451259762514        0.41402791963280
C           -5.83173757607984       -0.90173219131983        0.09112502655395
N           -7.17897777185018       -0.47050612698159       -0.03606582055469
C           -8.00672660105243       -0.41568700244098        1.07796252895691
C           -7.54351766818951       -0.69633331090325        2.36047104057956
C           -8.39729978302550       -0.63861362026613        3.44896199150364
C           -9.72614203601034       -0.29368162679577        3.28028705343082
C          -10.19971967037639        0.01301322792777        2.01374067881678
C           -9.35123557869483       -0.04096020752298        0.92214258716149
O           -9.87919178779832        0.29562144686156       -0.29887617545515
C           -9.04165827269283        0.25721227342331       -1.38517156202272
C           -9.58169683833041        0.60603454027262       -2.61033626636951
C           -8.79797821052732        0.56858493227088       -3.75351719765645
C           -7.47669673144708        0.16972760798214       -3.66413802304921
C           -6.92977759677473       -0.18005059628512       -2.44097022334224
C           -7.69530404549693       -0.12875707011236       -1.27940961361552
C           -4.79255579903568        0.00813374272543       -0.10315635561378
C           -3.46792084246559       -0.40116492016672        0.01689375894554
N           -2.45051225924764        0.46726745650286       -0.10897981467546
C           -1.19153501775520        0.04645899028906        0.02407943317087
C           -0.13349603169813        1.05489624970873       -0.00674809276265
C           -0.17114388992418        2.08615422205512       -0.94663920130008
C            0.84423289153077        3.01874450679827       -1.00998083334522
C            1.90839384063752        2.95114267569237       -0.11562413297059
N            2.97188150616982        3.88346465519211       -0.19391168233800
C            4.25152934955387        3.45730754186806       -0.54210228483360
C            4.53281643983458        2.13276539799615       -0.86267850261877
C            5.81737449264276        1.74457008730020       -1.20643498016533
C            6.84273010116475        2.67068576419146       -1.24264518435029
C            6.57649857977310        3.99934291482213       -0.94830003173337
C            5.29473729615553        4.39392184895036       -0.60788403333369
O            5.09929028367211        5.72874543619256       -0.35317058250885
C            3.83081984675923        6.13202554988080       -0.01566560162732
C            3.64753708695621        7.47764365430918        0.24809583194596
C            2.39837702459306        7.95222667004470        0.61877925759516
C            1.34061958440241        7.07015962256528        0.73817039891251
C            1.51771645062519        5.72163104415861        0.47506306733004
C            2.75783127309404        5.23218350596952        0.07740681837020
C            1.92640622514178        1.95775541382261        0.86078795160760
C            0.91720964289399        1.02123507084953        0.91433590582552
C            1.38934657052989       -1.40803224728286       -0.74268342973740
C            2.67332472336419       -1.90832464618734       -0.73569900866453
H            8.37236558750637       -0.27080103879761        1.71980226437848
H            6.06351601401298        0.61471985735108        1.71905562514085
H            4.19322358354865       -0.81542267162016        1.03214068179279
H            8.77271165751859       -2.63018644565426        1.04352628271136
H            7.33504321102663       -6.73618713364627       -0.37488958653589
H            5.56284496541220       -8.30356905211606       -1.13554908096404
H            3.22251520655960       -7.50698939269087       -1.28698748449213
H            2.66155950872517       -5.20354196801186       -0.66612191509295
H            2.38221901651361       -4.12483096599290        1.80581847960541
H            0.07566701743139       -3.23331672195727        1.77876305117300
H           -4.02734603164410       -3.68378368067699        0.77755912188585
H           -6.37540804225300       -2.91739030279594        0.56132396467772
H           -6.50620806966955       -0.95780037660416        2.49831076962171
H           -8.01393693749989       -0.86473698647076        4.43200093574597
H          -10.39425364306268       -0.25267251879616        4.12586738405073
H          -11.22643008022883        0.30002221735446        1.85005151586961
H          -10.61889580015941        0.89950313992902       -2.64713072782293
H           -9.22538555786618        0.84349391446136       -4.70471199045306
H           -6.86057782006662        0.12472592438981       -4.54895413638389
H           -5.90114125401787       -0.49795472697337       -2.37898101758552
H           -5.00325484304890        1.04248879954796       -0.32707868878061
H           -0.99710407094947        2.13048810221544       -1.64016550259359
H            0.82305539113551        3.79876827448210       -1.75697126438587
H            3.73878179454504        1.40373216672190       -0.84270865956850
H            6.01184838760577        0.71019939373354       -1.44227595178250
H            7.84461398070016        2.36963192534353       -1.50421242921787
H            7.35027277230514        4.75003061203268       -0.98173194028620
H            4.49731124589548        8.13619604553498        0.16082393025239
H            2.26304223804200        9.00307578901117        0.81998822905477
H            0.36737539176748        7.42447794234370        1.04097195530410
H            0.68981658942617        5.03928926899399        0.58445914938117
H            2.73391812423346        1.93126968729570        1.57727006419768
H            0.92943385991717        0.26257975136290        1.68264574102108
H            1.10564551454899       -0.67465224173977       -1.48241405488570
H            3.39832265427688       -1.56033657413270       -1.45664196116926

          :  Hamiltonian                  GFN2-xTB          :
         :: gradient norm              0.000069957416 Eh/a0 ::
         :: HOMO-LUMO gap              0.684636673741 eV    ::
         :: SCC energy              -167.522877522866 Eh    ::
         :: -> dispersion             -0.148939302193 Eh    ::
         :: -> Gsolv                  -0.065804961237 Eh    ::
         :: repulsion energy           2.838336848402 Eh    ::

    * Orbital Energies and Occupations

         #    Occupation            Energy/Eh            Energy/eV
      -------------------------------------------------------------
         1        2.0000           -0.7392077             -20.1149
       ...           ...                  ...                  ...
       140        2.0000           -0.4148303             -11.2881
       141        2.0000           -0.4142539             -11.2724
       142        2.0000           -0.4084456             -11.1144
       143        2.0000           -0.3980094             -10.8304
       144        2.0000           -0.3972064             -10.8085
       145        2.0000           -0.3969137             -10.8006
       146        2.0000           -0.3890092             -10.5855
       147        2.0000           -0.3873499             -10.5403
       148        1.9594           -0.3501285              -9.5275
       149        1.8664           -0.3489008              -9.4941
       150        1.7857           -0.3483593              -9.4793
       151        1.3885           -0.3466938              -9.4340
       152        1.0000           -0.2881705              -7.8415 (HOMO)
       153        0.0000           -0.2630107              -7.1569 (LUMO)
       154                         -0.2459092              -6.6915
       155                         -0.2458348              -6.6895
       156                         -0.2446056              -6.6561
       157                         -0.2393662              -6.5135
       158                         -0.2358970              -6.4191
       159                         -0.2356153              -6.4114
       160                         -0.2352487              -6.4014
       161                         -0.2341697              -6.3721
       162                         -0.2307482              -6.2790
       163                         -0.2249132              -6.1202
       ...                                ...                  ...
       291                          0.6903359              18.7850
      -------------------------------------------------------------
                  HL-Gap            0.0251598 Eh            0.6846 eV

     #   Z          covCN         q      C6AA      α(0)
     1   6 C        2.919    -0.037    28.928     8.820
     2   6 C        2.918    -0.034    28.856     8.809
     3   6 C        2.923    -0.057    29.419     8.895
     4   6 C        2.923     0.044    27.015     8.524
     5   6 C        2.883     0.125    25.262     8.240
     6   6 C        2.918    -0.056    29.386     8.889
     7   8 O        1.708    -0.258    18.275     5.772
     8   6 C        2.883     0.124    25.267     8.241
     9   6 C        2.918    -0.056    29.394     8.891
    10   6 C        2.919    -0.038    28.937     8.821
    11   6 C        2.918    -0.036    28.891     8.814
    12   6 C        2.922    -0.057    29.422     8.895
    13   6 C        2.923     0.044    27.008     8.522
    14   7 N        2.751    -0.057    22.335     7.019
    15   6 C        2.922     0.056    26.735     8.479
    16   6 C        2.919    -0.039    28.981     8.828
    17   6 C        2.925    -0.030    28.739     8.791
    18   6 C        2.977     0.004    27.920     8.667
    19   6 C        2.935     0.070    26.434     8.432
    20   7 N        1.849    -0.276    28.006     7.843
    21   6 C        2.942     0.084    26.136     8.385
    22   6 C        2.919    -0.069    29.730     8.941
    23   6 C        2.916    -0.053    29.308     8.878
    24   6 C        2.918     0.046    26.970     8.516
    25   7 N        2.752    -0.054    22.292     7.012
    26   6 C        2.924     0.047    26.956     8.514
    27   6 C        2.922    -0.056    29.379     8.889
    28   6 C        2.918    -0.035    28.880     8.813
    29   6 C        2.919    -0.037    28.922     8.819
    30   6 C        2.918    -0.056    29.390     8.890
    31   6 C        2.883     0.125    25.264     8.240
    32   8 O        1.709    -0.254    18.207     5.761
    33   6 C        2.883     0.125    25.262     8.240
    34   6 C        2.918    -0.056    29.393     8.890
    35   6 C        2.919    -0.037    28.920     8.819
    36   6 C        2.918    -0.035    28.880     8.813
    37   6 C        2.922    -0.055    29.378     8.888
    38   6 C        2.924     0.047    26.949     8.513
    39   6 C        2.920    -0.078    29.938     8.973
    40   6 C        2.942     0.085    26.112     8.381
    41   7 N        1.849    -0.278    28.066     7.852
    42   6 C        2.935     0.073    26.370     8.422
    43   6 C        2.978     0.005    27.902     8.665
    44   6 C        2.924    -0.029    28.729     8.790
    45   6 C        2.919    -0.040    28.984     8.828
    46   6 C        2.922     0.057    26.712     8.476
    47   7 N        2.751    -0.057    22.333     7.019
    48   6 C        2.923     0.044    27.021     8.524
    49   6 C        2.923    -0.057    29.422     8.895
    50   6 C        2.918    -0.035    28.860     8.810
    51   6 C        2.919    -0.037    28.928     8.820
    52   6 C        2.918    -0.056    29.386     8.889
    53   6 C        2.883     0.125    25.260     8.240
    54   8 O        1.708    -0.258    18.278     5.772
    55   6 C        2.883     0.125    25.267     8.241
    56   6 C        2.918    -0.056    29.393     8.891
    57   6 C        2.919    -0.038    28.937     8.821
    58   6 C        2.918    -0.036    28.893     8.815
    59   6 C        2.923    -0.057    29.426     8.896
    60   6 C        2.922     0.044    27.015     8.524
    61   6 C        2.919    -0.040    28.995     8.830
    62   6 C        2.923    -0.034    28.846     8.808
    63   6 C        2.922    -0.035    28.875     8.812
    64   6 C        2.919    -0.040    28.999     8.831
    65   1 H        0.926     0.048     2.349     2.397
    66   1 H        0.926     0.044     2.401     2.423
    67   1 H        0.926     0.043     2.407     2.426
    68   1 H        0.926     0.053     2.278     2.360
    69   1 H        0.926     0.053     2.283     2.363
    70   1 H        0.926     0.047     2.357     2.401
    71   1 H        0.926     0.046     2.376     2.410
    72   1 H        0.926     0.044     2.400     2.423
    73   1 H        0.926     0.046     2.376     2.411
    74   1 H        0.926     0.046     2.367     2.406
    75   1 H        0.926     0.038     2.471     2.458
    76   1 H        0.926     0.033     2.543     2.494
    77   1 H        0.926     0.043     2.415     2.430
    78   1 H        0.926     0.047     2.358     2.401
    79   1 H        0.926     0.049     2.326     2.385
    80   1 H        0.926     0.055     2.257     2.350
    81   1 H        0.926     0.055     2.257     2.349
    82   1 H        0.926     0.050     2.326     2.385
    83   1 H        0.926     0.047     2.363     2.404
    84   1 H        0.926     0.043     2.415     2.430
    85   1 H        0.926     0.038     2.476     2.461
    86   1 H        0.926     0.046     2.367     2.406
    87   1 H        0.926     0.047     2.363     2.404
    88   1 H        0.926     0.043     2.405     2.425
    89   1 H        0.926     0.043     2.407     2.426
    90   1 H        0.926     0.048     2.350     2.397
    91   1 H        0.926     0.053     2.278     2.360
    92   1 H        0.926     0.053     2.283     2.363
    93   1 H        0.926     0.047     2.357     2.401
    94   1 H        0.926     0.046     2.376     2.410
    95   1 H        0.926     0.044     2.395     2.420
    96   1 H        0.926     0.045     2.382     2.414
    97   1 H        0.926     0.034     2.536     2.490
    98   1 H        0.926     0.033     2.541     2.493
    99   1 H        0.926     0.044     2.392     2.419

molecular dipole:
                 x           y           z       tot (Debye)
 q only:        1.288       0.420      -0.061
   full:        1.184       0.348      -0.044       3.139

 projected vibrational frequencies (cm⁻¹)
eigval :       -0.00    -0.00    -0.00     0.00     0.00     0.00
eigval :        7.37    10.80    13.07    14.43    17.83    24.85
eigval :       26.79    30.99    38.75    44.86    45.88    52.74
eigval :       60.79    62.26    66.30    71.75    74.37    89.74
eigval :      100.63   112.49   113.62   119.25   122.92   133.26
eigval :      152.01   168.00   182.93   193.42   198.98   205.29
eigval :      218.20   244.67   245.69   248.60   252.22   252.87
eigval :      258.62   265.18   274.74   280.12   290.90   302.08
eigval :      313.53   352.90   358.52   369.72   376.13   376.65
eigval :      379.72   386.94   390.50   393.93   396.75   406.03
eigval :      414.14   418.68   426.41   426.90   429.80   431.53
eigval :      432.12   436.41   447.70   450.73   454.00   461.39
eigval :      490.49   504.08   506.37   507.03   507.84   510.37
eigval :      523.65   524.32   525.15   535.94   546.09   547.26
eigval :      550.89   565.67   570.43   577.04   587.16   590.70
eigval :      598.76   601.49   612.99   615.33   617.56   623.61
eigval :      641.35   656.67   663.25   663.42   664.14   665.37
eigval :      665.75   666.18   668.68   679.53   690.19   693.73
eigval :      696.04   710.22   726.35   774.23   774.47   777.33
eigval :      779.07   781.38   782.47   784.65   792.22   796.45
eigval :      798.27   806.26   812.04   817.05   833.08   849.50
eigval :      853.12   853.14   853.56   862.06   864.16   864.19
eigval :      864.98   866.54   869.54   872.30   873.14   876.08
eigval :      896.64   897.00   898.68   898.95   899.65   900.97
eigval :      904.17   911.53   912.36   913.68   914.00   914.56
eigval :      915.62   916.12   917.90   919.01   919.32   921.60
eigval :      922.64   927.02   929.13   960.39   990.46  1008.70
eigval :     1025.25  1083.00  1086.28  1086.33  1087.06  1088.22
eigval :     1088.39  1101.14  1107.88  1108.06  1108.56  1113.47
eigval :     1116.43  1118.09  1128.52  1131.66  1133.06  1159.23
eigval :     1166.93  1168.73  1170.55  1173.21  1174.68  1176.53
eigval :     1178.81  1179.87  1182.95  1190.00  1191.71  1199.88
eigval :     1200.11  1200.24  1210.56  1218.85  1220.69  1235.47
eigval :     1237.05  1238.53  1239.32  1250.35  1253.54  1255.97
eigval :     1256.58  1263.16  1264.36  1265.29  1283.87  1290.13
eigval :     1305.44  1306.52  1307.22  1308.16  1310.24  1312.12
eigval :     1314.14  1315.24  1324.33  1327.57  1328.71  1337.43
eigval :     1341.90  1348.90  1353.84  1390.75  1401.50  1403.74
eigval :     1410.43  1419.02  1420.48  1421.13  1440.25  1440.59
eigval :     1441.30  1456.25  1459.25  1462.84  1463.91  1473.06
eigval :     1475.59  1479.74  1480.82  1491.74  1510.81  1520.92
eigval :     1540.39  1542.88  1559.56  1561.69  1561.80  1568.47
eigval :     1571.46  1571.55  1575.35  1576.69  1577.66  1579.42
eigval :     1582.14  1590.16  1591.05  1593.86  3080.72  3081.33
eigval :     3081.83  3082.43  3082.72  3089.91  3090.12  3090.16
eigval :     3090.30  3092.12  3092.22  3093.17  3093.70  3094.75
eigval :     3095.69  3097.23  3097.38  3098.03  3098.39  3098.53
eigval :     3098.96  3100.26  3101.06  3106.55  3106.66  3107.12
eigval :     3107.28  3108.26  3108.76  3110.61  3110.74  3110.81
eigval :     3111.22  3112.65  3114.19

   temp. (K)  partition function   enthalpy   heat capacity  entropy
                                   cal/mol     cal/K/mol   cal/K/mol   J/K/mol
 298.15  VIB  0.282E+24            29387.576    186.475    182.786
         ROT  0.249E+09              888.752      2.981     41.401
         INT  0.703E+32            30276.328    189.455    224.187
         TR   0.230E+29             1481.254      4.968     45.991
         TOT                       31757.5822   194.4236   270.1773  1130.4220

       T/K    H(0)-H(T)+PV         H(T)/Eh          T*S/Eh         G(T)/Eh
   ------------------------------------------------------------------------
    298.15    0.506089E-01    0.787934E+00    0.128370E+00    0.659564E+00
   ------------------------------------------------------------------------

         :::::::::::::::::::::::::::::::::::::::::::::::::::::
         ::                  THERMODYNAMIC                  ::
         :::::::::::::::::::::::::::::::::::::::::::::::::::::
         :: total free energy        -164.024976658844 Eh   ::
         ::.................................................::
         :: total energy             -164.684540670623 Eh   ::
         :: zero point energy           0.737325057049 Eh   ::
         :: G(RRHO) w/o ZPVE           -0.077761045270 Eh   ::
         :: G(RRHO) contrib.            0.659564011779 Eh   ::
         :::::::::::::::::::::::::::::::::::::::::::::::::::::

           -------------------------------------------------
          | TOTAL ENERGY             -164.684540670623 Eh   |
          | TOTAL ENTHALPY           -163.896606684974 Eh   |
          | TOTAL FREE ENERGY        -164.024976658844 Eh   |
          | GRADIENT NORM               0.000068221802 Eh/α |
          | HOMO-LUMO GAP               0.684633393306 eV   |
           -------------------------------------------------

 * finished run on 2025/08/30 at 13:27:20.816
