   * xtb version 6.7.1 (edcfbbe) compiled by 'albert@albert-system' on 2024-07-22

   ID    Z sym.   atoms
    1    6 C      1-6, 8-13, 15-19, 21-24, 26-31, 33-40, 42-46, 48-53, 55-64
    2    8 O      7, 32, 54
    3    7 N      14, 20, 25, 41, 47
    4    1 H      65-99

          program call               : xtb data2507/toluene/DBQ-3PXZ/DBQ-3PXZ_toluene_S0_finalOpt.xtbopt.xyz --gfn 2 --uhf 2 --gbsa toluene --ohess vtight --parallel 40 --molden --ceasefiles --namespace data2507/toluene/DBQ-3PXZ/DBQ-3PXZ_toluene_T1_preOpt
      * Solvation model:               GBSA
        Solvent                        toluene
        Solvent mass                       9.2140E+01 g/mol
          :  Hamiltonian                  GFN2-xTB          :
 * total energy  :  -164.6745040 Eh     change       -0.2831689E-07 Eh
 * total energy  :  -164.6776060 Eh     change       -0.3102026E-02 Eh
 * total energy  :  -164.6785112 Eh     change       -0.9051874E-03 Eh
 * total energy  :  -164.6786308 Eh     change       -0.1195905E-03 Eh
 * total energy  :  -164.6787100 Eh     change       -0.7919262E-04 Eh
 * total energy  :  -164.6787413 Eh     change       -0.3135083E-04 Eh
 * total energy  :  -164.6787839 Eh     change       -0.4254751E-04 Eh
 * total energy  :  -164.6788199 Eh     change       -0.3609068E-04 Eh
 * total energy  :  -164.6788518 Eh     change       -0.3182952E-04 Eh
 * total energy  :  -164.6788759 Eh     change       -0.2416055E-04 Eh
 * total energy  :  -164.6846813 Eh     change       -0.1062231E-05 Eh
 * total energy  :  -164.6846823 Eh     change       -0.9669843E-06 Eh
 * total energy  :  -164.6846830 Eh     change       -0.7288312E-06 Eh
 * total energy  :  -164.6846835 Eh     change       -0.5195877E-06 Eh
 * total energy  :  -164.6846839 Eh     change       -0.3331875E-06 Eh
 * total energy  :  -164.6846841 Eh     change       -0.2621402E-06 Eh
 * total energy  :  -164.6846844 Eh     change       -0.2844984E-06 Eh
 * total energy  :  -164.6846847 Eh     change       -0.2667940E-06 Eh
 * total energy  :  -164.6846847 Eh     change       -0.2359315E-08 Eh
   *** GEOMETRY OPTIMIZATION CONVERGED AFTER 260 ITERATIONS ***

 final structure:
================
99
 xtb: 6.7.1 (edcfbbe)
C            7.72028008347847       -1.32093699408781        1.30001577055068
C            6.49737919280814       -0.68021835058663        1.22855204070629
C            5.32197034524265       -1.41312584201396        1.21941127912181
C            5.34840467094825       -2.80315745347252        1.27307031786729
C            6.59411085938298       -3.44126919027352        1.37635444344171
C            7.76527146978739       -2.70449213256358        1.38309561581963
O            6.71248244234071       -4.80450550809630        1.48704214903721
C            5.55670184538368       -5.54543178308916        1.46915842387499
C            5.68942835254423       -6.91938198137657        1.56301507503805
C            4.56756649847963       -7.73328602116607        1.52346142480978
C            3.31656769014500       -7.16441115418554        1.37380044403809
C            3.17692396131683       -5.78925528053026        1.28146236198781
C            4.28892132433617       -4.95555519215446        1.34661825806676
N            4.18570620386891       -3.56944860681099        1.26041331321161
C            2.91983342563411       -2.94816508172328        1.12145191852133
C            1.98872338438040       -3.00924700436461        2.15434607546862
C            0.75667414342656       -2.40521716671067        2.01049257115888
C            0.43507020243077       -1.70647047704831        0.84461179331645
C           -0.88215019110691       -1.09239716076636        0.70034078882200
N           -1.92727770853701       -1.78502061204660        1.16064902758321
C           -3.17628659904016       -1.36064319440656        0.92847341321128
C           -4.28820813486784       -2.05224329069016        1.41188237182342
C           -5.57285763896569       -1.64813246757402        1.08456319314240
C           -5.76819289652385       -0.54019833766415        0.27153727821672
N           -7.08878070831615       -0.14665195624123       -0.07715039168551
C           -7.93036928374161        0.41378927673815        0.87375704117976
C           -7.50694000504779        0.67754404443184        2.17324524535908
C           -8.37227067027149        1.23760107055784        3.09778750482426
C           -9.67181858648614        1.55048932314942        2.74192744776307
C          -10.10597824234794        1.31070416844461        1.44698653826126
C           -9.24600381293316        0.75277595923531        0.51782506511866
O           -9.73279979312860        0.55821096214495       -0.75047441270355
C           -8.88236179797151        0.01574340818830       -1.68104351700973
C           -9.38097501756664       -0.17491424516979       -2.95743600565272
C           -8.57993835862444       -0.73314940485675       -3.94214426674702
C           -7.28317174064534       -1.10702862097449       -3.63953335473977
C           -6.77790567009717       -0.91964941696677       -2.36391746688670
C           -7.56222954682106       -0.34665688987639       -1.36680220674172
C           -4.68185378938339        0.19239855246710       -0.20469485652494
C           -3.38232681266845       -0.18744066914493        0.12001816850644
N           -2.32118324278961        0.53902919939884       -0.26210006014021
C           -1.08457108111308        0.14273153536661        0.05268514522681
C            0.00607964624624        1.05938162632130       -0.26410634826378
C           -0.04109348396520        1.82015576583452       -1.43537544925467
C            0.97040091431939        2.70603867684138       -1.74325469481463
C            2.04504724336889        2.86554089060873       -0.87317800504376
N            3.09071332280675        3.77047505051296       -1.18491088813151
C            4.37161600653839        3.29759421620679       -1.45539295369316
C            4.66975169620555        1.93898832567280       -1.48483438601587
C            5.95584083255608        1.50102771053261       -1.75513750891757
C            6.96551604001157        2.41084146790294       -2.00795671975576
C            6.68119680130565        3.76825810228246       -2.00831666121191
C            5.39801676768676        4.21121669160908       -1.74084294533887
O            5.18253877752477        5.56658859157131       -1.78054223706783
C            3.91376369821055        6.01595429404857       -1.50869924446985
C            3.71087976394959        7.38410027406874       -1.53716083014310
C            2.46091934586034        7.91021736355091       -1.24749545151231
C            1.42161433247269        7.06040010059649       -0.91761007848417
C            1.61769397488456        5.68933141041516       -0.88962011021056
C            2.85876219446051        5.14281314909373       -1.20069390284963
C            2.08491179642432        2.13732661841292        0.31356880060902
C            1.07734419683250        1.24655405299288        0.61464267456277
C            1.36969743102656       -1.66771376616331       -0.19399999792485
C            2.59610426316008       -2.28151113817255       -0.05825987755883
H            8.63774417617805       -0.75414108223927        1.30180804122726
H            6.44880471962035        0.39636905486332        1.17710799886573
H            4.37203525668098       -0.90593192970164        1.17433944122925
H            8.70173797320004       -3.23445132383597        1.45777418775856
H            6.68118750364563       -7.33169051789464        1.66173026105845
H            4.67943524571613       -8.80317437300079        1.60002716664348
H            2.43689928715024       -7.78749161852511        1.32481186773999
H            2.19758392226993       -5.35663574228606        1.15223656865275
H            2.23672592418052       -3.53193574648507        3.06657738195496
H            0.02806762317901       -2.45506988818850        2.80526017010791
H           -4.12442743536445       -2.92508727429810        2.02440642145717
H           -6.42575546145617       -2.19881021725586        1.45267724147933
H           -6.49200357885053        0.44169099005689        2.45206678991703
H           -8.02095470596111        1.43010194944514        4.09976667983445
H          -10.34814127357208        1.98420273423246        3.46130861825178
H          -11.10976057108149        1.55259653863773        1.13509420841471
H          -10.39942185650789        0.11800055315420       -3.15807170459715
H           -8.97517242723677       -0.87787441425699       -4.93508603860482
H           -6.65428959654593       -1.55112683311997       -4.39569136630858
H           -5.76878165497088       -1.22051672836537       -2.13073799114901
H           -4.83619640451195        1.07219100503635       -0.81005348942982
H           -0.87960911689254        1.69410475718849       -2.10305083049307
H            0.93521884052900        3.27871550760464       -2.65853017140541
H            3.88499117868620        1.22401601367096       -1.29850391643618
H            6.16208713513441        0.44206681139173       -1.76425060107719
H            7.96902259608367        2.07391246795019       -2.21394048748838
H            7.44234563711782        4.50334222738087       -2.21735538936323
H            4.54632809809130        8.02023371811804       -1.78365952532328
H            2.31045619108258        8.97784993342233       -1.27365874075678
H            0.44819921155893        7.45838595802774       -0.67563220706938
H            0.80376800949118        5.03495275784005       -0.62039387994222
H            2.90524057123999        2.28575891860710        1.00042518655372
H            1.10367323355635        0.70436910438372        1.54800960985644
H            1.11841259671674       -1.17160025662712       -1.11958745512863
H            3.30838412378755       -2.26079951827091       -0.86997649076724

          :  Hamiltonian                  GFN2-xTB          :
         :: gradient norm              0.000036815051 Eh/a0 ::
         :: HOMO-LUMO gap              0.659394156739 eV    ::
         :: SCC energy              -167.522570858380 Eh    ::
         :: -> dispersion             -0.146724336069 Eh    ::
         :: -> Gsolv                  -0.067007640914 Eh    ::
         :: repulsion energy           2.837886175336 Eh    ::

    * Orbital Energies and Occupations

         #    Occupation            Energy/Eh            Energy/eV
      -------------------------------------------------------------
         1        2.0000           -0.7391654             -20.1137
       ...           ...                  ...                  ...
       140        2.0000           -0.4147499             -11.2859
       141        2.0000           -0.4144828             -11.2787
       142        2.0000           -0.4081148             -11.1054
       143        2.0000           -0.3980151             -10.8305
       144        2.0000           -0.3971639             -10.8074
       145        2.0000           -0.3968071             -10.7977
       146        2.0000           -0.3881574             -10.5623
       147        2.0000           -0.3872687             -10.5381
       148        1.9548           -0.3500367              -9.5250
       149        1.8576           -0.3488452              -9.4926
       150        1.7825           -0.3483555              -9.4792
       151        1.4051           -0.3467739              -9.4362
       152        1.0000           -0.2882325              -7.8432 (HOMO)
       153        0.0000           -0.2640002              -7.1838 (LUMO)
       154                         -0.2458856              -6.6909
       155                         -0.2454172              -6.6781
       156                         -0.2449771              -6.6662
       157                         -0.2385123              -6.4902
       158                         -0.2358628              -6.4182
       159                         -0.2357198              -6.4143
       160                         -0.2349203              -6.3925
       161                         -0.2334777              -6.3533
       162                         -0.2307640              -6.2794
       163                         -0.2241528              -6.0995
       ...                                ...                  ...
       291                          0.6915903              18.8191
      -------------------------------------------------------------
                  HL-Gap            0.0242322 Eh            0.6594 eV

     #   Z          covCN         q      C6AA      α(0)
     1   6 C        2.919    -0.037    28.931     8.820
     2   6 C        2.918    -0.036    28.884     8.813
     3   6 C        2.923    -0.057    29.424     8.895
     4   6 C        2.923     0.044    27.019     8.524
     5   6 C        2.883     0.125    25.262     8.240
     6   6 C        2.918    -0.056    29.390     8.890
     7   8 O        1.709    -0.258    18.278     5.772
     8   6 C        2.883     0.125    25.265     8.240
     9   6 C        2.918    -0.056    29.394     8.891
    10   6 C        2.919    -0.038    28.935     8.821
    11   6 C        2.918    -0.036    28.892     8.814
    12   6 C        2.923    -0.057    29.425     8.896
    13   6 C        2.922     0.044    27.012     8.523
    14   7 N        2.751    -0.056    22.331     7.018
    15   6 C        2.921     0.057    26.723     8.477
    16   6 C        2.919    -0.040    28.984     8.828
    17   6 C        2.924    -0.029    28.737     8.791
    18   6 C        2.978     0.005    27.911     8.666
    19   6 C        2.934     0.071    26.405     8.427
    20   7 N        1.850    -0.275    27.998     7.842
    21   6 C        2.942     0.083    26.147     8.386
    22   6 C        2.919    -0.069    29.723     8.940
    23   6 C        2.916    -0.053    29.319     8.879
    24   6 C        2.918     0.046    26.962     8.515
    25   7 N        2.753    -0.055    22.302     7.014
    26   6 C        2.924     0.047    26.949     8.513
    27   6 C        2.922    -0.055    29.379     8.889
    28   6 C        2.918    -0.035    28.879     8.812
    29   6 C        2.919    -0.037    28.924     8.819
    30   6 C        2.918    -0.056    29.390     8.890
    31   6 C        2.883     0.125    25.265     8.240
    32   8 O        1.709    -0.254    18.208     5.761
    33   6 C        2.883     0.125    25.263     8.240
    34   6 C        2.918    -0.056    29.393     8.890
    35   6 C        2.919    -0.037    28.922     8.819
    36   6 C        2.918    -0.035    28.879     8.812
    37   6 C        2.922    -0.055    29.376     8.888
    38   6 C        2.924     0.047    26.943     8.512
    39   6 C        2.920    -0.078    29.942     8.973
    40   6 C        2.942     0.085    26.103     8.379
    41   7 N        1.850    -0.278    28.070     7.852
    42   6 C        2.934     0.071    26.405     8.427
    43   6 C        2.978     0.004    27.923     8.668
    44   6 C        2.924    -0.030    28.741     8.792
    45   6 C        2.918    -0.039    28.981     8.828
    46   6 C        2.922     0.057    26.731     8.479
    47   7 N        2.751    -0.057    22.338     7.020
    48   6 C        2.923     0.044    27.015     8.524
    49   6 C        2.923    -0.057    29.426     8.896
    50   6 C        2.918    -0.036    28.884     8.813
    51   6 C        2.919    -0.038    28.934     8.821
    52   6 C        2.918    -0.056    29.391     8.890
    53   6 C        2.883     0.125    25.263     8.240
    54   8 O        1.708    -0.258    18.280     5.773
    55   6 C        2.883     0.125    25.266     8.241
    56   6 C        2.918    -0.056    29.394     8.891
    57   6 C        2.919    -0.038    28.937     8.821
    58   6 C        2.918    -0.036    28.892     8.814
    59   6 C        2.922    -0.057    29.424     8.895
    60   6 C        2.923     0.044    27.008     8.522
    61   6 C        2.919    -0.040    28.996     8.830
    62   6 C        2.922    -0.035    28.869     8.811
    63   6 C        2.923    -0.034    28.857     8.809
    64   6 C        2.919    -0.040    28.997     8.830
    65   1 H        0.926     0.048     2.346     2.395
    66   1 H        0.926     0.046     2.365     2.405
    67   1 H        0.926     0.044     2.401     2.423
    68   1 H        0.926     0.053     2.283     2.363
    69   1 H        0.926     0.053     2.282     2.362
    70   1 H        0.926     0.047     2.356     2.400
    71   1 H        0.926     0.046     2.375     2.410
    72   1 H        0.926     0.044     2.394     2.419
    73   1 H        0.926     0.046     2.369     2.407
    74   1 H        0.926     0.046     2.364     2.405
    75   1 H        0.926     0.038     2.473     2.459
    76   1 H        0.926     0.033     2.549     2.497
    77   1 H        0.926     0.042     2.420     2.433
    78   1 H        0.926     0.047     2.359     2.402
    79   1 H        0.926     0.049     2.326     2.385
    80   1 H        0.926     0.055     2.258     2.350
    81   1 H        0.926     0.055     2.256     2.349
    82   1 H        0.926     0.050     2.325     2.385
    83   1 H        0.926     0.047     2.363     2.404
    84   1 H        0.926     0.042     2.425     2.435
    85   1 H        0.926     0.037     2.486     2.465
    86   1 H        0.926     0.047     2.355     2.400
    87   1 H        0.926     0.046     2.375     2.410
    88   1 H        0.926     0.043     2.406     2.426
    89   1 H        0.926     0.046     2.364     2.405
    90   1 H        0.926     0.048     2.347     2.396
    91   1 H        0.926     0.053     2.284     2.363
    92   1 H        0.926     0.053     2.283     2.363
    93   1 H        0.926     0.047     2.357     2.401
    94   1 H        0.926     0.045     2.377     2.411
    95   1 H        0.926     0.044     2.400     2.423
    96   1 H        0.926     0.044     2.394     2.419
    97   1 H        0.926     0.034     2.534     2.489
    98   1 H        0.926     0.034     2.536     2.490
    99   1 H        0.926     0.045     2.389     2.417

molecular dipole:
                 x           y           z       tot (Debye)
 q only:        1.334       0.267      -0.177
   full:        1.223       0.216      -0.136       3.175

 projected vibrational frequencies (cm⁻¹)
eigval :       -0.00    -0.00    -0.00    -0.00    -0.00     0.00
eigval :       10.28    11.25    12.14    13.72    19.16    22.88
eigval :       26.58    32.76    35.83    41.13    48.24    51.68
eigval :       56.78    59.77    64.00    68.11    72.58    84.89
eigval :      101.17   113.92   114.41   116.49   125.95   133.09
eigval :      148.63   165.58   180.63   192.70   197.82   203.23
eigval :      219.36   244.79   246.55   248.36   251.51   254.28
eigval :      258.04   264.31   274.23   282.05   290.69   301.15
eigval :      314.84   353.10   355.57   369.57   376.57   376.72
eigval :      377.95   387.21   390.52   392.26   395.70   405.37
eigval :      413.39   417.89   425.37   427.30   429.34   429.66
eigval :      431.73   435.92   447.01   450.83   452.95   460.64
eigval :      489.29   505.32   506.68   506.84   508.15   510.10
eigval :      523.93   524.30   525.71   536.65   545.29   547.53
eigval :      550.19   564.77   570.81   577.55   586.94   590.19
eigval :      599.87   601.94   612.61   614.98   618.17   623.51
eigval :      641.29   656.88   662.39   664.31   664.65   664.82
eigval :      666.69   667.71   668.98   680.07   690.39   693.52
eigval :      695.97   709.98   726.21   776.53   777.38   778.40
eigval :      778.79   779.85   780.82   785.21   786.02   796.13
eigval :      797.83   799.14   812.14   816.10   833.06   850.09
eigval :      853.10   853.31   853.54   862.57   862.64   863.20
eigval :      865.87   867.20   867.84   870.35   871.12   871.25
eigval :      898.18   898.36   898.54   899.07   899.69   901.54
eigval :      902.21   911.84   913.19   914.30   914.77   915.31
eigval :      915.62   916.38   916.82   917.74   918.96   920.71
eigval :      921.00   927.44   929.44   959.77   990.41  1008.66
eigval :     1024.62  1085.12  1086.25  1086.39  1087.36  1087.59
eigval :     1088.58  1100.06  1107.99  1108.44  1108.50  1113.32
eigval :     1116.51  1118.38  1126.33  1129.96  1131.24  1160.14
eigval :     1166.49  1168.88  1171.67  1173.01  1174.08  1175.49
eigval :     1178.63  1180.50  1183.07  1189.67  1192.16  1200.23
eigval :     1200.62  1200.78  1209.76  1217.79  1218.83  1235.16
eigval :     1237.91  1238.57  1239.10  1244.55  1254.64  1256.35
eigval :     1256.81  1261.85  1264.15  1266.69  1283.51  1290.49
eigval :     1305.01  1306.91  1307.19  1308.81  1310.68  1312.15
eigval :     1314.27  1314.55  1325.22  1327.46  1328.37  1337.34
eigval :     1342.18  1348.64  1354.02  1389.27  1402.06  1404.12
eigval :     1410.85  1419.33  1420.33  1420.64  1440.39  1440.53
eigval :     1440.69  1456.02  1458.37  1462.95  1463.80  1472.59
eigval :     1475.15  1478.93  1479.70  1491.91  1510.53  1520.22
eigval :     1539.91  1541.76  1559.65  1561.72  1562.11  1568.48
eigval :     1571.10  1571.28  1575.69  1576.58  1577.65  1579.22
eigval :     1581.97  1590.08  1591.03  1593.73  3079.54  3080.62
eigval :     3080.76  3082.54  3082.83  3089.71  3089.94  3090.45
eigval :     3090.93  3091.02  3092.27  3092.46  3092.58  3093.48
eigval :     3095.07  3096.73  3098.72  3098.82  3099.02  3099.14
eigval :     3099.27  3100.02  3100.27  3106.32  3106.65  3107.27
eigval :     3108.18  3108.81  3109.30  3110.81  3110.96  3111.11
eigval :     3112.01  3114.46  3115.07

   temp. (K)  partition function   enthalpy   heat capacity  entropy
                                   cal/mol     cal/K/mol   cal/K/mol   J/K/mol
 298.15  VIB  0.315E+24            29433.767    186.281    182.949
         ROT  0.257E+09              888.752      2.981     41.463
         INT  0.809E+32            30322.519    189.262    224.412
         TR   0.230E+29             1481.254      4.968     45.991
         TOT                       31803.7734   194.2297   270.4023  1131.3632

       T/K    H(0)-H(T)+PV         H(T)/Eh          T*S/Eh         G(T)/Eh
   ------------------------------------------------------------------------
    298.15    0.506825E-01    0.787832E+00    0.128477E+00    0.659355E+00
   ------------------------------------------------------------------------

         :::::::::::::::::::::::::::::::::::::::::::::::::::::
         ::                  THERMODYNAMIC                  ::
         :::::::::::::::::::::::::::::::::::::::::::::::::::::
         :: total free energy        -164.025329449621 Eh   ::
         ::.................................................::
         :: total energy             -164.684684685075 Eh   ::
         :: zero point energy           0.737149547709 Eh   ::
         :: G(RRHO) w/o ZPVE           -0.077794312256 Eh   ::
         :: G(RRHO) contrib.            0.659355235454 Eh   ::
         :::::::::::::::::::::::::::::::::::::::::::::::::::::

           -------------------------------------------------
          | TOTAL ENERGY             -164.684684685075 Eh   |
          | TOTAL ENTHALPY           -163.896852598341 Eh   |
          | TOTAL FREE ENERGY        -164.025329449621 Eh   |
          | GRADIENT NORM               0.000037342989 Eh/α |
          | HOMO-LUMO GAP               0.659392910605 eV   |
           -------------------------------------------------

 * finished run on 2025/08/30 at 13:15:50.371
