   * xtb version 6.7.1 (edcfbbe) compiled by 'albert@albert-system' on 2024-07-22

   ID    Z sym.   atoms
    1    6 C      1-6, 8-13, 15-19, 21-24, 26-31, 33-40, 42-46, 48-53, 55-64
    2    8 O      7, 32, 54
    3    7 N      14, 20, 25, 41, 47
    4    1 H      65-99

          program call               : xtb data2507/toluene/DBQ-3PXZ/DBQ-3PXZ_toluene_S0_crest.xyz --gfn 2 --gbsa toluene --ohess vtight --parallel 40 --molden --ceasefiles --namespace data2507/toluene/DBQ-3PXZ/DBQ-3PXZ_toluene_S0_finalOpt
      * Solvation model:               GBSA
        Solvent                        toluene
        Solvent mass                       9.2140E+01 g/mol
          :  Hamiltonian                  GFN2-xTB          :
 * total energy  :  -164.7330917 Eh     change       -0.3522331E-08 Eh
 * total energy  :  -164.7331668 Eh     change       -0.7512388E-04 Eh
 * total energy  :  -164.7332197 Eh     change       -0.5286192E-04 Eh
 * total energy  :  -164.7332482 Eh     change       -0.2851843E-04 Eh
 * total energy  :  -164.7332713 Eh     change       -0.2315679E-04 Eh
 * total energy  :  -164.7333021 Eh     change       -0.3075740E-04 Eh
 * total energy  :  -164.7333256 Eh     change       -0.2353399E-04 Eh
 * total energy  :  -164.7333383 Eh     change       -0.1263951E-04 Eh
 * total energy  :  -164.7333552 Eh     change       -0.1692403E-04 Eh
 * total energy  :  -164.7333674 Eh     change       -0.1218428E-04 Eh
 * total energy  :  -164.7335182 Eh     change       -0.7508102E-06 Eh
 * total energy  :  -164.7335189 Eh     change       -0.7230197E-06 Eh
 * total energy  :  -164.7335196 Eh     change       -0.7303846E-06 Eh
 * total energy  :  -164.7335203 Eh     change       -0.6536008E-06 Eh
 * total energy  :  -164.7335208 Eh     change       -0.5481653E-06 Eh
 * total energy  :  -164.7335213 Eh     change       -0.4902635E-06 Eh
 * total energy  :  -164.7335217 Eh     change       -0.4075732E-06 Eh
 * total energy  :  -164.7335220 Eh     change       -0.3186958E-06 Eh
 * total energy  :  -164.7335220 Eh     change       -0.6320903E-08 Eh
   *** GEOMETRY OPTIMIZATION CONVERGED AFTER 44 ITERATIONS ***

 final structure:
================
99
 xtb: 6.7.1 (edcfbbe)
C            6.54906540538861        0.99781361114215        1.94759788642728
C            5.18008409481191        1.04667913641779        2.11036214401442
C            4.38980727052288       -0.02862147553470        1.73295786457297
C            4.95326834192083       -1.17485784536556        1.18802473490770
C            6.34154479474718       -1.20235002113789        1.00220083010025
C            7.12639232065202       -0.13091683806727        1.38540908166658
O            6.98949120225641       -2.26841379018140        0.42640052695802
C            6.21703704700157       -3.33122787328793        0.01929497790896
C            6.87365945642946       -4.39503136782354       -0.57132688977815
C            6.16565558641283       -5.51819062760262       -0.97551663806553
C            4.80184294113374       -5.57365473929041       -0.76876207592548
C            4.13863707990011       -4.50696670931162       -0.18086607547348
C            4.82854514472537       -3.36243807780429        0.20033385854596
N            4.18509339067007       -2.27916119072723        0.80311946312111
C            2.77522208303827       -2.18191078023879        0.77975575442042
C            2.05282436294550       -2.06007929409514        1.96244991379616
C            0.68850724805788       -1.83294027689725        1.92611819643957
C            0.03195262570976       -1.71192261911532        0.70762807246542
C           -1.35766335214228       -1.22877721747333        0.60945455175218
N           -2.36691510631631       -1.95384421140704        1.00941996737330
C           -3.61125777564474       -1.47314300469064        0.79745874931781
C           -4.73365855146549       -2.20943059695275        1.22515418681886
C           -5.99183024516400       -1.75341478465437        0.95339754408798
C           -6.18946039475686       -0.54651928491034        0.24469454127230
N           -7.50459812397050       -0.12743804205055       -0.03643657471908
C           -8.39281661017311        0.14418543499784        1.00927382753782
C           -7.99172757290989        0.14136276060055        2.34002824629361
C           -8.89564716406208        0.41488403115072        3.35547034835001
C          -10.21075085962263        0.71155324743438        3.05813002613155
C          -10.61879902125958        0.75445600520964        1.73292905394670
C           -9.72075309023878        0.48155571040960        0.71718833519249
O          -10.19084734604658        0.57269898839554       -0.57121946532682
C           -9.29741772157108        0.33612356971892       -1.58935212045750
C           -9.78425939631413        0.44126793536873       -2.87971580864128
C           -8.95789530727905        0.18489037380170       -3.96366175669290
C           -7.64766954327865       -0.18983940029252       -3.74370840797085
C           -7.15437262643576       -0.29273892981841       -2.45172412446237
C           -7.96121936853844       -0.01585508446351       -1.35485557694756
C           -5.10969339307578        0.19976103189274       -0.16915023093023
C           -3.80694092598950       -0.24529797523211        0.10692537188370
N           -2.74819606489790        0.52227931722137       -0.24457471231229
C           -1.55466875001405        0.07010503819527        0.02455516579005
C           -0.34648285259063        0.87878234176508       -0.22287003579560
C            0.12081764959796        1.13711547514034       -1.50543834474206
C            1.37311496206680        1.69548079523239       -1.69056177027439
C            2.16707433180496        2.01638986934244       -0.59420848809213
N            3.49515287710288        2.46587498684308       -0.77285771330766
C            4.47109257917486        1.58621643172797       -1.25297156029659
C            4.16122161966373        0.32204222752636       -1.73672343924713
C            5.15147899076609       -0.52322171543992       -2.21441685578608
C            6.47132419266265       -0.12193510375045       -2.21414351258331
C            6.80112560782896        1.12867799416258       -1.71338435328836
C            5.81775802738454        1.97178093804535       -1.23082584040203
O            6.23249216963008        3.18005507832191       -0.72476057334268
C            5.26465789120474        4.02104156530315       -0.22648903745837
C            5.68917527952040        5.23237936429372        0.28739866686654
C            4.76742940496372        6.14842297345249        0.77466601204337
C            3.42059941416888        5.84908225299782        0.72782733026932
C            2.99072112731348        4.63315389369228        0.21780721836920
C            3.90319176356350        3.69276650623578       -0.24499996842460
C            1.65450360295441        1.85682734231191        0.69046788791094
C            0.41571585292747        1.28070404787132        0.87225370867589
C            0.74362766460687       -1.92409917965567       -0.47156076560765
C            2.09928788678590       -2.16979132212855       -0.43750355414461
H            7.16983119213070        1.82983957588321        2.24057907053437
H            4.71562129544812        1.92559197326076        2.53267454271553
H            3.31999253553884        0.02665434821403        1.85143946271602
H            8.19103788577307       -0.19674064316176        1.22574988868466
H            7.94238850249801       -4.32735519535506       -0.70161677290478
H            6.68700151973687       -6.34166570662363       -1.43764341961396
H            4.24041986911036       -6.44844197973414       -1.05917067607100
H            3.07461439513267       -4.56456383584616       -0.01164170138113
H            2.56813949642438       -2.12135446345327        2.90938216070932
H            0.13458315214490       -1.71551075219065        2.84541877915434
H           -4.56815173468484       -3.13804776155057        1.74858889071975
H           -6.85796982727022       -2.32007665341058        1.26131477112826
H           -6.96281814145767       -0.07061100648090        2.58524329710354
H           -8.55759178335009        0.39825110412903        4.38011828372132
H          -10.91906637330226        0.92154210228627        3.84389869593910
H          -11.63360084514962        1.00249198895129        1.46425401049310
H          -10.81784900144026        0.71963232785432       -3.01299625066525
H           -9.34637310368784        0.27057407732795       -4.96612594281262
H           -6.99494918900059       -0.40911380564166       -4.57463894904840
H           -6.13247696295378       -0.60078115761833       -2.29731418127672
H           -5.23833921057246        1.13310882730207       -0.69529280014056
H           -0.48454405363244        0.86926602921462       -2.35841755333758
H            1.74983944901240        1.86559714775825       -2.68810546627510
H            3.13490572021393       -0.00700908471126       -1.72841754205189
H            4.88226162006808       -1.50074408204410       -2.58668436759848
H            7.24634710970539       -0.77326673792814       -2.58633406868957
H            7.82445778514137        1.46763943851021       -1.67954738910412
H            6.74722592723696        5.44267867870623        0.29253156972809
H            5.10910395956246        7.08973133739335        1.17543426143562
H            2.69049902704926        6.55933650640829        1.08459972195323
H            1.93538422738821        4.41325535079783        0.17310327172069
H            2.24499948845429        2.16071280898429        1.54098444413935
H            0.03853008375308        1.12277565977465        1.87206511850433
H            0.23021953793736       -1.87714170900756       -1.42079098567889
H            2.64838802825142       -2.32518858592724       -1.35336504961480

          :  Hamiltonian                  GFN2-xTB          :
         :: gradient norm              0.000068356688 Eh/a0 ::
         :: HOMO-LUMO gap              1.097598999205 eV    ::
         :: SCC energy              -167.580139333180 Eh    ::
         :: -> dispersion             -0.163067765584 Eh    ::
         :: -> Gsolv                  -0.058724421390 Eh    ::
         :: repulsion energy           2.846617295515 Eh    ::

    * Orbital Energies and Occupations

         #    Occupation            Energy/Eh            Energy/eV
      -------------------------------------------------------------
         1        2.0000           -0.7332901             -19.9538
       ...           ...                  ...                  ...
       139        2.0000           -0.4175263             -11.3615
       140        2.0000           -0.4166257             -11.3370
       141        2.0000           -0.4153809             -11.3031
       142        2.0000           -0.4150586             -11.2943
       143        2.0000           -0.4118078             -11.2059
       144        2.0000           -0.4080100             -11.1025
       145        2.0000           -0.3944691             -10.7341
       146        2.0000           -0.3927666             -10.6877
       147        2.0000           -0.3904068             -10.6235
       148        2.0000           -0.3659866              -9.9590
       149        2.0000           -0.3487084              -9.4888
       150        2.0000           -0.3449746              -9.3872
       151        2.0000           -0.3447992              -9.3825 (HOMO)
       152                         -0.3044632              -8.2849 (LUMO)
       153                         -0.2678466              -7.2885
       154                         -0.2478618              -6.7447
       155                         -0.2447990              -6.6613
       156                         -0.2431734              -6.6171
       157                         -0.2423076              -6.5935
       158                         -0.2409601              -6.5569
       159                         -0.2402027              -6.5362
       160                         -0.2372908              -6.4570
       161                         -0.2338692              -6.3639
       162                         -0.2319664              -6.3121
       ...                                ...                  ...
       291                          0.6760538              18.3964
      -------------------------------------------------------------
                  HL-Gap            0.0403360 Eh            1.0976 eV

     #   Z          covCN         q      C6AA      α(0)
     1   6 C        2.919    -0.040    28.999     8.831
     2   6 C        2.919    -0.039    28.975     8.827
     3   6 C        2.925    -0.064    29.598     8.922
     4   6 C        2.923     0.042    27.048     8.529
     5   6 C        2.884     0.123    25.290     8.245
     6   6 C        2.920    -0.058    29.443     8.898
     7   8 O        1.708    -0.269    18.467     5.802
     8   6 C        2.883     0.123    25.299     8.246
     9   6 C        2.919    -0.058    29.436     8.897
    10   6 C        2.919    -0.041    29.021     8.834
    11   6 C        2.919    -0.039    28.977     8.827
    12   6 C        2.924    -0.060    29.491     8.906
    13   6 C        2.923     0.043    27.039     8.527
    14   7 N        2.750    -0.075    22.699     7.076
    15   6 C        2.922     0.066    26.523     8.446
    16   6 C        2.921    -0.040    28.989     8.829
    17   6 C        2.922    -0.027    28.687     8.783
    18   6 C        2.979     0.000    28.014     8.682
    19   6 C        2.962     0.090    26.005     8.364
    20   7 N        1.843    -0.242    27.162     7.724
    21   6 C        2.972     0.076    26.292     8.411
    22   6 C        2.916    -0.041    29.020     8.834
    23   6 C        2.919    -0.038    28.944     8.822
    24   6 C        2.918     0.069    26.466     8.436
    25   7 N        2.751    -0.069    22.580     7.057
    26   6 C        2.922     0.042    27.069     8.532
    27   6 C        2.924    -0.059    29.477     8.903
    28   6 C        2.919    -0.038    28.956     8.824
    29   6 C        2.919    -0.040    28.983     8.828
    30   6 C        2.919    -0.057    29.419     8.895
    31   6 C        2.883     0.123    25.290     8.244
    32   8 O        1.708    -0.268    18.441     5.798
    33   6 C        2.883     0.123    25.291     8.245
    34   6 C        2.920    -0.057    29.415     8.894
    35   6 C        2.919    -0.040    28.987     8.829
    36   6 C        2.919    -0.038    28.950     8.823
    37   6 C        2.924    -0.060    29.487     8.905
    38   6 C        2.920     0.042    27.070     8.532
    39   6 C        2.920    -0.056    29.400     8.892
    40   6 C        2.970     0.079    26.229     8.401
    41   7 N        1.844    -0.245    27.246     7.736
    42   6 C        2.961     0.092    25.946     8.355
    43   6 C        2.979     0.000    28.013     8.682
    44   6 C        2.922    -0.027    28.683     8.783
    45   6 C        2.921    -0.040    28.986     8.829
    46   6 C        2.921     0.066    26.521     8.445
    47   7 N        2.751    -0.075    22.696     7.076
    48   6 C        2.923     0.042    27.049     8.529
    49   6 C        2.925    -0.064    29.599     8.922
    50   6 C        2.919    -0.039    28.972     8.827
    51   6 C        2.919    -0.040    28.997     8.831
    52   6 C        2.920    -0.058    29.443     8.898
    53   6 C        2.884     0.123    25.291     8.245
    54   8 O        1.708    -0.270    18.468     5.802
    55   6 C        2.883     0.123    25.300     8.246
    56   6 C        2.919    -0.058    29.436     8.897
    57   6 C        2.919    -0.041    29.022     8.834
    58   6 C        2.919    -0.039    28.976     8.827
    59   6 C        2.924    -0.060    29.492     8.906
    60   6 C        2.923     0.043    27.040     8.527
    61   6 C        2.921    -0.040    28.985     8.829
    62   6 C        2.926    -0.031    28.780     8.798
    63   6 C        2.926    -0.032    28.786     8.799
    64   6 C        2.921    -0.040    28.989     8.829
    65   1 H        0.926     0.040     2.449     2.447
    66   1 H        0.926     0.033     2.540     2.492
    67   1 H        0.926     0.039     2.466     2.456
    68   1 H        0.926     0.048     2.345     2.395
    69   1 H        0.926     0.048     2.346     2.395
    70   1 H        0.926     0.043     2.414     2.429
    71   1 H        0.926     0.042     2.422     2.433
    72   1 H        0.926     0.040     2.453     2.449
    73   1 H        0.926     0.054     2.274     2.358
    74   1 H        0.926     0.048     2.351     2.398
    75   1 H        0.926     0.065     2.142     2.289
    76   1 H        0.926     0.059     2.213     2.326
    77   1 H        0.926     0.038     2.476     2.461
    78   1 H        0.926     0.043     2.404     2.424
    79   1 H        0.926     0.045     2.386     2.415
    80   1 H        0.926     0.050     2.314     2.379
    81   1 H        0.926     0.051     2.310     2.377
    82   1 H        0.926     0.045     2.385     2.415
    83   1 H        0.926     0.043     2.410     2.428
    84   1 H        0.926     0.037     2.486     2.466
    85   1 H        0.926     0.062     2.176     2.307
    86   1 H        0.926     0.048     2.351     2.398
    87   1 H        0.926     0.054     2.273     2.357
    88   1 H        0.926     0.038     2.469     2.457
    89   1 H        0.926     0.033     2.543     2.494
    90   1 H        0.926     0.040     2.447     2.446
    91   1 H        0.926     0.048     2.345     2.395
    92   1 H        0.926     0.048     2.345     2.395
    93   1 H        0.926     0.043     2.413     2.429
    94   1 H        0.926     0.042     2.422     2.434
    95   1 H        0.926     0.039     2.455     2.450
    96   1 H        0.926     0.051     2.308     2.376
    97   1 H        0.926     0.038     2.478     2.461
    98   1 H        0.926     0.038     2.480     2.463
    99   1 H        0.926     0.051     2.313     2.378

molecular dipole:
                 x           y           z       tot (Debye)
 q only:       -0.867      -0.348       0.211
   full:       -0.857      -0.375       0.220       2.443

 projected vibrational frequencies (cm⁻¹)
eigval :       -0.00    -0.00    -0.00     0.00     0.00     0.00
eigval :        9.53    13.92    15.81    16.69    17.66    26.41
eigval :       31.64    37.42    42.12    44.50    48.84    56.22
eigval :       63.25    65.63    68.00    73.03    83.29    95.69
eigval :      105.73   109.75   116.02   119.70   125.91   135.06
eigval :      148.90   169.88   189.48   191.64   197.24   206.29
eigval :      219.81   242.58   247.45   250.57   252.03   254.86
eigval :      259.10   268.35   274.31   278.08   296.72   310.91
eigval :      324.38   350.24   361.21   368.85   374.64   377.07
eigval :      384.14   385.26   392.19   394.73   397.30   407.03
eigval :      414.27   419.79   428.26   428.73   428.92   430.90
eigval :      432.01   443.55   447.62   449.98   450.66   462.72
eigval :      494.68   501.57   509.59   510.07   510.70   517.38
eigval :      523.14   523.53   523.84   531.67   549.77   552.71
eigval :      556.12   576.33   576.83   583.79   589.86   595.51
eigval :      600.75   608.13   613.57   620.20   627.41   632.30
eigval :      655.22   658.23   658.92   660.72   661.05   662.01
eigval :      662.25   670.71   682.39   686.91   700.31   708.56
eigval :      715.07   733.34   768.63   774.26   778.44   779.57
eigval :      779.80   780.12   781.37   787.93   798.62   800.51
eigval :      816.60   818.22   824.80   836.92   853.28   853.54
eigval :      853.62   854.09   859.45   861.37   866.05   867.24
eigval :      867.97   868.67   874.42   875.41   883.25   893.72
eigval :      896.67   898.52   899.32   899.69   901.22   905.21
eigval :      910.18   913.22   913.50   914.89   915.01   915.74
eigval :      916.15   916.63   917.50   918.78   923.68   924.81
eigval :      926.30   932.72   934.15   972.82   986.73  1008.63
eigval :     1031.72  1087.52  1088.34  1089.39  1090.14  1091.84
eigval :     1093.30  1094.10  1106.20  1106.29  1106.50  1111.32
eigval :     1117.95  1119.04  1126.76  1130.55  1142.91  1162.83
eigval :     1169.26  1169.67  1172.72  1173.94  1174.62  1179.82
eigval :     1180.40  1181.77  1187.56  1189.36  1192.42  1198.03
eigval :     1199.86  1200.35  1212.01  1213.27  1219.89  1227.01
eigval :     1242.10  1242.45  1242.52  1255.21  1258.91  1259.45
eigval :     1261.16  1263.35  1264.15  1271.00  1289.88  1301.29
eigval :     1303.56  1304.97  1306.00  1306.67  1307.71  1314.56
eigval :     1323.47  1331.67  1334.76  1335.42  1348.26  1354.06
eigval :     1354.96  1393.05  1396.80  1397.76  1399.21  1419.69
eigval :     1422.54  1422.99  1435.60  1441.34  1442.12  1442.87
eigval :     1469.50  1478.80  1480.89  1482.55  1483.37  1491.90
eigval :     1499.69  1504.24  1504.59  1530.75  1542.79  1558.13
eigval :     1558.52  1566.74  1567.31  1567.43  1578.38  1580.04
eigval :     1580.21  1586.94  1587.63  1587.73  1592.22  1592.37
eigval :     1595.53  1601.64  1603.54  1603.71  3078.35  3078.74
eigval :     3079.48  3080.33  3084.67  3085.27  3086.42  3087.06
eigval :     3088.45  3088.93  3090.51  3095.25  3095.32  3095.43
eigval :     3095.76  3095.99  3096.39  3096.83  3097.79  3100.38
eigval :     3100.90  3101.41  3101.93  3102.23  3103.46  3104.24
eigval :     3105.08  3107.83  3108.26  3108.65  3109.56  3109.62
eigval :     3110.58  3114.53  3115.42

   temp. (K)  partition function   enthalpy   heat capacity  entropy
                                   cal/mol     cal/K/mol   cal/K/mol   J/K/mol
 298.15  VIB  0.448E+23            29155.160    185.898    180.485
         ROT  0.195E+09              888.752      2.981     40.920
         INT  0.877E+31            30043.913    188.879    221.404
         TR   0.230E+29             1481.254      4.968     45.991
         TOT                       31525.1665   193.8469   267.3947  1118.7795

       T/K    H(0)-H(T)+PV         H(T)/Eh          T*S/Eh         G(T)/Eh
   ------------------------------------------------------------------------
    298.15    0.502386E-01    0.790661E+00    0.127048E+00    0.663613E+00
   ------------------------------------------------------------------------

         :::::::::::::::::::::::::::::::::::::::::::::::::::::
         ::                  THERMODYNAMIC                  ::
         :::::::::::::::::::::::::::::::::::::::::::::::::::::
         :: total free energy        -164.069908631869 Eh   ::
         ::.................................................::
         :: total energy             -164.733522042743 Eh   ::
         :: zero point energy           0.740422723970 Eh   ::
         :: G(RRHO) w/o ZPVE           -0.076809313096 Eh   ::
         :: G(RRHO) contrib.            0.663613410874 Eh   ::
         :::::::::::::::::::::::::::::::::::::::::::::::::::::

           -------------------------------------------------
          | TOTAL ENERGY             -164.733522042743 Eh   |
          | TOTAL ENTHALPY           -163.942860768153 Eh   |
          | TOTAL FREE ENERGY        -164.069908631869 Eh   |
          | GRADIENT NORM               0.000068357383 Eh/α |
          | HOMO-LUMO GAP               1.097598360212 eV   |
           -------------------------------------------------

 * finished run on 2025/08/30 at 13:15:05.330
