   * xtb version 6.7.1 (edcfbbe) compiled by 'albert@albert-system' on 2024-07-22

   ID    Z sym.   atoms
    1    6 C      1-4, 6-17, 19-32
    2    7 N      5, 18
    3    1 H      33-54

          program call               : xtb data2507/toluene/CzTPA/CzTPA_toluene_S0_finalOpt.xtbopt.xyz --gfn 2 --uhf 2 --gbsa toluene --ohess vtight --parallel 40 --molden --ceasefiles --namespace data2507/toluene/CzTPA/CzTPA_toluene_T1_preOpt
      * Solvation model:               GBSA
        Solvent                        toluene
        Solvent mass                       9.2140E+01 g/mol
          :  Hamiltonian                  GFN2-xTB          :
 * total energy  :   -81.2544735 Eh     change        0.5197549E-08 Eh
 * total energy  :   -81.2570549 Eh     change       -0.2581440E-02 Eh
 * total energy  :   -81.2580460 Eh     change       -0.9910893E-03 Eh
 * total energy  :   -81.2583011 Eh     change       -0.2550455E-03 Eh
 * total energy  :   -81.2586252 Eh     change       -0.3241211E-03 Eh
 * total energy  :   -81.2588024 Eh     change       -0.1772530E-03 Eh
 * total energy  :   -81.2590066 Eh     change       -0.2041397E-03 Eh
 * total energy  :   -81.2591329 Eh     change       -0.1263280E-03 Eh
 * total energy  :   -81.2591956 Eh     change       -0.6269689E-04 Eh
 * total energy  :   -81.2592237 Eh     change       -0.2813144E-04 Eh
 * total energy  :   -81.2592812 Eh     change       -0.1846719E-06 Eh
 * total energy  :   -81.2592814 Eh     change       -0.1842288E-06 Eh
 * total energy  :   -81.2592815 Eh     change       -0.1579876E-06 Eh
 * total energy  :   -81.2592817 Eh     change       -0.1506662E-06 Eh
 * total energy  :   -81.2592819 Eh     change       -0.1695102E-06 Eh
 * total energy  :   -81.2592821 Eh     change       -0.2022558E-06 Eh
 * total energy  :   -81.2592822 Eh     change       -0.1918221E-06 Eh
 * total energy  :   -81.2592824 Eh     change       -0.1398231E-06 Eh
 * total energy  :   -81.2592825 Eh     change       -0.9220928E-07 Eh
   *** GEOMETRY OPTIMIZATION CONVERGED AFTER 37 ITERATIONS ***

 final structure:
================
54
 xtb: 6.7.1 (edcfbbe)
C            5.41060531554055       -1.18560594289825       -0.22337999442929
C            4.87772120938023       -0.39668191045363        0.78941620298634
C            3.59412586424822        0.09502934209617        0.69135811313474
C            2.80593352567907       -0.20192142243864       -0.42876596407017
N            1.50263754185742        0.28043707074181       -0.53381052832405
C            0.54736010963780       -0.46609741738141       -1.23501228400902
C            0.47218716053259       -1.85365666515827       -1.08893470465523
C           -0.48683764945862       -2.56910934839247       -1.77436427034678
C           -1.38454619791318       -1.91941351116034       -2.61385755964232
C           -1.30939316574230       -0.54306332233843       -2.76615776089684
C           -0.35308727794665        0.18430333569419       -2.08901868549386
C            1.16393293000515        1.52094162613886       -0.02261743646402
C            2.07163841610067        2.59025404988025       -0.09751384888167
C            1.70965780374085        3.86620165431011        0.23984311179894
C            0.38861442131565        4.13301017917006        0.68957553571258
C           -0.52026182774732        3.11342684515546        0.78214822648536
C           -0.17815728170885        1.78915036009792        0.47085908275043
N           -1.08898180241394        0.77938737790462        0.70351683488526
C           -2.42006346582266        0.79232759081006        0.29577855757553
C           -3.10378562232804        1.74284228894569       -0.43361310353318
C           -4.43199978038973        1.48354116456075       -0.77202185095377
C           -5.04752338324195        0.29483043319006       -0.38746372289834
C           -4.36061793356869       -0.67755296003254        0.31566502482564
C           -3.02614287710841       -0.44467225339888        0.65797659228734
C           -2.03118703689306       -1.21801023869012        1.31348024472812
C           -2.02465255593139       -2.47941909809312        1.91596054535347
C           -0.87645609179052       -2.90958504636008        2.54750809367411
C            0.26622640901937       -2.10544927432068        2.61009580865449
C            0.28939014739472       -0.85520476916251        2.00438982629224
C           -0.84136100446620       -0.42969470674429        1.33360132983016
C            3.35450272290575       -0.98848396098535       -1.45187815896019
C            4.64021803171491       -1.47354996770462       -1.34247953272529
H            6.41661958636939       -1.56713259928784       -0.14189606378662
H            5.46837961500434       -0.17044885381944        1.66474080675917
H            3.18550502344407        0.70180690166684        1.48601323619503
H            1.15462054717640       -2.35388180435476       -0.41851710828523
H           -0.54319551973777       -3.63973587165823       -1.64761400993499
H           -2.13666660413313       -2.48302162469595       -3.14379703405715
H           -1.99751900276575       -0.03383550877321       -3.42438632309902
H           -0.27915808678311        1.25417027518028       -2.22033212722951
H            3.06410902957467        2.39472156856853       -0.47705312193983
H            2.41661255849208        4.67544343792609        0.14978215981900
H            0.11503134574214        5.13587687690001        0.97726806310198
H           -1.50975793980326        3.30419317036888        1.17080221940089
H           -2.63319612040725        2.66092453125977       -0.75120575334635
H           -4.98550706802399        2.21489630718832       -1.34104602740202
H           -6.08105816137109        0.12722382671425       -0.65675776144468
H           -4.83867767391241       -1.60609011950980        0.58964332661986
H           -2.90964388618670       -3.09763936421002        1.89110323277728
H           -0.85791328562450       -3.88221834684334        3.01904459395324
H            1.13948504201404       -2.45604484500655        3.13901011374545
H            1.16732223698309       -0.23318447613581        2.07759191986352
H            2.76594529764466       -1.19675691447789       -2.33271757728133
H            5.05146304756940       -2.07420978556906       -2.14025382069454

          :  Hamiltonian                  GFN2-xTB          :
         :: gradient norm              0.000037359907 Eh/a0 ::
         :: HOMO-LUMO gap              0.174353509354 eV    ::
         :: SCC energy               -82.777826518188 Eh    ::
         :: -> dispersion             -0.083526399550 Eh    ::
         :: -> Gsolv                  -0.029696050826 Eh    ::
         :: repulsion energy           1.518544037125 Eh    ::

    * Orbital Energies and Occupations

         #    Occupation            Energy/Eh            Energy/eV
      -------------------------------------------------------------
         1        2.0000           -0.6802427             -18.5103
       ...           ...                  ...                  ...
        65        2.0000           -0.4164551             -11.3323
        66        2.0000           -0.4154385             -11.3047
        67        2.0000           -0.4143555             -11.2752
        68        2.0000           -0.4136967             -11.2573
        69        2.0000           -0.4121820             -11.2160
        70        2.0000           -0.4108106             -11.1787
        71        2.0000           -0.4096092             -11.1460
        72        2.0000           -0.4034555             -10.9786
        73        2.0000           -0.3989636             -10.8564
        74        1.9998           -0.3683010             -10.0220
        75        1.9975           -0.3661262              -9.9628
        76        1.0027           -0.3548050              -9.6547
        77        0.9597           -0.2458337              -6.6895 (HOMO)
        78        0.0273           -0.2394262              -6.5151 (LUMO)
        79        0.0130           -0.2387054              -6.4955
        80        0.0000           -0.2325414              -6.3278
        81        0.0000           -0.2276542              -6.1948
        82                         -0.2259487              -6.1484
        83                         -0.2161843              -5.8827
        84                         -0.2026416              -5.5142
        85                         -0.1868810              -5.0853
        86                         -0.1799403              -4.8964
        87                         -0.1098651              -2.9896
        88                         -0.1058438              -2.8802
       ...                                ...                  ...
       150                          0.7506340              20.4258
      -------------------------------------------------------------
                  HL-Gap            0.0064075 Eh            0.1744 eV

     #   Z          covCN         q      C6AA      α(0)
     1   6 C        2.918    -0.034    28.849     8.808
     2   6 C        2.917    -0.028    28.708     8.786
     3   6 C        2.920    -0.039    28.980     8.828
     4   6 C        2.926     0.059    26.680     8.471
     5   7 N        2.750    -0.018    21.606     6.904
     6   6 C        2.929     0.058    26.701     8.474
     7   6 C        2.919    -0.038    28.939     8.822
     8   6 C        2.918    -0.029    28.730     8.790
     9   6 C        2.919    -0.034    28.849     8.808
    10   6 C        2.918    -0.026    28.659     8.779
    11   6 C        2.920    -0.044    29.091     8.845
    12   6 C        2.919     0.031    27.311     8.570
    13   6 C        2.912    -0.045    29.110     8.847
    14   6 C        2.912    -0.048    29.182     8.858
    15   6 C        2.912    -0.044    29.103     8.846
    16   6 C        2.913    -0.044    29.081     8.843
    17   6 C        2.904     0.032    27.294     8.566
    18   7 N        2.793    -0.016    21.557     6.896
    19   6 C        3.062     0.038    27.083     8.534
    20   6 C        2.908    -0.047    29.174     8.857
    21   6 C        2.920    -0.054    29.330     8.881
    22   6 C        2.916    -0.035    28.880     8.812
    23   6 C        2.910    -0.044    29.083     8.843
    24   6 C        3.058    -0.026    28.588     8.768
    25   6 C        3.058    -0.026    28.595     8.769
    26   6 C        2.909    -0.044    29.083     8.843
    27   6 C        2.917    -0.035    28.877     8.812
    28   6 C        2.920    -0.055    29.371     8.887
    29   6 C        2.908    -0.047    29.172     8.856
    30   6 C        3.061     0.038    27.084     8.534
    31   6 C        2.920    -0.043    29.061     8.840
    32   6 C        2.917    -0.027    28.672     8.781
    33   1 H        0.926     0.040     2.443     2.444
    34   1 H        0.926     0.042     2.429     2.437
    35   1 H        0.926     0.039     2.463     2.454
    36   1 H        0.926     0.039     2.467     2.456
    37   1 H        0.926     0.039     2.463     2.454
    38   1 H        0.926     0.038     2.480     2.463
    39   1 H        0.926     0.038     2.474     2.460
    40   1 H        0.926     0.035     2.521     2.483
    41   1 H        0.926     0.036     2.497     2.471
    42   1 H        0.926     0.033     2.542     2.493
    43   1 H        0.926     0.033     2.544     2.494
    44   1 H        0.926     0.037     2.482     2.464
    45   1 H        0.926     0.028     2.620     2.531
    46   1 H        0.926     0.022     2.704     2.572
    47   1 H        0.926     0.024     2.678     2.559
    48   1 H        0.926     0.022     2.696     2.568
    49   1 H        0.926     0.022     2.703     2.571
    50   1 H        0.926     0.023     2.684     2.562
    51   1 H        0.926     0.020     2.730     2.584
    52   1 H        0.926     0.023     2.690     2.565
    53   1 H        0.926     0.040     2.452     2.449
    54   1 H        0.926     0.042     2.426     2.436

molecular dipole:
                 x           y           z       tot (Debye)
 q only:        1.356       0.011      -0.615
   full:        1.344       0.063      -0.598       3.743

 projected vibrational frequencies (cm⁻¹)
eigval :       -0.00    -0.00    -0.00     0.00     0.00     0.00
eigval :       17.81    33.81    35.60    58.32    68.13    76.11
eigval :       80.35    88.53   106.19   107.59   139.67   159.57
eigval :      171.69   185.00   228.59   242.80   252.83   265.56
eigval :      269.06   309.26   327.19   363.47   370.94   379.38
eigval :      386.16   393.25   406.59   410.59   434.10   436.70
eigval :      440.80   466.97   503.66   509.74   516.76   540.88
eigval :      561.85   573.45   579.07   585.33   588.72   593.66
eigval :      604.65   631.86   644.52   649.28   653.35   676.81
eigval :      686.47   711.79   734.60   741.69   742.68   745.27
eigval :      747.97   751.57   824.01   832.11   834.81   855.66
eigval :      860.73   865.47   871.53   877.52   879.06   884.99
eigval :      887.74   889.98   896.92   898.73   899.77   903.01
eigval :      917.41   920.72   922.08   924.24   926.79   965.43
eigval :      973.91   997.73  1031.95  1053.13  1060.70  1070.47
eigval :     1072.31  1077.11  1101.40  1119.48  1122.35  1122.94
eigval :     1134.13  1159.16  1166.04  1169.13  1172.19  1173.34
eigval :     1174.78  1179.04  1188.87  1204.07  1208.68  1230.77
eigval :     1253.24  1265.89  1271.87  1280.50  1285.62  1299.10
eigval :     1301.73  1310.24  1323.47  1326.52  1333.43  1336.04
eigval :     1377.50  1386.37  1414.74  1420.48  1424.38  1429.01
eigval :     1434.87  1436.31  1441.93  1450.29  1465.37  1470.64
eigval :     1479.36  1488.10  1491.22  1504.55  1512.25  1545.88
eigval :     1552.70  1574.45  3064.14  3065.12  3076.13  3076.58
eigval :     3077.97  3078.81  3078.98  3079.05  3081.72  3082.23
eigval :     3083.54  3086.42  3086.80  3086.84  3091.57  3091.96
eigval :     3093.31  3094.13  3100.04  3101.07  3103.01  3104.15

   temp. (K)  partition function   enthalpy   heat capacity  entropy
                                   cal/mol     cal/K/mol   cal/K/mol   J/K/mol
 298.15  VIB  0.423E+10            14187.827     95.977     85.752
         ROT  0.141E+08              888.752      2.981     35.696
         INT  0.597E+17            15076.579     98.958    121.448
         TR   0.805E+28             1481.254      4.968     43.908
         TOT                       16557.8331   103.9265   165.3558   691.8487

       T/K    H(0)-H(T)+PV         H(T)/Eh          T*S/Eh         G(T)/Eh
   ------------------------------------------------------------------------
    298.15    0.263866E-01    0.441611E+00    0.785659E-01    0.363045E+00
   ------------------------------------------------------------------------

         :::::::::::::::::::::::::::::::::::::::::::::::::::::
         ::                  THERMODYNAMIC                  ::
         :::::::::::::::::::::::::::::::::::::::::::::::::::::
         :: total free energy         -80.896237645353 Eh   ::
         ::.................................................::
         :: total energy              -81.259282479016 Eh   ::
         :: zero point energy           0.415224129842 Eh   ::
         :: G(RRHO) w/o ZPVE           -0.052179296180 Eh   ::
         :: G(RRHO) contrib.            0.363044833662 Eh   ::
         :::::::::::::::::::::::::::::::::::::::::::::::::::::

           -------------------------------------------------
          | TOTAL ENERGY              -81.259282479016 Eh   |
          | TOTAL ENTHALPY            -80.817671762621 Eh   |
          | TOTAL FREE ENERGY         -80.896237645353 Eh   |
          | GRADIENT NORM               0.000036257646 Eh/α |
          | HOMO-LUMO GAP               0.174356707363 eV   |
           -------------------------------------------------

 * finished run on 2025/08/26 at 03:50:11.402
