   * xtb version 6.7.1 (edcfbbe) compiled by 'albert@albert-system' on 2024-07-22

   ID    Z sym.   atoms
    1    6 C      1-4, 6-17, 19-32
    2    7 N      5, 18
    3    1 H      33-54

          program call               : xtb data2507/toluene/CzTPA/CzTPA_toluene_S0_crest.xyz --gfn 2 --gbsa toluene --ohess vtight --parallel 40 --molden --ceasefiles --namespace data2507/toluene/CzTPA/CzTPA_toluene_S0_finalOpt
      * Solvation model:               GBSA
        Solvent                        toluene
        Solvent mass                       9.2140E+01 g/mol
          :  Hamiltonian                  GFN2-xTB          :
 * total energy  :   -81.3709062 Eh     change       -0.9122942E-09 Eh
 * total energy  :   -81.3709474 Eh     change       -0.4120075E-04 Eh
 * total energy  :   -81.3709899 Eh     change       -0.4247865E-04 Eh
 * total energy  :   -81.3710145 Eh     change       -0.2468051E-04 Eh
 * total energy  :   -81.3710465 Eh     change       -0.3200098E-04 Eh
 * total energy  :   -81.3710656 Eh     change       -0.1910670E-04 Eh
 * total energy  :   -81.3710774 Eh     change       -0.1177504E-04 Eh
 * total energy  :   -81.3710862 Eh     change       -0.8830348E-05 Eh
 * total energy  :   -81.3710946 Eh     change       -0.8401195E-05 Eh
 * total energy  :   -81.3711034 Eh     change       -0.8722909E-05 Eh
 * total energy  :   -81.3711509 Eh     change       -0.4923680E-06 Eh
 * total energy  :   -81.3711515 Eh     change       -0.5732710E-06 Eh
 * total energy  :   -81.3711521 Eh     change       -0.6361737E-06 Eh
 * total energy  :   -81.3711526 Eh     change       -0.5199232E-06 Eh
 * total energy  :   -81.3711529 Eh     change       -0.3053187E-06 Eh
 * total energy  :   -81.3711531 Eh     change       -0.1882315E-06 Eh
 * total energy  :   -81.3711533 Eh     change       -0.1643009E-06 Eh
 * total energy  :   -81.3711534 Eh     change       -0.1477354E-06 Eh
 * total energy  :   -81.3711535 Eh     change       -0.7214068E-07 Eh
   *** GEOMETRY OPTIMIZATION CONVERGED AFTER 35 ITERATIONS ***

 final structure:
================
54
 xtb: 6.7.1 (edcfbbe)
C            5.36811398893237       -1.16222297268232       -0.22726815330772
C            4.83880504185746       -0.34112058756822        0.75480558802246
C            3.54911107300739        0.14160517572653        0.64538117297411
C            2.76133218409075       -0.18819094180804       -0.45853051856296
N            1.45228036205634        0.29078239469203       -0.57055187198950
C            0.48486720650814       -0.45055451967407       -1.26850354616676
C            0.39181288459989       -1.83120333469255       -1.10158531730870
C           -0.57147620027786       -2.54819506070963       -1.78312402940276
C           -1.45605506224454       -1.90423016493255       -2.63358166346462
C           -1.36562278068181       -0.53351856936555       -2.80433118191547
C           -0.40022986867697        0.19134396269296       -2.13180934500948
C            1.11770401236466        1.55690110557644       -0.07737305355677
C            2.00426612248365        2.62498697514711       -0.22337294941293
C            1.68530190385205        3.88718478207146        0.23583774165745
C            0.46351335502415        4.11664199992352        0.84897138260071
C           -0.42606413029481        3.07040865241046        1.00710274839525
C           -0.11397330971061        1.79190851797785        0.55974164608076
N           -1.04947931429056        0.75828871167371        0.75037283605789
C           -2.33502825369173        0.74345626329125        0.24999833936654
C           -2.99760262720164        1.69873892526811       -0.50679627049892
C           -4.29399307359397        1.42559721813333       -0.89859741486234
C           -4.92113354347649        0.23004499138671       -0.55307866931940
C           -4.26266856057461       -0.72809762587202        0.19177384223271
C           -2.95869483398615       -0.47635966668449        0.59819809370803
C           -1.99496123742081       -1.22461574927418        1.35501178620562
C           -2.01762937951566       -2.46686255444777        1.97525623782384
C           -0.89223465135059       -2.88884756394637        2.65546369704178
C            0.24091870362421       -2.08198110807183        2.73702894712854
C            0.28567602123784       -0.84087317879649        2.13177396833113
C           -0.83182111024841       -0.42398857085338        1.42436049415274
C            3.30643290146073       -1.00338606419250       -1.45127310167989
C            4.59469947728224       -1.48733699579227       -1.32981888654845
H            6.37480925325818       -1.54136876467432       -0.13614023426755
H            5.43202430921688       -0.07807019591857        1.61867367463218
H            3.14956380762223        0.78337388191102        1.41735322156975
H            1.07046616094156       -2.33133032522719       -0.42660693300956
H           -0.63898692562759       -3.61654531903055       -1.63894792840751
H           -2.21272602662428       -2.46747220400106       -3.15846866845470
H           -2.04851078840964       -0.02339942109308       -3.46754279590135
H           -0.32655585876194        1.26062904105574       -2.27096972128743
H            2.94801975725115        2.45032695126732       -0.71896363866540
H            2.38777466643517        4.69622404160206        0.10401599665151
H            0.20747617163610        5.10174151142779        1.20734790676157
H           -1.37525573269502        3.22694469789023        1.49859827976002
H           -2.51529556885778        2.62381715627914       -0.78566137499967
H           -4.83287038456643        2.15361571302380       -1.48771356540090
H           -5.93650871857676        0.05385783083688       -0.87724579826605
H           -4.74699066392201       -1.65734105576952        0.45279601480157
H           -2.90057001804821       -3.08673482040486        1.92601553817875
H           -0.88875319292247       -3.85391842440252        3.14107384464813
H            1.10214997630720       -2.43236118983695        3.28769121532014
H            1.16176237611312       -0.21687926310420        2.21232071268814
H            2.71507861891706       -1.25125049389131       -2.32049230617612
H            5.00024904226996       -2.11657669934006       -2.10890375534712

          :  Hamiltonian                  GFN2-xTB          :
         :: gradient norm              0.000021121519 Eh/a0 ::
         :: HOMO-LUMO gap              2.954245844514 eV    ::
         :: SCC energy               -82.912451467935 Eh    ::
         :: -> dispersion             -0.083803080974 Eh    ::
         :: -> Gsolv                  -0.028995695402 Eh    ::
         :: repulsion energy           1.541297954205 Eh    ::

    * Orbital Energies and Occupations

         #    Occupation            Energy/Eh            Energy/eV
      -------------------------------------------------------------
         1        2.0000           -0.6752082             -18.3734
       ...           ...                  ...                  ...
        64        2.0000           -0.4247374             -11.5577
        65        2.0000           -0.4212575             -11.4630
        66        2.0000           -0.4185093             -11.3882
        67        2.0000           -0.4168135             -11.3421
        68        2.0000           -0.4138256             -11.2608
        69        2.0000           -0.4103634             -11.1666
        70        2.0000           -0.4096725             -11.1478
        71        2.0000           -0.4060034             -11.0479
        72        2.0000           -0.4053212             -11.0294
        73        2.0000           -0.4010810             -10.9140
        74        2.0000           -0.3768632             -10.2550
        75        2.0000           -0.3627298              -9.8704
        76        2.0000           -0.3534876              -9.6189 (HOMO)
        77                         -0.2449211              -6.6646 (LUMO)
        78                         -0.2377733              -6.4701
        79                         -0.2343939              -6.3782
        80                         -0.2310151              -6.2862
        81                         -0.2259797              -6.1492
        82                         -0.2230326              -6.0690
        83                         -0.2189975              -5.9592
        84                         -0.1982364              -5.3943
        85                         -0.1900289              -5.1709
        86                         -0.1848161              -5.0291
        87                         -0.1075742              -2.9272
       ...                                ...                  ...
       150                          0.7479503              20.3528
      -------------------------------------------------------------
                  HL-Gap            0.1085665 Eh            2.9542 eV

     #   Z          covCN         q      C6AA      α(0)
     1   6 C        2.918    -0.040    28.998     8.831
     2   6 C        2.919    -0.030    28.761     8.794
     3   6 C        2.923    -0.049    29.209     8.863
     4   6 C        2.921     0.066    26.530     8.447
     5   7 N        2.751    -0.079    22.769     7.087
     6   6 C        2.925     0.068    26.484     8.439
     7   6 C        2.922    -0.045    29.108     8.848
     8   6 C        2.920    -0.029    28.731     8.790
     9   6 C        2.919    -0.037    28.921     8.819
    10   6 C        2.920    -0.029    28.735     8.790
    11   6 C        2.923    -0.047    29.159     8.855
    12   6 C        2.922     0.056    26.738     8.480
    13   6 C        2.923    -0.048    29.200     8.862
    14   6 C        2.918    -0.033    28.823     8.804
    15   6 C        2.918    -0.038    28.943     8.822
    16   6 C        2.923    -0.043    29.062     8.841
    17   6 C        2.912     0.046    26.967     8.515
    18   7 N        2.803    -0.052    22.238     7.004
    19   6 C        3.080     0.049    26.816     8.490
    20   6 C        2.910    -0.052    29.285     8.874
    21   6 C        2.924    -0.035    28.880     8.813
    22   6 C        2.920    -0.043    29.075     8.842
    23   6 C        2.913    -0.035    28.875     8.811
    24   6 C        3.069    -0.020    28.425     8.742
    25   6 C        3.069    -0.020    28.438     8.744
    26   6 C        2.913    -0.035    28.876     8.812
    27   6 C        2.920    -0.043    29.075     8.842
    28   6 C        2.924    -0.036    28.887     8.814
    29   6 C        2.910    -0.051    29.264     8.870
    30   6 C        3.080     0.051    26.765     8.482
    31   6 C        2.923    -0.050    29.234     8.867
    32   6 C        2.919    -0.030    28.747     8.792
    33   1 H        0.926     0.032     2.560     2.502
    34   1 H        0.926     0.033     2.538     2.491
    35   1 H        0.926     0.028     2.615     2.529
    36   1 H        0.926     0.031     2.566     2.505
    37   1 H        0.926     0.034     2.525     2.485
    38   1 H        0.926     0.034     2.536     2.490
    39   1 H        0.926     0.033     2.542     2.493
    40   1 H        0.926     0.028     2.615     2.529
    41   1 H        0.926     0.041     2.441     2.443
    42   1 H        0.926     0.043     2.414     2.430
    43   1 H        0.926     0.042     2.421     2.433
    44   1 H        0.926     0.043     2.410     2.428
    45   1 H        0.926     0.027     2.623     2.533
    46   1 H        0.926     0.030     2.582     2.513
    47   1 H        0.926     0.028     2.612     2.527
    48   1 H        0.926     0.030     2.590     2.517
    49   1 H        0.926     0.030     2.591     2.517
    50   1 H        0.926     0.028     2.620     2.531
    51   1 H        0.926     0.029     2.607     2.525
    52   1 H        0.926     0.026     2.645     2.543
    53   1 H        0.926     0.030     2.583     2.513
    54   1 H        0.926     0.033     2.543     2.494

molecular dipole:
                 x           y           z       tot (Debye)
 q only:        0.399       0.455      -0.151
   full:        0.425       0.482      -0.170       1.688

 projected vibrational frequencies (cm⁻¹)
eigval :       -0.00    -0.00    -0.00     0.00     0.00     0.00
eigval :       18.32    28.75    38.88    57.82    65.45    68.81
eigval :       72.59    85.32    98.86   104.63   146.33   156.11
eigval :      174.63   185.79   224.70   240.28   261.01   273.33
eigval :      275.15   307.62   324.35   364.23   378.24   385.23
eigval :      390.92   397.01   423.79   432.07   441.93   457.86
eigval :      480.45   490.28   508.19   518.83   538.33   541.90
eigval :      577.64   582.43   587.72   592.34   597.99   609.64
eigval :      611.53   658.42   664.28   672.24   687.32   699.05
eigval :      706.49   725.22   752.81   756.28   758.07   767.50
eigval :      779.28   783.49   864.44   870.77   871.76   874.40
eigval :      882.85   890.09   891.38   895.35   899.21   901.85
eigval :      905.06   908.17   918.04   919.84   923.16   924.02
eigval :      924.79   925.15   927.37   930.13   931.89   985.87
eigval :     1003.64  1011.57  1067.94  1070.77  1082.84  1084.36
eigval :     1093.23  1095.98  1121.28  1124.62  1139.70  1150.08
eigval :     1174.71  1176.62  1177.67  1179.13  1180.44  1187.69
eigval :     1192.51  1195.95  1212.07  1236.09  1239.04  1247.66
eigval :     1277.10  1280.29  1298.87  1303.33  1307.74  1311.34
eigval :     1312.90  1321.96  1327.16  1354.67  1360.91  1363.58
eigval :     1421.93  1428.38  1431.68  1436.35  1442.58  1470.07
eigval :     1473.33  1475.85  1482.43  1488.24  1559.63  1574.05
eigval :     1576.73  1581.05  1583.69  1590.70  1593.45  1598.93
eigval :     1599.96  1615.74  3069.37  3070.49  3070.55  3071.76
eigval :     3071.89  3074.94  3075.45  3076.89  3080.55  3081.63
eigval :     3082.21  3082.63  3083.99  3085.53  3087.23  3089.11
eigval :     3090.62  3091.21  3094.43  3096.56  3101.32  3101.62

   temp. (K)  partition function   enthalpy   heat capacity  entropy
                                   cal/mol     cal/K/mol   cal/K/mol   J/K/mol
 298.15  VIB  0.455E+10            13908.273     93.279     84.676
         ROT  0.140E+08              888.752      2.981     35.678
         INT  0.637E+17            14797.025     96.260    120.354
         TR   0.805E+28             1481.254      4.968     43.908
         TOT                       16278.2789   101.2284   164.2616   687.2705

       T/K    H(0)-H(T)+PV         H(T)/Eh          T*S/Eh         G(T)/Eh
   ------------------------------------------------------------------------
    298.15    0.259411E-01    0.447433E+00    0.780460E-01    0.369387E+00
   ------------------------------------------------------------------------

         :::::::::::::::::::::::::::::::::::::::::::::::::::::
         ::                  THERMODYNAMIC                  ::
         :::::::::::::::::::::::::::::::::::::::::::::::::::::
         :: total free energy         -81.001766824463 Eh   ::
         ::.................................................::
         :: total energy              -81.371153516127 Eh   ::
         :: zero point energy           0.421491585720 Eh   ::
         :: G(RRHO) w/o ZPVE           -0.052104894057 Eh   ::
         :: G(RRHO) contrib.            0.369386691664 Eh   ::
         :::::::::::::::::::::::::::::::::::::::::::::::::::::

           -------------------------------------------------
          | TOTAL ENERGY              -81.371153516127 Eh   |
          | TOTAL ENTHALPY            -80.923720841801 Eh   |
          | TOTAL FREE ENERGY         -81.001766824463 Eh   |
          | GRADIENT NORM               0.000021133522 Eh/α |
          | HOMO-LUMO GAP               2.954243911950 eV   |
           -------------------------------------------------

 * finished run on 2025/08/26 at 03:50:07.728
