   * xtb version 6.7.1 (edcfbbe) compiled by 'albert@albert-system' on 2024-07-22

   ID    Z sym.   atoms
    1    6 C      1-4, 6-17, 19-32
    2    7 N      5, 18
    3    1 H      33-54

          program call               : xtb data2507/toluene/CzTPA/CzTPA.xyz --gfn 2 --gbsa toluene --ohess vtight --parallel 40 --molden --ceasefiles --namespace data2507/toluene/CzTPA/CzTPA_toluene_S0_preOpt
      * Solvation model:               GBSA
        Solvent                        toluene
        Solvent mass                       9.2140E+01 g/mol
          :  Hamiltonian                  GFN2-xTB          :
 * total energy  :   -81.3516886 Eh     change       -0.6056524E-09 Eh
 * total energy  :   -81.3639623 Eh     change       -0.1227368E-01 Eh
 * total energy  :   -81.3681436 Eh     change       -0.4181293E-02 Eh
 * total energy  :   -81.3690944 Eh     change       -0.9507682E-03 Eh
 * total energy  :   -81.3695817 Eh     change       -0.4873153E-03 Eh
 * total energy  :   -81.3698212 Eh     change       -0.2394631E-03 Eh
 * total energy  :   -81.3699926 Eh     change       -0.1714334E-03 Eh
 * total energy  :   -81.3701541 Eh     change       -0.1615484E-03 Eh
 * total energy  :   -81.3703008 Eh     change       -0.1466623E-03 Eh
 * total energy  :   -81.3704124 Eh     change       -0.1116342E-03 Eh
 * total energy  :   -81.3711282 Eh     change       -0.3459291E-06 Eh
 * total energy  :   -81.3711285 Eh     change       -0.2650915E-06 Eh
 * total energy  :   -81.3711287 Eh     change       -0.2164924E-06 Eh
 * total energy  :   -81.3711288 Eh     change       -0.1740900E-06 Eh
 * total energy  :   -81.3711290 Eh     change       -0.1806801E-06 Eh
 * total energy  :   -81.3711292 Eh     change       -0.2117145E-06 Eh
 * total energy  :   -81.3711295 Eh     change       -0.2204033E-06 Eh
 * total energy  :   -81.3711296 Eh     change       -0.1626809E-06 Eh
 * total energy  :   -81.3711297 Eh     change       -0.9706054E-07 Eh
   *** GEOMETRY OPTIMIZATION CONVERGED AFTER 36 ITERATIONS ***

 final structure:
================
54
 xtb: 6.7.1 (edcfbbe)
C            5.36732665362645        0.85952501488832       -0.28134716913796
C            4.60350477177635        1.13118172909492       -1.40486684533210
C            3.29287165196374        0.70136975218671       -1.48328290459320
C            2.71650056348603       -0.00421214874366       -0.42640655843969
N            1.38538364709846       -0.42834100816405       -0.49722237996910
C            0.44953738849783        0.30834212576152       -1.24160650201522
C           -0.47023598998125       -0.34735222273285       -2.05687226586059
C           -1.40499968343580        0.37582139721637       -2.77311143688091
C           -1.43017768915549        1.75760719084286       -2.69413963790169
C           -0.51018378663745        2.41457786980739       -1.89256974802971
C            0.42341203104910        1.70002100996447       -1.16857734641558
C            0.99797490654168       -1.64083454984987        0.08325505161865
C            1.83936938811944       -2.75252602843663        0.01494819587384
C            1.46895642567927       -3.96485492391495        0.56147133783046
C            0.23873770646091       -4.10030540924050        1.18558773712451
C           -0.60640352874877       -3.00948730938391        1.26793404686539
C           -0.24189348891889       -1.77948785835842        0.73286087071064
N           -1.13425011916731       -0.69764779522774        0.84884303809836
C           -0.86828770378451        0.51920193880617        1.43870413634378
C            0.26541505352811        0.93903506455210        2.11804237986052
C            0.27109091878511        2.21992289225631        2.63574617558361
C           -0.82846168818780        3.06430664371499        2.49536002690965
C           -1.96998001774259        2.64191613216460        1.84287302605297
C           -1.99825079910886        1.35929357534227        1.31145601726178
C           -2.99230847023856        0.59940753913021        0.60739532876074
C           -4.28611286801398        0.87382649591628        0.18350973352427
C           -4.98390388034160       -0.10742686384516       -0.49228063357433
C           -4.40568024248005       -1.34830890496020       -0.75296037029937
C           -3.12027589162625       -1.64463702529159       -0.34220960499964
C           -2.41868346247539       -0.66588520152316        0.34638696906749
C            3.49402314189080       -0.28020552139993        0.69923466313305
C            4.80547663700057        0.14860418467668        0.76648534092922
H            6.39170002817453        1.19548637774295       -0.22381845210535
H            5.03378249524437        1.67521345660395       -2.23322689828473
H            2.70780091266900        0.90667309823358       -2.36772589805314
H           -0.44813944103082       -1.42584348314405       -2.12398846588649
H           -2.11573441666002       -0.14481680430838       -3.39779503774069
H           -2.16373690908932        2.31950525417885       -3.25221479914107
H           -0.52668780894490        3.49214150962677       -1.81995439395875
H            1.13034029024264        2.21141323044483       -0.53217973652156
H            2.78918294817093       -2.65241111026873       -0.48964994099694
H            2.13747310088726       -4.80936407493480        0.48863095439952
H           -0.05792728941009       -5.04634352072568        1.61140041317974
H           -1.56115124573201       -3.09169001560842        1.76662255451871
H            1.11583360849433        0.28748610185551        2.24343918754166
H            1.14600004268175        2.57269638233109        3.16277935626006
H           -0.78583407566521        4.05986506384697        2.91274429936768
H           -2.82694286457417        3.29220868974175        1.74795598641040
H           -4.73264933844771        1.83756836159421        0.37843559608504
H           -5.99221502578293        0.08589445235387       -0.82850403449963
H           -4.97451463957543       -2.09392521746627       -1.28957733750957
H           -2.67579975203634       -2.60554954825212       -0.55497299410036
H            3.06888397161370       -0.83780624250450        1.52125363814140
H            5.39084383331166       -0.07084974659717        1.64770333078934

          :  Hamiltonian                  GFN2-xTB          :
         :: gradient norm              0.000032181938 Eh/a0 ::
         :: HOMO-LUMO gap              2.955777907845 eV    ::
         :: SCC energy               -82.912403000531 Eh    ::
         :: -> dispersion             -0.083811866417 Eh    ::
         :: -> Gsolv                  -0.028965813639 Eh    ::
         :: repulsion energy           1.541273279911 Eh    ::

    * Orbital Energies and Occupations

         #    Occupation            Energy/Eh            Energy/eV
      -------------------------------------------------------------
         1        2.0000           -0.6751198             -18.3709
       ...           ...                  ...                  ...
        64        2.0000           -0.4248296             -11.5602
        65        2.0000           -0.4212380             -11.4625
        66        2.0000           -0.4184886             -11.3877
        67        2.0000           -0.4167966             -11.3416
        68        2.0000           -0.4137472             -11.2586
        69        2.0000           -0.4103301             -11.1656
        70        2.0000           -0.4096841             -11.1481
        71        2.0000           -0.4060564             -11.0494
        72        2.0000           -0.4054345             -11.0324
        73        2.0000           -0.4010346             -10.9127
        74        2.0000           -0.3768279             -10.2540
        75        2.0000           -0.3627144              -9.8700
        76        2.0000           -0.3535129              -9.6196 (HOMO)
        77                         -0.2448900              -6.6638 (LUMO)
        78                         -0.2376779              -6.4675
        79                         -0.2342792              -6.3751
        80                         -0.2311028              -6.2886
        81                         -0.2260152              -6.1502
        82                         -0.2231255              -6.0716
        83                         -0.2189816              -5.9588
        84                         -0.1983121              -5.3963
        85                         -0.1900036              -5.1703
        86                         -0.1847952              -5.0285
        87                         -0.1074685              -2.9244
       ...                                ...                  ...
       150                          0.7480100              20.3544
      -------------------------------------------------------------
                  HL-Gap            0.1086229 Eh            2.9558 eV

     #   Z          covCN         q      C6AA      α(0)
     1   6 C        2.919    -0.040    28.994     8.830
     2   6 C        2.919    -0.030    28.746     8.792
     3   6 C        2.923    -0.049    29.228     8.866
     4   6 C        2.921     0.066    26.531     8.447
     5   7 N        2.751    -0.079    22.770     7.087
     6   6 C        2.925     0.068    26.483     8.439
     7   6 C        2.923    -0.047    29.157     8.855
     8   6 C        2.920    -0.029    28.734     8.790
     9   6 C        2.919    -0.037    28.921     8.819
    10   6 C        2.920    -0.029    28.731     8.790
    11   6 C        2.922    -0.045    29.108     8.848
    12   6 C        2.922     0.056    26.738     8.480
    13   6 C        2.923    -0.049    29.205     8.862
    14   6 C        2.918    -0.033    28.823     8.804
    15   6 C        2.918    -0.038    28.946     8.823
    16   6 C        2.923    -0.043    29.063     8.841
    17   6 C        2.912     0.046    26.970     8.516
    18   7 N        2.803    -0.052    22.239     7.004
    19   6 C        3.079     0.051    26.766     8.482
    20   6 C        2.910    -0.051    29.263     8.870
    21   6 C        2.924    -0.036    28.887     8.814
    22   6 C        2.920    -0.043    29.075     8.842
    23   6 C        2.913    -0.035    28.876     8.812
    24   6 C        3.069    -0.020    28.439     8.744
    25   6 C        3.069    -0.020    28.425     8.742
    26   6 C        2.912    -0.035    28.875     8.811
    27   6 C        2.920    -0.043    29.075     8.842
    28   6 C        2.924    -0.035    28.881     8.813
    29   6 C        2.910    -0.052    29.285     8.874
    30   6 C        3.080     0.049    26.815     8.490
    31   6 C        2.923    -0.048    29.203     8.862
    32   6 C        2.919    -0.030    28.760     8.794
    33   1 H        0.926     0.032     2.557     2.501
    34   1 H        0.926     0.033     2.540     2.492
    35   1 H        0.926     0.030     2.582     2.513
    36   1 H        0.926     0.028     2.615     2.529
    37   1 H        0.926     0.033     2.543     2.494
    38   1 H        0.926     0.034     2.536     2.490
    39   1 H        0.926     0.034     2.525     2.485
    40   1 H        0.926     0.031     2.567     2.505
    41   1 H        0.926     0.040     2.444     2.445
    42   1 H        0.926     0.042     2.416     2.431
    43   1 H        0.926     0.042     2.423     2.434
    44   1 H        0.926     0.043     2.411     2.428
    45   1 H        0.926     0.026     2.646     2.544
    46   1 H        0.926     0.029     2.606     2.525
    47   1 H        0.926     0.028     2.620     2.531
    48   1 H        0.926     0.030     2.592     2.517
    49   1 H        0.926     0.030     2.590     2.517
    50   1 H        0.926     0.028     2.612     2.528
    51   1 H        0.926     0.030     2.582     2.513
    52   1 H        0.926     0.027     2.624     2.533
    53   1 H        0.926     0.028     2.613     2.528
    54   1 H        0.926     0.034     2.535     2.490

molecular dipole:
                 x           y           z       tot (Debye)
 q only:        0.392      -0.472      -0.119
   full:        0.415      -0.501      -0.137       1.690

 projected vibrational frequencies (cm⁻¹)
eigval :       -0.00    -0.00    -0.00     0.00     0.00     0.00
eigval :       18.45    29.86    37.00    58.95    65.88    66.73
eigval :       76.81    85.11    99.41   107.89   145.78   157.21
eigval :      174.50   185.99   226.14   238.69   261.10   275.63
eigval :      275.90   307.67   324.54   364.55   378.34   384.93
eigval :      392.02   398.09   425.67   432.79   442.12   459.03
eigval :      481.56   491.10   508.25   518.73   539.33   542.54
eigval :      577.48   582.60   587.81   592.50   597.57   609.61
eigval :      611.46   659.90   664.25   673.55   687.20   698.85
eigval :      708.20   725.46   753.49   756.12   758.21   765.00
eigval :      777.01   784.73   862.76   867.94   873.06   875.87
eigval :      883.58   889.13   890.39   895.47   898.30   899.58
eigval :      905.01   907.93   915.75   920.34   921.12   924.82
eigval :      925.30   926.16   928.37   929.86   932.16   985.90
eigval :     1003.60  1011.46  1067.00  1070.59  1082.52  1084.73
eigval :     1093.42  1095.69  1120.96  1124.49  1138.53  1149.95
eigval :     1173.28  1174.83  1176.87  1178.34  1180.30  1186.19
eigval :     1192.15  1196.29  1211.83  1235.51  1239.15  1247.84
eigval :     1277.34  1280.26  1298.84  1303.23  1307.58  1311.01
eigval :     1312.79  1321.84  1326.95  1354.60  1360.82  1363.57
eigval :     1421.17  1427.98  1431.14  1435.79  1442.28  1470.23
eigval :     1473.39  1475.89  1482.60  1488.31  1558.95  1573.99
eigval :     1576.66  1580.95  1583.52  1590.68  1593.45  1598.85
eigval :     1599.93  1615.77  3069.08  3069.55  3070.05  3071.60
eigval :     3072.82  3074.62  3075.52  3076.34  3080.15  3081.35
eigval :     3081.67  3082.33  3084.03  3085.29  3086.98  3088.85
eigval :     3090.14  3090.44  3094.15  3096.55  3100.73  3101.13

   temp. (K)  partition function   enthalpy   heat capacity  entropy
                                   cal/mol     cal/K/mol   cal/K/mol   J/K/mol
 298.15  VIB  0.420E+10            13892.517     93.278     84.483
         ROT  0.140E+08              888.752      2.981     35.680
         INT  0.588E+17            14781.269     96.259    120.163
         TR   0.805E+28             1481.254      4.968     43.908
         TOT                       16262.5228   101.2270   164.0707   686.4718

       T/K    H(0)-H(T)+PV         H(T)/Eh          T*S/Eh         G(T)/Eh
   ------------------------------------------------------------------------
    298.15    0.259160E-01    0.447394E+00    0.779553E-01    0.369438E+00
   ------------------------------------------------------------------------

         :::::::::::::::::::::::::::::::::::::::::::::::::::::
         ::                  THERMODYNAMIC                  ::
         :::::::::::::::::::::::::::::::::::::::::::::::::::::
         :: total free energy         -81.001691269225 Eh   ::
         ::.................................................::
         :: total energy              -81.371129719872 Eh   ::
         :: zero point energy           0.421477753656 Eh   ::
         :: G(RRHO) w/o ZPVE           -0.052039303008 Eh   ::
         :: G(RRHO) contrib.            0.369438450648 Eh   ::
         :::::::::::::::::::::::::::::::::::::::::::::::::::::

           -------------------------------------------------
          | TOTAL ENERGY              -81.371129719872 Eh   |
          | TOTAL ENTHALPY            -80.923735986439 Eh   |
          | TOTAL FREE ENERGY         -81.001691269225 Eh   |
          | GRADIENT NORM               0.000032186191 Eh/α |
          | HOMO-LUMO GAP               2.955780444270 eV   |
           -------------------------------------------------

 * finished run on 2025/08/26 at 03:48:37.643
