   * xtb version 6.7.1 (edcfbbe) compiled by 'albert@albert-system' on 2024-07-22

   ID    Z sym.   atoms
    1    6 C      1-4, 6-17, 19-32
    2    7 N      5, 18
    3    1 H      33-54

          program call               : xtb data2507/toluene/CzTPA/CzTPA_toluene_T1_crest.xyz --gfn 2 --uhf 2 --gbsa toluene --ohess vtight --parallel 40 --molden --ceasefiles --namespace data2507/toluene/CzTPA/CzTPA_toluene_T1_finalOpt
      * Solvation model:               GBSA
        Solvent                        toluene
        Solvent mass                       9.2140E+01 g/mol
          :  Hamiltonian                  GFN2-xTB          :
 * total energy  :   -81.2590142 Eh     change       -0.2101102E-07 Eh
 * total energy  :   -81.2590696 Eh     change       -0.5541140E-04 Eh
 * total energy  :   -81.2591145 Eh     change       -0.4488614E-04 Eh
 * total energy  :   -81.2591446 Eh     change       -0.3008325E-04 Eh
 * total energy  :   -81.2591667 Eh     change       -0.2214704E-04 Eh
 * total energy  :   -81.2591940 Eh     change       -0.2721911E-04 Eh
 * total energy  :   -81.2592158 Eh     change       -0.2185892E-04 Eh
 * total energy  :   -81.2592256 Eh     change       -0.9745354E-05 Eh
 * total energy  :   -81.2592358 Eh     change       -0.1018320E-04 Eh
 * total energy  :   -81.2592463 Eh     change       -0.1057088E-04 Eh
 * total energy  :   -81.2592744 Eh     change       -0.4358632E-05 Eh
 * total energy  :   -81.2592772 Eh     change       -0.2814778E-05 Eh
 * total energy  :   -81.2592792 Eh     change       -0.1994644E-05 Eh
 * total energy  :   -81.2592807 Eh     change       -0.1547305E-05 Eh
 * total energy  :   -81.2592820 Eh     change       -0.1309447E-05 Eh
 * total energy  :   -81.2592829 Eh     change       -0.9299187E-06 Eh
 * total energy  :   -81.2592837 Eh     change       -0.7322205E-06 Eh
 * total energy  :   -81.2592844 Eh     change       -0.6880840E-06 Eh
 * total energy  :   -81.2592844 Eh     change       -0.1491826E-07 Eh
   *** GEOMETRY OPTIMIZATION CONVERGED AFTER 22 ITERATIONS ***

 final structure:
================
54
 xtb: 6.7.1 (edcfbbe)
C            5.44121743927617       -1.03984007841926       -0.11557835733873
C            4.87000872998359       -0.25816557182567        0.88181271177825
C            3.57654841699746        0.20041289891662        0.75674920050666
C            2.81696632880661       -0.12330067926630       -0.37569219736126
N            1.50371938119245        0.32392539434009       -0.50719980732902
C            0.58115638704546       -0.45048659260534       -1.22189141758461
C            0.53933592342134       -1.83897910370087       -1.07087741535605
C           -0.39010093725945       -2.58160112703441       -1.76805065222022
C           -1.29035020975740       -1.95870440123869       -2.62497820371000
C           -1.24737345780403       -0.58164957912055       -2.78312957935625
C           -0.32137121042894        0.17292423065350       -2.09371182168452
C            1.12186485997024        1.55581755792422       -0.00536312337079
C            2.00040933266264        2.64990561051548       -0.06850182192593
C            1.59772786496988        3.91589577738642        0.26034811054369
C            0.26286912599266        4.14647545073780        0.68871386255749
C           -0.61857203694344        3.10207161002071        0.76931759537423
C           -0.23495361978620        1.78737108727833        0.46588231216421
N           -1.12091418065229        0.75277648744226        0.68530538965357
C           -2.44412597069044        0.72614657316884        0.25283263628258
C           -3.14342508710224        1.65767122097512       -0.48608491279373
C           -4.45678476546265        1.35876930987826       -0.84936157927247
C           -5.04189681387710        0.15002582306653       -0.48045285791087
C           -4.33805379585787       -0.80342146124708        0.23190054042404
C           -3.01826042566530       -0.53016490504338        0.60022503791869
C           -2.01251413464040       -1.27449544210023        1.27257981687807
C           -1.97789830722331       -2.53740737348937        1.87095748192432
C           -0.82921716328490       -2.93366940440489        2.52335366707410
C            0.28605095585613       -2.09394763205201        2.61129180767179
C            0.28158900271410       -0.84141042859655        2.01011144217903
C           -0.84848445049707       -0.44947857559646        1.31795031405672
C            3.40427791102756       -0.90157660754645       -1.38349075113190
C            4.69935015943146       -1.35375575229947       -1.24689527391189
H            6.45476771425309       -1.39543145786269       -0.01292410286147
H            5.43840411660798       -0.01171299539982        1.76638175670131
H            3.13795233478704        0.80140372660959        1.53973443619140
H            1.22323557406749       -2.31871975370515       -0.38710249516072
H           -0.42160791692666       -3.65270257758789       -1.63679415481115
H           -2.01959571993610       -2.54359611445005       -3.16373359000153
H           -1.93733764955013       -0.09309810262691       -3.45497256628962
H           -0.27260485177820        1.24379389573956       -2.22865068241437
H            3.00389808490348        2.48134003716929       -0.43173052243655
H            2.28341756598127        4.74419550350022        0.17971387028368
H           -0.04310985638483        5.14176470107340        0.97003180882055
H           -1.61892696004519        3.26584110304188        1.14216685671788
H           -2.69584694316003        2.59092724238270       -0.79246507405155
H           -5.02229262146217        2.07489455407649       -1.42592026074713
H           -6.06449444007501       -0.04860809964620       -0.76967610933670
H           -4.79175048767390       -1.74765074693734        0.49340057937930
H           -2.84221317177622       -3.18317700679144        1.82665676318952
H           -0.78905143233752       -3.90712600611941        2.99182516933478
H            1.15923906297270       -2.41870650592161        3.15654928783886
H            1.13772695805134       -0.19213027927019        2.10261705797317
H            2.83773702285765       -1.12967168983227       -2.27381682302759
H            5.14027270450858       -1.94890021475717       -2.03288796221872

          :  Hamiltonian                  GFN2-xTB          :
         :: gradient norm              0.000067452559 Eh/a0 ::
         :: HOMO-LUMO gap              0.174346246148 eV    ::
         :: SCC energy               -82.777774129671 Eh    ::
         :: -> dispersion             -0.083639075471 Eh    ::
         :: -> Gsolv                  -0.029658539407 Eh    ::
         :: repulsion energy           1.518489744350 Eh    ::

    * Orbital Energies and Occupations

         #    Occupation            Energy/Eh            Energy/eV
      -------------------------------------------------------------
         1        2.0000           -0.6802285             -18.5100
       ...           ...                  ...                  ...
        65        2.0000           -0.4164644             -11.3326
        66        2.0000           -0.4154428             -11.3048
        67        2.0000           -0.4143336             -11.2746
        68        2.0000           -0.4136975             -11.2573
        69        2.0000           -0.4121749             -11.2158
        70        2.0000           -0.4107925             -11.1782
        71        2.0000           -0.4095805             -11.1453
        72        2.0000           -0.4034262             -10.9778
        73        2.0000           -0.3989322             -10.8555
        74        1.9997           -0.3682776             -10.0213
        75        1.9975           -0.3661059              -9.9622
        76        1.0028           -0.3548238              -9.6552
        77        0.9597           -0.2458335              -6.6895 (HOMO)
        78        0.0273           -0.2394268              -6.5151 (LUMO)
        79        0.0130           -0.2387086              -6.4956
        80        0.0000           -0.2325367              -6.3276
        81        0.0000           -0.2276573              -6.1949
        82                         -0.2259280              -6.1478
        83                         -0.2161561              -5.8819
        84                         -0.2026148              -5.5134
        85                         -0.1868848              -5.0854
        86                         -0.1799361              -4.8963
        87                         -0.1098556              -2.9893
        88                         -0.1058373              -2.8800
       ...                                ...                  ...
       150                          0.7506559              20.4264
      -------------------------------------------------------------
                  HL-Gap            0.0064067 Eh            0.1743 eV

     #   Z          covCN         q      C6AA      α(0)
     1   6 C        2.918    -0.034    28.848     8.808
     2   6 C        2.917    -0.028    28.708     8.786
     3   6 C        2.920    -0.039    28.981     8.828
     4   6 C        2.926     0.059    26.678     8.470
     5   7 N        2.750    -0.018    21.607     6.904
     6   6 C        2.929     0.058    26.701     8.474
     7   6 C        2.919    -0.038    28.937     8.821
     8   6 C        2.918    -0.029    28.730     8.790
     9   6 C        2.919    -0.034    28.849     8.808
    10   6 C        2.918    -0.026    28.659     8.779
    11   6 C        2.920    -0.044    29.092     8.845
    12   6 C        2.919     0.031    27.311     8.570
    13   6 C        2.912    -0.045    29.110     8.847
    14   6 C        2.912    -0.048    29.183     8.858
    15   6 C        2.912    -0.044    29.103     8.846
    16   6 C        2.913    -0.044    29.082     8.843
    17   6 C        2.904     0.032    27.295     8.566
    18   7 N        2.793    -0.016    21.559     6.896
    19   6 C        3.062     0.038    27.082     8.534
    20   6 C        2.908    -0.047    29.175     8.857
    21   6 C        2.920    -0.054    29.330     8.881
    22   6 C        2.916    -0.035    28.881     8.813
    23   6 C        2.910    -0.044    29.083     8.843
    24   6 C        3.058    -0.026    28.589     8.768
    25   6 C        3.058    -0.026    28.594     8.769
    26   6 C        2.909    -0.044    29.083     8.843
    27   6 C        2.917    -0.035    28.877     8.812
    28   6 C        2.920    -0.055    29.372     8.887
    29   6 C        2.908    -0.047    29.171     8.856
    30   6 C        3.061     0.038    27.083     8.534
    31   6 C        2.920    -0.043    29.061     8.840
    32   6 C        2.917    -0.027    28.671     8.781
    33   1 H        0.926     0.040     2.443     2.444
    34   1 H        0.926     0.042     2.428     2.437
    35   1 H        0.926     0.039     2.462     2.454
    36   1 H        0.926     0.039     2.466     2.456
    37   1 H        0.926     0.039     2.463     2.454
    38   1 H        0.926     0.038     2.480     2.463
    39   1 H        0.926     0.038     2.474     2.460
    40   1 H        0.926     0.035     2.522     2.483
    41   1 H        0.926     0.036     2.497     2.471
    42   1 H        0.926     0.033     2.542     2.493
    43   1 H        0.926     0.033     2.544     2.494
    44   1 H        0.926     0.037     2.482     2.464
    45   1 H        0.926     0.028     2.619     2.531
    46   1 H        0.926     0.022     2.705     2.572
    47   1 H        0.926     0.024     2.678     2.559
    48   1 H        0.926     0.022     2.696     2.568
    49   1 H        0.926     0.022     2.703     2.571
    50   1 H        0.926     0.023     2.684     2.562
    51   1 H        0.926     0.020     2.731     2.584
    52   1 H        0.926     0.023     2.691     2.565
    53   1 H        0.926     0.040     2.452     2.448
    54   1 H        0.926     0.042     2.426     2.436

molecular dipole:
                 x           y           z       tot (Debye)
 q only:        1.366       0.048      -0.587
   full:        1.352       0.100      -0.570       3.738

 projected vibrational frequencies (cm⁻¹)
eigval :       -0.00    -0.00    -0.00    -0.00     0.00     0.00
eigval :       15.08    33.86    37.77    57.05    68.88    75.36
eigval :       78.97    88.74   104.82   107.47   141.05   159.07
eigval :      172.11   185.39   228.22   243.31   253.00   266.91
eigval :      269.35   309.49   327.65   363.17   371.91   380.59
eigval :      387.47   392.93   407.18   410.38   433.49   436.59
eigval :      440.81   466.39   503.53   510.67   516.67   541.18
eigval :      561.45   573.21   579.13   584.99   589.05   593.55
eigval :      604.44   631.81   645.08   649.51   653.64   677.67
eigval :      686.39   711.62   731.88   741.20   743.36   744.51
eigval :      748.21   750.18   822.23   830.34   833.52   856.63
eigval :      861.55   865.08   871.64   875.21   880.11   883.01
eigval :      887.45   889.57   896.77   898.28   899.55   903.23
eigval :      917.18   919.01   920.92   922.03   925.67   965.63
eigval :      973.35   997.53  1031.31  1053.04  1060.38  1070.27
eigval :     1072.01  1076.97  1101.06  1118.19  1122.60  1123.70
eigval :     1133.83  1158.70  1165.45  1167.74  1172.56  1173.84
eigval :     1174.09  1178.48  1188.51  1203.49  1207.87  1230.54
eigval :     1252.72  1265.75  1271.47  1280.53  1285.60  1298.39
eigval :     1301.63  1310.23  1323.34  1326.39  1333.36  1335.99
eigval :     1377.51  1386.43  1414.30  1419.96  1424.13  1428.85
eigval :     1434.80  1436.34  1441.98  1450.17  1464.68  1470.61
eigval :     1479.38  1487.88  1491.10  1504.22  1512.04  1545.76
eigval :     1552.74  1574.16  3064.22  3064.78  3074.85  3076.62
eigval :     3077.73  3078.74  3078.91  3079.51  3081.35  3081.81
eigval :     3083.43  3085.76  3085.91  3086.91  3091.46  3092.17
eigval :     3093.27  3093.48  3099.51  3101.02  3102.64  3104.29

   temp. (K)  partition function   enthalpy   heat capacity  entropy
                                   cal/mol     cal/K/mol   cal/K/mol   J/K/mol
 298.15  VIB  0.483E+10            14191.052     96.009     85.922
         ROT  0.141E+08              888.752      2.981     35.692
         INT  0.680E+17            15079.804     98.990    121.614
         TR   0.805E+28             1481.254      4.968     43.908
         TOT                       16561.0581   103.9583   165.5212   692.5407

       T/K    H(0)-H(T)+PV         H(T)/Eh          T*S/Eh         G(T)/Eh
   ------------------------------------------------------------------------
    298.15    0.263917E-01    0.441538E+00    0.786445E-01    0.362894E+00
   ------------------------------------------------------------------------

         :::::::::::::::::::::::::::::::::::::::::::::::::::::
         ::                  THERMODYNAMIC                  ::
         :::::::::::::::::::::::::::::::::::::::::::::::::::::
         :: total free energy         -80.896390521666 Eh   ::
         ::.................................................::
         :: total energy              -81.259284385682 Eh   ::
         :: zero point energy           0.415146599276 Eh   ::
         :: G(RRHO) w/o ZPVE           -0.052252735260 Eh   ::
         :: G(RRHO) contrib.            0.362893864016 Eh   ::
         :::::::::::::::::::::::::::::::::::::::::::::::::::::

           -------------------------------------------------
          | TOTAL ENERGY              -81.259284385682 Eh   |
          | TOTAL ENTHALPY            -80.817746060345 Eh   |
          | TOTAL FREE ENERGY         -80.896390521666 Eh   |
          | GRADIENT NORM               0.000064622062 Eh/α |
          | HOMO-LUMO GAP               0.174336122472 eV   |
           -------------------------------------------------

 * finished run on 2025/08/26 at 03:52:14.498
