   * xtb version 6.7.1 (edcfbbe) compiled by 'albert@albert-system' on 2024-07-22

   ID    Z sym.   atoms
    1    9 F      1
    2    6 C      2-4, 6-19, 21-23, 25-30, 32-37
    3    7 N      5, 20, 24
    4    8 O      31
    5    1 H      38-57

          program call               : xtb data2507/toluene/FDQPXZ/FDQPXZ.xyz --gfn 2 --gbsa toluene --ohess vtight --parallel 40 --molden --ceasefiles --namespace data2507/toluene/FDQPXZ/FDQPXZ_toluene_S0_preOpt
      * Solvation model:               GBSA
        Solvent                        toluene
        Solvent mass                       9.2140E+01 g/mol
          :  Hamiltonian                  GFN2-xTB          :
 * total energy  :   -96.3285139 Eh     change       -0.1734207E-08 Eh
 * total energy  :   -96.3397208 Eh     change       -0.1120695E-01 Eh
 * total energy  :   -96.3435121 Eh     change       -0.3791281E-02 Eh
 * total energy  :   -96.3444077 Eh     change       -0.8955370E-03 Eh
 * total energy  :   -96.3450704 Eh     change       -0.6627128E-03 Eh
 * total energy  :   -96.3452480 Eh     change       -0.1775869E-03 Eh
 * total energy  :   -96.3453778 Eh     change       -0.1298021E-03 Eh
 * total energy  :   -96.3454982 Eh     change       -0.1203971E-03 Eh
 * total energy  :   -96.3456164 Eh     change       -0.1182396E-03 Eh
 * total energy  :   -96.3457179 Eh     change       -0.1015417E-03 Eh
 * total energy  :   -96.3472508 Eh     change       -0.1188692E-05 Eh
 * total energy  :   -96.3472519 Eh     change       -0.1098289E-05 Eh
 * total energy  :   -96.3472529 Eh     change       -0.9758186E-06 Eh
 * total energy  :   -96.3472537 Eh     change       -0.8385527E-06 Eh
 * total energy  :   -96.3472545 Eh     change       -0.7192767E-06 Eh
 * total energy  :   -96.3472551 Eh     change       -0.6484728E-06 Eh
 * total energy  :   -96.3472557 Eh     change       -0.6149099E-06 Eh
 * total energy  :   -96.3472563 Eh     change       -0.6078286E-06 Eh
 * total energy  :   -96.3472563 Eh     change       -0.5047880E-08 Eh
   *** GEOMETRY OPTIMIZATION CONVERGED AFTER 94 ITERATIONS ***

 final structure:
================
57
 xtb: 6.7.1 (edcfbbe)
F           -2.82876994412920       -2.02239729687532        1.95329369680991
C           -1.82931144290835       -1.38646220479861        1.29998263180782
C           -0.53670923550052       -1.69564533598155        1.60399883061668
C            0.49817239947706       -1.01049819338838        0.93710790217445
N            1.78205752327960       -1.34424450139639        1.15691130749285
C            2.72594846201547       -0.68133114273079        0.52797320452477
C            4.09839909744967       -1.17010676244271        0.70126884308230
C            4.97622282570978       -1.25432877339633       -0.37830352138239
C            6.25811098011636       -1.73707318813152       -0.19286848212764
C            6.67964808988462       -2.13562954258983        1.06592573214623
C            5.80590512494345       -2.07086650797158        2.13955190883275
C            4.51908711780660       -1.59991469966226        1.95846584795634
C            2.39903793571213        0.44212078434475       -0.30534080454630
C            3.41708872763174        1.34116912023797       -0.86144316234513
C            4.50455929988115        1.76088208434396       -0.09716797342476
C            5.44011932000690        2.62279877979547       -0.63811700531511
C            5.30528044627753        3.07158459937225       -1.94252177803836
C            4.21611116408086        2.67291496156586       -2.70090627085073
C            3.27128483745281        1.81990693942707       -2.16206500000388
N            1.14859574656796        0.72933323625009       -0.58147355506830
C            0.17087524683899        0.00314500973754       -0.00486165469672
C           -1.17538083098816        0.27542867784798       -0.30494389749905
C           -2.18262834956458       -0.40600263414844        0.33839561553563
N           -3.53829360576735       -0.13959075122591        0.08199504839633
C           -4.36596309187814       -1.15739583695273       -0.40628910299072
C           -3.85414898352834       -2.36539715977684       -0.86213626770978
C           -4.69668729775367       -3.35515929698778       -1.34485370505826
C           -6.06018772927929       -3.14524860691064       -1.39673079563011
C           -6.58278944209116       -1.92964803319647       -0.98031793945065
C           -5.74627430500921       -0.94155472083368       -0.49403438077245
O           -6.32890595199580        0.24628935633743       -0.12405710600045
C           -5.49843854739198        1.25355614431591        0.30591788456100
C           -6.09897536420668        2.45396010965472        0.64120440499364
C           -5.33618452153801        3.51139741162007        1.11338833460746
C           -3.97217053817011        3.35433561859514        1.25638907039090
C           -3.36464712832825        2.15439987719661        0.91791617876165
C           -4.11151748283515        1.09272736615729        0.42392414611884
H           -0.29933672227317       -2.44700014422511        2.33972155026277
H            4.64706947315043       -0.95902471665948       -1.36379614320092
H            6.93085513062669       -1.80222411494156       -1.03511694469581
H            7.68490980930991       -2.50356042386912        1.20783332654029
H            6.12755795842832       -2.38998127318697        3.11993608593030
H            3.82674386199437       -1.54739276526086        2.78515635412198
H            4.60586598902064        1.42597658207266        0.92474766116080
H            6.27790933736498        2.94540759894851       -0.03791195830669
H            6.04427724805697        3.73659310057729       -2.36426895650336
H            4.10131930626608        3.02908255830859       -3.71401729957515
H            2.41661023742803        1.50380164066648       -2.74097870943323
H           -1.40131206619841        1.03155631418648       -1.04048763215989
H           -2.78816159837187       -2.53547743562300       -0.84191900464234
H           -4.27344773037319       -4.28828485134302       -1.68322263562383
H           -6.72042002373592       -3.91283964322465       -1.76832696081649
H           -7.64127717031857       -1.72692140949656       -1.02353446518188
H           -7.16903002847563        2.53484938275055        0.53266468606841
H           -5.81365584004624        4.44303797650849        1.37256395007100
H           -3.36505891796418        4.16138968265639        1.63630687553939
H           -2.29993880615402        2.04355705373755        1.04947003455147

          :  Hamiltonian                  GFN2-xTB          :
         :: gradient norm              0.000058420563 Eh/a0 ::
         :: HOMO-LUMO gap              1.139243834617 eV    ::
         :: SCC energy               -97.977382635716 Eh    ::
         :: -> dispersion             -0.077857705686 Eh    ::
         :: -> Gsolv                  -0.039349862756 Eh    ::
         :: repulsion energy           1.630126297467 Eh    ::

    * Orbital Energies and Occupations

         #    Occupation            Energy/Eh            Energy/eV
      -------------------------------------------------------------
         1        2.0000           -0.8373625             -22.7858
       ...           ...                  ...                  ...
        76        2.0000           -0.4313553             -11.7378
        77        2.0000           -0.4286176             -11.6633
        78        2.0000           -0.4281558             -11.6507
        79        2.0000           -0.4257392             -11.5850
        80        2.0000           -0.4203641             -11.4387
        81        2.0000           -0.4179790             -11.3738
        82        2.0000           -0.4175784             -11.3629
        83        2.0000           -0.4125024             -11.2248
        84        2.0000           -0.4120248             -11.2118
        85        2.0000           -0.3995282             -10.8717
        86        2.0000           -0.3955108             -10.7624
        87        2.0000           -0.3666685              -9.9776
        88        2.0000           -0.3511085              -9.5541 (HOMO)
        89                         -0.3092420              -8.4149 (LUMO)
        90                         -0.2768308              -7.5329
        91                         -0.2433072              -6.6207
        92                         -0.2400029              -6.5308
        93                         -0.2350627              -6.3964
        94                         -0.2348172              -6.3897
        95                         -0.2338818              -6.3642
        96                         -0.2291725              -6.2361
        97                         -0.2221989              -6.0463
        98                         -0.2194309              -5.9710
        99                         -0.2015659              -5.4849
       ...                                ...                  ...
       168                          0.6780101              18.4496
      -------------------------------------------------------------
                  HL-Gap            0.0418664 Eh            1.1392 eV

     #   Z          covCN         q      C6AA      α(0)
     1   9 F        0.787    -0.229    11.539     4.013
     2   6 C        2.784     0.156    24.604     8.125
     3   6 C        2.914    -0.065    29.625     8.925
     4   6 C        2.966     0.078    26.267     8.407
     5   7 N        1.851    -0.244    27.213     7.732
     6   6 C        2.949     0.090    26.000     8.363
     7   6 C        2.981     0.004    27.929     8.669
     8   6 C        2.922    -0.029    28.731     8.790
     9   6 C        2.919    -0.027    28.672     8.781
    10   6 C        2.920    -0.025    28.634     8.775
    11   6 C        2.918    -0.026    28.662     8.779
    12   6 C        2.925    -0.026    28.644     8.777
    13   6 C        2.948     0.091    25.986     8.361
    14   6 C        2.981     0.004    27.930     8.669
    15   6 C        2.922    -0.029    28.730     8.790
    16   6 C        2.919    -0.027    28.672     8.781
    17   6 C        2.920    -0.025    28.633     8.775
    18   6 C        2.918    -0.026    28.662     8.779
    19   6 C        2.925    -0.026    28.643     8.777
    20   7 N        1.852    -0.244    27.215     7.732
    21   6 C        2.959     0.075    26.325     8.416
    22   6 C        2.923    -0.060    29.480     8.904
    23   6 C        2.914     0.054    26.796     8.488
    24   7 N        2.750    -0.065    22.504     7.046
    25   6 C        2.923     0.046    26.976     8.517
    26   6 C        2.924    -0.055    29.357     8.885
    27   6 C        2.919    -0.038    28.951     8.823
    28   6 C        2.919    -0.039    28.961     8.825
    29   6 C        2.919    -0.057    29.411     8.893
    30   6 C        2.883     0.124    25.280     8.243
    31   8 O        1.708    -0.265    18.394     5.791
    32   6 C        2.883     0.124    25.271     8.241
    33   6 C        2.920    -0.056    29.399     8.892
    34   6 C        2.919    -0.039    28.963     8.825
    35   6 C        2.919    -0.038    28.935     8.821
    36   6 C        2.923    -0.060    29.491     8.906
    37   6 C        2.920     0.042    27.064     8.531
    38   1 H        0.926     0.081     1.970     2.195
    39   1 H        0.926     0.031     2.567     2.505
    40   1 H        0.926     0.043     2.411     2.428
    41   1 H        0.926     0.045     2.387     2.416
    42   1 H        0.926     0.044     2.392     2.418
    43   1 H        0.926     0.045     2.383     2.414
    44   1 H        0.926     0.031     2.570     2.507
    45   1 H        0.926     0.043     2.412     2.429
    46   1 H        0.926     0.045     2.387     2.416
    47   1 H        0.926     0.045     2.389     2.417
    48   1 H        0.926     0.045     2.377     2.411
    49   1 H        0.926     0.076     2.024     2.225
    50   1 H        0.926     0.031     2.570     2.507
    51   1 H        0.926     0.044     2.396     2.420
    52   1 H        0.926     0.047     2.355     2.400
    53   1 H        0.926     0.053     2.283     2.363
    54   1 H        0.926     0.053     2.280     2.361
    55   1 H        0.926     0.048     2.349     2.397
    56   1 H        0.926     0.046     2.375     2.410
    57   1 H        0.926     0.038     2.479     2.462

molecular dipole:
                 x           y           z       tot (Debye)
 q only:        1.970       0.600      -0.587
   full:        1.951       0.519      -0.509       5.292

 projected vibrational frequencies (cm⁻¹)
eigval :       -0.00    -0.00    -0.00    -0.00     0.00     0.00
eigval :       13.47    19.53    27.48    40.57    42.26    51.01
eigval :       55.33    62.83    77.20    77.71   115.17   131.65
eigval :      137.57   146.44   166.43   201.04   217.69   245.30
eigval :      248.88   252.04   260.18   263.82   285.48   310.84
eigval :      321.87   354.57   367.36   373.22   376.69   391.07
eigval :      405.20   427.46   433.47   438.20   443.52   463.16
eigval :      475.02   495.69   510.62   521.02   524.16   532.58
eigval :      556.10   574.30   582.58   586.45   591.87   593.54
eigval :      616.47   648.82   656.24   661.69   664.12   667.09
eigval :      674.23   691.41   695.52   714.96   748.20   751.52
eigval :      764.36   774.80   776.08   777.83   791.52   844.14
eigval :      847.88   853.92   862.88   866.09   873.62   879.17
eigval :      879.85   896.26   899.09   903.60   906.66   908.49
eigval :      910.09   912.92   917.37   925.88   929.34   930.60
eigval :      937.66   942.40   974.20  1018.22  1077.25  1080.57
eigval :     1083.66  1089.86  1092.92  1096.11  1107.27  1117.72
eigval :     1118.84  1132.03  1163.85  1173.55  1176.14  1178.74
eigval :     1178.90  1184.70  1192.32  1194.24  1199.50  1199.86
eigval :     1241.20  1246.36  1260.92  1264.14  1266.71  1274.41
eigval :     1279.56  1283.44  1304.77  1317.10  1319.27  1327.14
eigval :     1335.44  1347.59  1383.19  1415.34  1419.36  1423.33
eigval :     1430.43  1433.08  1442.17  1461.55  1472.84  1474.17
eigval :     1479.02  1498.78  1506.71  1524.43  1568.18  1577.53
eigval :     1577.66  1579.22  1586.12  1591.15  1591.48  1594.02
eigval :     1601.27  3075.46  3076.28  3078.22  3078.67  3084.90
eigval :     3085.04  3085.12  3090.40  3091.17  3091.92  3093.17
eigval :     3097.02  3097.13  3098.88  3100.84  3105.20  3106.63
eigval :     3109.90  3111.21  3114.53

   temp. (K)  partition function   enthalpy   heat capacity  entropy
                                   cal/mol     cal/K/mol   cal/K/mol   J/K/mol
 298.15  VIB  0.140E+13            16295.119    104.891    100.180
         ROT  0.388E+08              888.752      2.981     37.708
         INT  0.545E+20            17183.871    107.872    137.889
         TR   0.102E+29             1481.254      4.968     44.383
         TOT                       18665.1250   112.8403   182.2716   762.6246

       T/K    H(0)-H(T)+PV         H(T)/Eh          T*S/Eh         G(T)/Eh
   ------------------------------------------------------------------------
    298.15    0.297448E-01    0.451419E+00    0.866031E-01    0.364816E+00
   ------------------------------------------------------------------------

         :::::::::::::::::::::::::::::::::::::::::::::::::::::
         ::                  THERMODYNAMIC                  ::
         :::::::::::::::::::::::::::::::::::::::::::::::::::::
         :: total free energy         -95.982440335163 Eh   ::
         ::.................................................::
         :: total energy              -96.347256340741 Eh   ::
         :: zero point energy           0.421674376364 Eh   ::
         :: G(RRHO) w/o ZPVE           -0.056858370786 Eh   ::
         :: G(RRHO) contrib.            0.364816005578 Eh   ::
         :::::::::::::::::::::::::::::::::::::::::::::::::::::

           -------------------------------------------------
          | TOTAL ENERGY              -96.347256340741 Eh   |
          | TOTAL ENTHALPY            -95.895837194341 Eh   |
          | TOTAL FREE ENERGY         -95.982440335163 Eh   |
          | GRADIENT NORM               0.000058421507 Eh/α |
          | HOMO-LUMO GAP               1.139243771282 eV   |
           -------------------------------------------------

 * finished run on 2025/07/18 at 17:16:55.130
