   * xtb version 6.7.1 (edcfbbe) compiled by 'albert@albert-system' on 2024-07-22

   ID    Z sym.   atoms
    1    9 F      1
    2    6 C      2-4, 6-19, 21-23, 25-30, 32-37
    3    7 N      5, 20, 24
    4    8 O      31
    5    1 H      38-57

          program call               : xtb data2507/toluene/FDQPXZ/FDQPXZ_toluene_S0_finalOpt.xtbopt.xyz --gfn 2 --uhf 2 --gbsa toluene --ohess vtight --parallel 40 --molden --ceasefiles --namespace data2507/toluene/FDQPXZ/FDQPXZ_toluene_T1_preOpt
      * Solvation model:               GBSA
        Solvent                        toluene
        Solvent mass                       9.2140E+01 g/mol
          :  Hamiltonian                  GFN2-xTB          :
 * total energy  :   -96.2885112 Eh     change       -0.2539481E-07 Eh
 * total energy  :   -96.2917962 Eh     change       -0.3284956E-02 Eh
 * total energy  :   -96.2927946 Eh     change       -0.9983569E-03 Eh
 * total energy  :   -96.2929234 Eh     change       -0.1288164E-03 Eh
 * total energy  :   -96.2930151 Eh     change       -0.9175311E-04 Eh
 * total energy  :   -96.2930514 Eh     change       -0.3629491E-04 Eh
 * total energy  :   -96.2930993 Eh     change       -0.4783826E-04 Eh
 * total energy  :   -96.2931511 Eh     change       -0.5186065E-04 Eh
 * total energy  :   -96.2931923 Eh     change       -0.4120859E-04 Eh
 * total energy  :   -96.2932183 Eh     change       -0.2599162E-04 Eh
 * total energy  :   -96.2933173 Eh     change       -0.3675064E-05 Eh
 * total energy  :   -96.2933206 Eh     change       -0.3291852E-05 Eh
 * total energy  :   -96.2933231 Eh     change       -0.2538696E-05 Eh
 * total energy  :   -96.2933251 Eh     change       -0.1958347E-05 Eh
 * total energy  :   -96.2933267 Eh     change       -0.1573557E-05 Eh
 * total energy  :   -96.2933279 Eh     change       -0.1235627E-05 Eh
 * total energy  :   -96.2933286 Eh     change       -0.6949971E-06 Eh
 * total energy  :   -96.2933289 Eh     change       -0.3095790E-06 Eh
 * total energy  :   -96.2933289 Eh     change       -0.3164359E-08 Eh
   *** GEOMETRY OPTIMIZATION CONVERGED AFTER 44 ITERATIONS ***

 final structure:
================
57
 xtb: 6.7.1 (edcfbbe)
F           -2.56318063870723        2.27789649734879        1.34472157620227
C           -1.54889898807740        1.49781075586436        0.88019337563568
C           -0.24345608220424        1.90629313090434        1.09025670975267
C            0.80931523954741        1.11030145220682        0.63262456428764
N            2.08097097144468        1.42809706458735        0.84904095430341
C            3.08124874460832        0.66406200898694        0.39985761168138
C            4.43666135939527        1.04131899880340        0.79900182496739
C            5.37966880558813        0.08835115624666        1.18606591010269
C            6.64295500187118        0.48062889944540        1.58415728063866
C            6.98486183836609        1.82407747388063        1.60841877215432
C            6.04647885358642        2.77820134864471        1.24831099248740
C            4.77999564107601        2.39315480278891        0.85285875634618
C            2.78608978555594       -0.46366818359127       -0.38990110044276
C            3.81176514292569       -1.25539602631552       -1.07299143134550
C            4.88752638660965       -0.64788216988128       -1.72059928813195
C            5.82409594468899       -1.41659766143773       -2.38441478817802
C            5.70017366310976       -2.79709117651974       -2.41783141923374
C            4.62206210636674       -3.40595756191835       -1.79565977218778
C            3.67969535923427       -2.64277699036517       -1.13288277631331
N            1.51851274882849       -0.83108408451050       -0.56838969348239
C            0.50538004987554       -0.11188553019965       -0.07720282568814
C           -0.82255230661362       -0.48418079455515       -0.25992186821957
C           -1.86266458184163        0.31858769060218        0.21998527844176
N           -3.21798861053579       -0.05861641379942        0.03604088278245
C           -3.78440156218950       -1.04306300408287        0.83215367184767
C           -3.03888303179293       -1.76977558292225        1.75761015803375
C           -3.64089248024715       -2.74393867809399        2.53354798669865
C           -4.99508218416846       -3.00789246227077        2.40547330543775
C           -5.75434382786515       -2.28848011221454        1.49771480789707
C           -5.15982810386561       -1.31178063255261        0.71530484616133
O           -5.96316078643157       -0.62691664739330       -0.15343976691567
C           -5.38798939562742        0.33678419818808       -0.93414505389406
C           -6.20926531348290        1.01635104067246       -1.81881638641148
C           -5.67978997768162        1.99221432312972       -2.64662467170978
C           -4.32536775577161        2.28030995950292       -2.59455710790467
C           -3.49850633439056        1.60766149717717       -1.71334622313301
C           -4.01606422579154        0.63550946576280       -0.86066607030666
H           -0.03601281607973        2.82024553657499        1.62085830449943
H            5.11504242923280       -0.95880171631041        1.18626659911816
H            7.36386268369652       -0.26656056760285        1.88232908440684
H            7.97534252525101        2.12587451951238        1.91513204183461
H            6.30229300665894        3.82749326089695        1.27661955439511
H            4.04173460665632        3.13005923543876        0.57301985379953
H            4.98003129895109        0.42833388930758       -1.71123825514920
H            6.65252288783836       -0.93504823193831       -2.88303076268268
H            6.43732251112514       -3.39467537572917       -2.93331455995931
H            4.51403008294766       -4.48039902618527       -1.82820573873788
H            2.83504478852856       -3.10849921755102       -0.64718197574362
H           -1.04524588304348       -1.39207468485129       -0.79623366126493
H           -1.98602314722878       -1.56279947292264        1.86525923347987
H           -3.04466601393892       -3.29543733665389        3.24345599888103
H           -5.46314408185575       -3.76649072491285        3.01215822383355
H           -6.81176749064822       -2.46386513195209        1.38078961331825
H           -7.25725959001680        0.76377935679716       -1.84165713924451
H           -6.32396835300055        2.52003945503133       -3.33143528813496
H           -3.90443466780616        3.03201580999637       -3.24375968039953
H           -2.44338490083134        1.83063954605921       -1.68029695247934

          :  Hamiltonian                  GFN2-xTB          :
         :: gradient norm              0.000042001630 Eh/a0 ::
         :: HOMO-LUMO gap              0.943332290159 eV    ::
         :: SCC energy               -97.920765219340 Eh    ::
         :: -> dispersion             -0.077650349183 Eh    ::
         :: -> Gsolv                  -0.040744006001 Eh    ::
         :: repulsion energy           1.627436312817 Eh    ::

    * Orbital Energies and Occupations

         #    Occupation            Energy/Eh            Energy/eV
      -------------------------------------------------------------
         1        2.0000           -0.8250628             -22.4511
       ...           ...                  ...                  ...
        77        2.0000           -0.4288439             -11.6694
        78        2.0000           -0.4276564             -11.6371
        79        2.0000           -0.4225271             -11.4975
        80        2.0000           -0.4222417             -11.4898
        81        2.0000           -0.4156037             -11.3092
        82        2.0000           -0.4101545             -11.1609
        83        2.0000           -0.4074452             -11.0871
        84        2.0000           -0.4065832             -11.0637
        85        2.0000           -0.3994459             -10.8695
        86        2.0000           -0.3907133             -10.6318
        87        1.7066           -0.3605215              -9.8103
        88        1.2934           -0.3588517              -9.7649
        89        1.0000           -0.3000905              -8.1659 (HOMO)
        90                         -0.2654237              -7.2225 (LUMO)
        91                         -0.2564217              -6.9776
        92                         -0.2448987              -6.6640
        93                         -0.2318044              -6.3077
        94                         -0.2293351              -6.2405
        95                         -0.2267256              -6.1695
        96                         -0.2231181              -6.0714
        97                         -0.2227314              -6.0608
        98                         -0.2121687              -5.7734
        99                         -0.2099715              -5.7136
       100                         -0.1629624              -4.4344
       ...                                ...                  ...
       168                          0.6863358              18.6761
      -------------------------------------------------------------
                  HL-Gap            0.0346668 Eh            0.9433 eV

     #   Z          covCN         q      C6AA      α(0)
     1   9 F        0.786    -0.251    11.777     4.054
     2   6 C        2.780     0.144    24.855     8.166
     3   6 C        2.915    -0.091    30.292     9.025
     4   6 C        2.942     0.087    26.071     8.374
     5   7 N        1.852    -0.243    27.190     7.728
     6   6 C        2.932     0.073    26.379     8.423
     7   6 C        2.978     0.007    27.860     8.658
     8   6 C        2.922    -0.033    28.829     8.805
     9   6 C        2.918    -0.029    28.717     8.788
    10   6 C        2.919    -0.031    28.762     8.795
    11   6 C        2.918    -0.029    28.722     8.788
    12   6 C        2.925    -0.030    28.740     8.792
    13   6 C        2.931     0.076    26.302     8.411
    14   6 C        2.979     0.008    27.847     8.656
    15   6 C        2.922    -0.032    28.805     8.801
    16   6 C        2.918    -0.028    28.708     8.786
    17   6 C        2.919    -0.030    28.745     8.792
    18   6 C        2.918    -0.029    28.715     8.787
    19   6 C        2.925    -0.029    28.728     8.790
    20   7 N        1.852    -0.243    27.199     7.730
    21   6 C        2.937     0.081    26.198     8.394
    22   6 C        2.922    -0.082    30.054     8.990
    23   6 C        2.915     0.027    27.411     8.585
    24   7 N        2.752    -0.029    21.811     6.936
    25   6 C        2.925     0.048    26.925     8.509
    26   6 C        2.921    -0.052    29.280     8.874
    27   6 C        2.918    -0.031    28.763     8.795
    28   6 C        2.919    -0.031    28.767     8.795
    29   6 C        2.917    -0.052    29.294     8.875
    30   6 C        2.884     0.130    25.161     8.223
    31   8 O        1.709    -0.232    17.849     5.704
    32   6 C        2.884     0.129    25.167     8.225
    33   6 C        2.917    -0.052    29.296     8.876
    34   6 C        2.919    -0.031    28.769     8.796
    35   6 C        2.918    -0.031    28.767     8.795
    36   6 C        2.921    -0.049    29.210     8.863
    37   6 C        2.926     0.050    26.872     8.501
    38   1 H        0.926     0.062     2.176     2.307
    39   1 H        0.926     0.028     2.609     2.526
    40   1 H        0.926     0.038     2.482     2.463
    41   1 H        0.926     0.039     2.464     2.455
    42   1 H        0.926     0.039     2.464     2.455
    43   1 H        0.926     0.038     2.470     2.458
    44   1 H        0.926     0.028     2.609     2.526
    45   1 H        0.926     0.038     2.475     2.460
    46   1 H        0.926     0.040     2.452     2.449
    47   1 H        0.926     0.040     2.447     2.446
    48   1 H        0.926     0.040     2.449     2.447
    49   1 H        0.926     0.058     2.221     2.330
    50   1 H        0.926     0.048     2.342     2.393
    51   1 H        0.926     0.056     2.248     2.345
    52   1 H        0.926     0.059     2.207     2.323
    53   1 H        0.926     0.065     2.142     2.289
    54   1 H        0.926     0.065     2.142     2.289
    55   1 H        0.926     0.059     2.209     2.324
    56   1 H        0.926     0.055     2.257     2.349
    57   1 H        0.926     0.045     2.386     2.415

molecular dipole:
                 x           y           z       tot (Debye)
 q only:       -0.706      -1.052      -0.566
   full:       -0.694      -0.948      -0.518       3.264

 projected vibrational frequencies (cm⁻¹)
eigval :       -0.00     0.00     0.00     0.00     0.00     0.00
eigval :       12.40    19.17    25.91    42.42    44.21    48.49
eigval :       52.05    60.58    77.96    80.25   109.47   133.11
eigval :      135.72   143.65   163.65   209.95   213.10   243.99
eigval :      245.23   250.34   253.04   257.16   265.20   305.41
eigval :      325.39   337.87   362.00   373.50   379.21   391.95
eigval :      407.70   429.84   430.45   436.88   442.22   450.51
eigval :      470.45   499.70   500.23   518.94   520.34   529.84
eigval :      550.17   572.00   576.30   578.94   586.83   589.66
eigval :      614.31   624.84   630.71   657.30   667.18   667.58
eigval :      669.54   671.25   683.70   690.96   711.10   730.54
eigval :      756.26   761.57   774.60   775.92   778.59   787.83
eigval :      788.82   838.46   855.14   865.13   866.74   871.75
eigval :      873.52   898.31   900.60   902.17   903.02   909.43
eigval :      914.23   914.96   917.98   924.24   926.50   927.01
eigval :      928.53   932.25   973.37  1006.24  1078.10  1078.92
eigval :     1080.56  1083.24  1085.62  1099.60  1112.59  1116.27
eigval :     1117.58  1132.96  1164.75  1171.38  1174.06  1177.33
eigval :     1177.47  1179.84  1191.20  1194.20  1201.20  1205.80
eigval :     1227.35  1236.62  1252.68  1256.51  1271.29  1274.78
eigval :     1277.34  1279.94  1293.48  1307.78  1310.09  1316.53
eigval :     1318.06  1321.66  1342.93  1365.99  1393.34  1408.94
eigval :     1417.13  1427.00  1427.28  1439.57  1442.07  1462.57
eigval :     1467.89  1470.55  1484.44  1501.42  1521.23  1556.60
eigval :     1562.92  1569.55  1571.26  1573.32  1584.50  1586.65
eigval :     1587.44  3072.39  3072.83  3074.52  3074.96  3082.57
eigval :     3083.21  3087.30  3088.39  3093.75  3093.86  3094.88
eigval :     3096.71  3101.75  3104.76  3107.77  3110.40  3111.48
eigval :     3115.21  3115.89  3120.42

   temp. (K)  partition function   enthalpy   heat capacity  entropy
                                   cal/mol     cal/K/mol   cal/K/mol   J/K/mol
 298.15  VIB  0.209E+13            16479.424    105.976    101.361
         ROT  0.392E+08              888.752      2.981     37.724
         INT  0.820E+20            17368.177    108.957    139.085
         TR   0.102E+29             1481.254      4.968     44.383
         TOT                       18849.4306   113.9249   183.4683   767.6313

       T/K    H(0)-H(T)+PV         H(T)/Eh          T*S/Eh         G(T)/Eh
   ------------------------------------------------------------------------
    298.15    0.300385E-01    0.449176E+00    0.871717E-01    0.362004E+00
   ------------------------------------------------------------------------

         :::::::::::::::::::::::::::::::::::::::::::::::::::::
         ::                  THERMODYNAMIC                  ::
         :::::::::::::::::::::::::::::::::::::::::::::::::::::
         :: total free energy         -95.931324917659 Eh   ::
         ::.................................................::
         :: total energy              -96.293328906888 Eh   ::
         :: zero point energy           0.419137215897 Eh   ::
         :: G(RRHO) w/o ZPVE           -0.057133226668 Eh   ::
         :: G(RRHO) contrib.            0.362003989229 Eh   ::
         :::::::::::::::::::::::::::::::::::::::::::::::::::::

           -------------------------------------------------
          | TOTAL ENERGY              -96.293328906888 Eh   |
          | TOTAL ENTHALPY            -95.844153211258 Eh   |
          | TOTAL FREE ENERGY         -95.931324917659 Eh   |
          | GRADIENT NORM               0.000042308340 Eh/α |
          | HOMO-LUMO GAP               0.943332268531 eV   |
           -------------------------------------------------

 * finished run on 2025/07/18 at 17:19:14.228
