   * xtb version 6.7.1 (edcfbbe) compiled by 'albert@albert-system' on 2024-07-22

   ID    Z sym.   atoms
    1    9 F      1
    2    6 C      2-4, 6-19, 21-23, 25-30, 32-37
    3    7 N      5, 20, 24
    4    8 O      31
    5    1 H      38-57

          program call               : xtb data2507/toluene/FDQPXZ/FDQPXZ_toluene_T1_crest.xyz --gfn 2 --uhf 2 --gbsa toluene --ohess vtight --parallel 40 --molden --ceasefiles --namespace data2507/toluene/FDQPXZ/FDQPXZ_toluene_T1_finalOpt
      * Solvation model:               GBSA
        Solvent                        toluene
        Solvent mass                       9.2140E+01 g/mol
          :  Hamiltonian                  GFN2-xTB          :
 * total energy  :   -96.2932234 Eh     change       -0.1007569E-07 Eh
 * total energy  :   -96.2932800 Eh     change       -0.5654884E-04 Eh
 * total energy  :   -96.2933054 Eh     change       -0.2539437E-04 Eh
 * total energy  :   -96.2933099 Eh     change       -0.4505159E-05 Eh
 * total energy  :   -96.2933128 Eh     change       -0.2935754E-05 Eh
 * total energy  :   -96.2933150 Eh     change       -0.2231628E-05 Eh
 * total energy  :   -96.2933172 Eh     change       -0.2173916E-05 Eh
 * total energy  :   -96.2933185 Eh     change       -0.1328810E-05 Eh
 * total energy  :   -96.2933192 Eh     change       -0.6875298E-06 Eh
 * total energy  :   -96.2933199 Eh     change       -0.6573257E-06 Eh
 * total energy  :   -96.2933238 Eh     change       -0.7134736E-06 Eh
 * total energy  :   -96.2933243 Eh     change       -0.4645742E-06 Eh
 * total energy  :   -96.2933246 Eh     change       -0.3431179E-06 Eh
 * total energy  :   -96.2933249 Eh     change       -0.3171470E-06 Eh
 * total energy  :   -96.2933252 Eh     change       -0.2986081E-06 Eh
 * total energy  :   -96.2933255 Eh     change       -0.2573324E-06 Eh
 * total energy  :   -96.2933257 Eh     change       -0.2081897E-06 Eh
 * total energy  :   -96.2933259 Eh     change       -0.1957830E-06 Eh
 * total energy  :   -96.2933259 Eh     change       -0.3211909E-08 Eh
   *** GEOMETRY OPTIMIZATION CONVERGED AFTER 22 ITERATIONS ***

 final structure:
================
57
 xtb: 6.7.1 (edcfbbe)
F           -2.53766143506795       -2.44058637755016       -1.11963341842594
C           -1.53223097858133       -1.61003866158048       -0.72936132113962
C           -0.22234569792525       -2.02047321930582       -0.90568308222035
C            0.82198660700671       -1.17491820186197       -0.52384109058332
N            2.09687806156376       -1.49531297118968       -0.71548214362197
C            3.08884793321349       -0.68187001809285       -0.34069216571546
C            4.44638221980204       -1.07475914882382       -0.71666395128668
C            5.37332173091533       -0.14655839310180       -1.19247627390902
C            6.63776998944597       -0.55586636520121       -1.56915089269161
C            6.99623802280077       -1.89258232383603       -1.48454072503886
C            6.07391657383637       -2.82396453466655       -1.03458551446713
C            4.80650046959201       -2.42210293972052       -0.65935728980304
C            2.78222410526242        0.50740708377751        0.34815011121658
C            3.79880708540026        1.36944883401194        0.95539682073329
C            4.88801056022677        0.83598106239561        1.64447163410580
C            5.81469748614693        1.67242931427158        2.23636838440213
C            5.66791789928466        3.04871435066676        2.15555467440739
C            4.57649273826595        3.58579063300647        1.49185844469087
C            3.64397731204400        2.75482362197961        0.90063978097959
N            1.51050841282107        0.87321200159575        0.49868862267150
C            0.50512536119162        0.10190032179776        0.07560640353638
C           -0.82661992242475        0.47332113173373        0.22858863787406
C           -1.85862171386174       -0.38049812872687       -0.17529936294373
N           -3.21669889433761       -0.00235098505521       -0.01840462160703
C           -3.78842731673369        0.92695703627453       -0.87489374504752
C           -3.05201249787747        1.58234694669380       -1.85917136912551
C           -3.65905734911411        2.50431242109129       -2.69279292436987
C           -5.00958689397379        2.78629801431557       -2.56477440467024
C           -5.76060786700891        2.13541420036524       -1.60027086755564
C           -5.16123626634664        1.21013700646177       -0.76110185479641
O           -5.95770427920388        0.58892351925864        0.16016409946303
C           -5.37741995223722       -0.32067415032039        0.99974005230164
C           -6.19137870115185       -0.93241991391939        1.93899484482226
C           -5.65641839409296       -1.84955631590832        2.82813704407138
C           -4.30329974959211       -2.14472380823362        2.78348740143147
C           -3.48366698378393       -1.53881148535729        1.84880876217992
C           -4.00712545613669       -0.62854730693819        0.93371122214594
H           -0.00538642386788       -2.97534395313552       -1.35411132590165
H            5.09475551913646        0.89347149083699       -1.27843019230292
H            7.34612714195630        0.17191710219227       -1.93717565700780
H            7.98730085192557       -2.20742750915624       -1.77587409793178
H            6.34275334372302       -3.86883011280285       -0.97754459431438
H            4.08019690321337       -3.14122330498061       -0.31053568411240
H            4.99913058107645       -0.23549638388282        1.72381432137092
H            6.65364245654611        1.24757820979916        2.76785873014894
H            6.39724111965052        3.69899107750175        2.61540103884370
H            4.45013181218064        4.65728379162472        1.43592422843561
H            2.78893738007590        3.16491184651237        0.38400353767436
H           -1.05893836362116        1.42218341754914        0.68383419959641
H           -2.00206949321263        1.36130573719061       -1.96700573628719
H           -3.06957682087489        3.00062878442244       -3.44766584357439
H           -5.48138780461735        3.50498456366774       -3.21552983504533
H           -6.81546165249164        2.32491128008268       -1.48221066059142
H           -7.23815535079299       -0.67439564603680        1.95507932961018
H           -6.29497370896461       -2.32520333899696        3.55516218137722
H           -3.87761148584548       -2.84979871543097        3.48015450400791
H           -2.42933898956346       -1.76604347956414        1.82302511158934

          :  Hamiltonian                  GFN2-xTB          :
         :: gradient norm              0.000041920809 Eh/a0 ::
         :: HOMO-LUMO gap              0.940668179924 eV    ::
         :: SCC energy               -97.920715423116 Eh    ::
         :: -> dispersion             -0.077628249893 Eh    ::
         :: -> Gsolv                  -0.040721371297 Eh    ::
         :: repulsion energy           1.627389525573 Eh    ::

    * Orbital Energies and Occupations

         #    Occupation            Energy/Eh            Energy/eV
      -------------------------------------------------------------
         1        2.0000           -0.8250011             -22.4494
       ...           ...                  ...                  ...
        77        2.0000           -0.4288989             -11.6709
        78        2.0000           -0.4276208             -11.6362
        79        2.0000           -0.4225929             -11.4993
        80        2.0000           -0.4221807             -11.4881
        81        2.0000           -0.4155684             -11.3082
        82        2.0000           -0.4101346             -11.1603
        83        2.0000           -0.4074449             -11.0871
        84        2.0000           -0.4065779             -11.0635
        85        2.0000           -0.3993725             -10.8675
        86        2.0000           -0.3906738             -10.6308
        87        1.7091           -0.3605161              -9.8101
        88        1.2909           -0.3588234              -9.7641
        89        1.0000           -0.3000758              -8.1655 (HOMO)
        90                         -0.2655068              -7.2248 (LUMO)
        91                         -0.2564457              -6.9782
        92                         -0.2449003              -6.6641
        93                         -0.2319053              -6.3105
        94                         -0.2292811              -6.2391
        95                         -0.2266336              -6.1670
        96                         -0.2230840              -6.0704
        97                         -0.2227129              -6.0603
        98                         -0.2120659              -5.7706
        99                         -0.2098785              -5.7111
       100                         -0.1628911              -4.4325
       ...                                ...                  ...
       168                          0.6865145              18.6810
      -------------------------------------------------------------
                  HL-Gap            0.0345690 Eh            0.9407 eV

     #   Z          covCN         q      C6AA      α(0)
     1   9 F        0.786    -0.251    11.776     4.053
     2   6 C        2.780     0.144    24.855     8.166
     3   6 C        2.915    -0.091    30.293     9.025
     4   6 C        2.942     0.087    26.071     8.374
     5   7 N        1.852    -0.243    27.189     7.728
     6   6 C        2.932     0.073    26.379     8.423
     7   6 C        2.978     0.007    27.860     8.658
     8   6 C        2.922    -0.033    28.829     8.805
     9   6 C        2.918    -0.029    28.717     8.788
    10   6 C        2.919    -0.031    28.762     8.795
    11   6 C        2.918    -0.029    28.722     8.788
    12   6 C        2.925    -0.030    28.740     8.792
    13   6 C        2.931     0.076    26.304     8.411
    14   6 C        2.979     0.007    27.848     8.656
    15   6 C        2.922    -0.032    28.806     8.802
    16   6 C        2.918    -0.028    28.709     8.786
    17   6 C        2.919    -0.030    28.745     8.792
    18   6 C        2.918    -0.029    28.715     8.787
    19   6 C        2.925    -0.029    28.729     8.790
    20   7 N        1.852    -0.243    27.200     7.730
    21   6 C        2.937     0.081    26.197     8.394
    22   6 C        2.922    -0.082    30.054     8.990
    23   6 C        2.915     0.026    27.412     8.586
    24   7 N        2.752    -0.029    21.805     6.935
    25   6 C        2.925     0.048    26.928     8.510
    26   6 C        2.921    -0.052    29.280     8.874
    27   6 C        2.918    -0.031    28.763     8.795
    28   6 C        2.919    -0.031    28.767     8.795
    29   6 C        2.917    -0.052    29.294     8.875
    30   6 C        2.884     0.130    25.161     8.223
    31   8 O        1.709    -0.232    17.848     5.704
    32   6 C        2.884     0.129    25.168     8.225
    33   6 C        2.917    -0.052    29.296     8.876
    34   6 C        2.919    -0.031    28.769     8.796
    35   6 C        2.918    -0.031    28.767     8.795
    36   6 C        2.921    -0.049    29.206     8.862
    37   6 C        2.925     0.050    26.873     8.501
    38   1 H        0.926     0.062     2.176     2.307
    39   1 H        0.926     0.028     2.609     2.526
    40   1 H        0.926     0.038     2.482     2.464
    41   1 H        0.926     0.039     2.465     2.455
    42   1 H        0.926     0.039     2.464     2.455
    43   1 H        0.926     0.038     2.469     2.457
    44   1 H        0.926     0.028     2.608     2.526
    45   1 H        0.926     0.038     2.475     2.460
    46   1 H        0.926     0.040     2.453     2.449
    47   1 H        0.926     0.040     2.447     2.446
    48   1 H        0.926     0.040     2.448     2.447
    49   1 H        0.926     0.058     2.223     2.331
    50   1 H        0.926     0.048     2.341     2.393
    51   1 H        0.926     0.056     2.248     2.344
    52   1 H        0.926     0.059     2.207     2.323
    53   1 H        0.926     0.065     2.142     2.289
    54   1 H        0.926     0.065     2.142     2.289
    55   1 H        0.926     0.059     2.209     2.324
    56   1 H        0.926     0.055     2.258     2.350
    57   1 H        0.926     0.045     2.386     2.415

molecular dipole:
                 x           y           z       tot (Debye)
 q only:       -0.721       1.098       0.477
   full:       -0.707       0.991       0.438       3.289

 projected vibrational frequencies (cm⁻¹)
eigval :       -0.00    -0.00    -0.00    -0.00     0.00     0.00
eigval :        9.00    18.53    21.41    38.36    42.08    46.25
eigval :       49.64    58.61    77.07    78.24   107.02   133.12
eigval :      135.73   143.60   162.90   208.80   212.23   243.26
eigval :      245.85   250.20   253.22   256.60   265.37   304.67
eigval :      325.40   338.28   361.60   371.29   376.61   391.74
eigval :      407.50   428.61   429.97   436.47   441.80   450.64
eigval :      470.05   499.14   499.99   518.71   520.01   529.44
eigval :      549.91   571.90   576.12   579.06   587.01   589.75
eigval :      614.01   624.15   630.77   657.13   666.00   666.80
eigval :      668.70   670.34   681.85   690.92   711.02   729.96
eigval :      753.97   757.12   774.14   774.42   777.39   785.88
eigval :      788.70   838.26   855.19   864.77   865.05   867.12
eigval :      869.86   895.48   898.88   899.47   900.51   909.21
eigval :      914.20   915.36   916.45   922.87   924.15   925.03
eigval :      925.76   927.67   973.40  1006.35  1078.03  1079.09
eigval :     1080.71  1082.71  1085.09  1099.55  1112.28  1117.10
eigval :     1118.50  1132.55  1164.12  1170.98  1173.60  1177.67
eigval :     1178.04  1179.77  1191.88  1195.09  1200.90  1205.49
eigval :     1227.48  1236.15  1252.46  1256.36  1271.28  1275.01
eigval :     1277.21  1280.34  1293.38  1307.72  1309.81  1316.64
eigval :     1318.04  1321.69  1342.91  1366.04  1393.26  1408.88
eigval :     1417.04  1427.15  1427.40  1439.47  1441.83  1462.48
eigval :     1467.86  1470.44  1484.15  1500.92  1520.88  1556.55
eigval :     1563.06  1569.56  1571.14  1573.25  1584.53  1586.77
eigval :     1587.49  3072.01  3073.05  3074.00  3075.51  3082.34
eigval :     3084.17  3087.18  3089.43  3093.30  3094.61  3095.14
eigval :     3096.56  3101.81  3104.41  3107.75  3109.31  3111.06
eigval :     3115.13  3116.01  3119.62

   temp. (K)  partition function   enthalpy   heat capacity  entropy
                                   cal/mol     cal/K/mol   cal/K/mol   J/K/mol
 298.15  VIB  0.487E+13            16533.156    105.782    102.079
         ROT  0.392E+08              888.752      2.981     37.725
         INT  0.191E+21            17421.908    108.763    139.803
         TR   0.102E+29             1481.254      4.968     44.383
         TOT                       18903.1623   113.7311   184.1865   770.6362

       T/K    H(0)-H(T)+PV         H(T)/Eh          T*S/Eh         G(T)/Eh
   ------------------------------------------------------------------------
    298.15    0.301241E-01    0.449041E+00    0.875129E-01    0.361528E+00
   ------------------------------------------------------------------------

         :::::::::::::::::::::::::::::::::::::::::::::::::::::
         ::                  THERMODYNAMIC                  ::
         :::::::::::::::::::::::::::::::::::::::::::::::::::::
         :: total free energy         -95.931797907523 Eh   ::
         ::.................................................::
         :: total energy              -96.293325899541 Eh   ::
         :: zero point energy           0.418916824423 Eh   ::
         :: G(RRHO) w/o ZPVE           -0.057388832405 Eh   ::
         :: G(RRHO) contrib.            0.361527992018 Eh   ::
         :::::::::::::::::::::::::::::::::::::::::::::::::::::

           -------------------------------------------------
          | TOTAL ENERGY              -96.293325899541 Eh   |
          | TOTAL ENTHALPY            -95.844284968524 Eh   |
          | TOTAL FREE ENERGY         -95.931797907523 Eh   |
          | GRADIENT NORM               0.000048596018 Eh/α |
          | HOMO-LUMO GAP               0.940670352217 eV   |
           -------------------------------------------------

 * finished run on 2025/07/18 at 17:22:09.134
