   * xtb version 6.7.1 (edcfbbe) compiled by 'albert@albert-system' on 2024-07-22

   ID    Z sym.   atoms
    1    9 F      1
    2    6 C      2-4, 6-19, 21-23, 25-30, 32-37
    3    7 N      5, 20, 24
    4    8 O      31
    5    1 H      38-57

          program call               : xtb data2507/toluene/FDQPXZ/FDQPXZ_toluene_S0_crest.xyz --gfn 2 --gbsa toluene --ohess vtight --parallel 40 --molden --ceasefiles --namespace data2507/toluene/FDQPXZ/FDQPXZ_toluene_S0_finalOpt
      * Solvation model:               GBSA
        Solvent                        toluene
        Solvent mass                       9.2140E+01 g/mol
          :  Hamiltonian                  GFN2-xTB          :
 * total energy  :   -96.3472783 Eh     change       -0.9166001E-09 Eh
 * total energy  :   -96.3473178 Eh     change       -0.3943698E-04 Eh
 * total energy  :   -96.3473311 Eh     change       -0.1327333E-04 Eh
 * total energy  :   -96.3473349 Eh     change       -0.3867958E-05 Eh
 * total energy  :   -96.3473385 Eh     change       -0.3567153E-05 Eh
 * total energy  :   -96.3473410 Eh     change       -0.2520449E-05 Eh
 * total energy  :   -96.3473430 Eh     change       -0.1989113E-05 Eh
 * total energy  :   -96.3473442 Eh     change       -0.1219216E-05 Eh
 * total energy  :   -96.3473451 Eh     change       -0.8633840E-06 Eh
 * total energy  :   -96.3473459 Eh     change       -0.8646723E-06 Eh
 * total energy  :   -96.3473503 Eh     change       -0.9422997E-06 Eh
 * total energy  :   -96.3473508 Eh     change       -0.5767231E-06 Eh
 * total energy  :   -96.3473513 Eh     change       -0.4418483E-06 Eh
 * total energy  :   -96.3473516 Eh     change       -0.3680046E-06 Eh
 * total energy  :   -96.3473520 Eh     change       -0.3216240E-06 Eh
 * total energy  :   -96.3473522 Eh     change       -0.2766899E-06 Eh
 * total energy  :   -96.3473525 Eh     change       -0.2851190E-06 Eh
 * total energy  :   -96.3473528 Eh     change       -0.2961514E-06 Eh
 * total energy  :   -96.3473528 Eh     change       -0.4828294E-08 Eh
   *** GEOMETRY OPTIMIZATION CONVERGED AFTER 22 ITERATIONS ***

 final structure:
================
57
 xtb: 6.7.1 (edcfbbe)
F           -2.54044980850545        2.42383211779986        1.02824250922906
C           -1.52236626045182        1.61493057453925        0.65426952947044
C           -0.23970369830088        2.04580302746522        0.82062004385100
C            0.81582458752692        1.18214448009570        0.46743029583196
N            2.08984612061748        1.53591618443197        0.70844567186802
C            3.05384923600848        0.71724051045823        0.35255985714216
C            4.41101860197080        1.07433233887393        0.77811668452763
C            5.29284986408704        0.10677640158320        1.25766920309972
C            6.55903558276371        0.46969453502935        1.67635817847535
C            6.96094633287937        1.79497116386654        1.61983605337469
C            6.08295752490978        2.76380789998284        1.16057098496511
C            4.81150243577723        2.40895014995845        0.75092846881299
C            2.75749309288623       -0.48119206732331       -0.38254045546616
C            3.79552748324224       -1.29347744240498       -1.02644996107779
C            4.87364546724013       -0.69718215765392       -1.67887739813068
C            5.82870902174011       -1.48119071396993       -2.29816147870023
C            5.72233980887546       -2.86289921697210       -2.27235553435761
C            4.64340995817440       -3.46098655028623       -1.64099614968491
C            3.67917038698645       -2.68231125729977       -1.02914817978424
N            1.51659251468341       -0.88050125423961       -0.53542526294841
C            0.51904385066933       -0.09391344909021       -0.08651013492398
C           -0.81774915321452       -0.50326071456480       -0.23114076723508
C           -1.84556754812485        0.33535662738437        0.13498029483054
N           -3.19185071937722       -0.04477736117593        0.01151580748723
C           -3.72294301443109       -1.09850622981688        0.76749245349869
C           -2.94122088633061       -1.89920888575782        1.59027379500763
C           -3.50825058733890       -2.92551787918784        2.33091906934621
C           -4.86618526473344       -3.16553953447676        2.26646186760112
C           -5.66394613645831       -2.36092771375166        1.46721646855643
C           -5.10410559402282       -1.33230486796922        0.73049651904353
O           -5.96878420819921       -0.55927759189569       -0.00684330529169
C           -5.42450631446890        0.42985488788105       -0.78944864896880
C           -6.29224736714378        1.15173603762411       -1.58861571768720
C           -5.80740907479545        2.14338842587430       -2.42846693376926
C           -4.45003528217266        2.39027213201439       -2.47992492013415
C           -3.57673066854801        1.66761402650720       -1.68164171552228
C           -4.05109088787927        0.69954447978090       -0.80580503890392
H           -0.02540201440619        3.01537897547876        1.24031532114096
H            4.97868759166922       -0.92482178810828        1.31878642370831
H            7.23415876844468       -0.28575813566128        2.05006918891769
H            7.95440738797804        2.07255988834017        1.93940702093989
H            6.38873051378603        3.79898823647951        1.12473896206932
H            4.11614487059060        3.15393847376056        0.39477358229339
H            4.95209516950905        0.37956963996708       -1.71511975387377
H            6.65878839560752       -1.01080764482838       -2.80405277379994
H            6.47563374831797       -3.47166925499232       -2.74990779691799
H            4.55186674835553       -4.53702735892662       -1.62816964163739
H            2.83143412588180       -3.13463009507013       -0.53704495061347
H           -1.02124321855416       -1.47499457610766       -0.65312874039747
H           -1.88112138600721       -1.71513958056329        1.66391953970967
H           -2.87486779043054       -3.53155749989355        2.96006938404760
H           -5.31227587336907       -3.96466471586339        2.83689103331382
H           -6.73082664484550       -2.50739481187607        1.40715092408643
H           -7.34462158791969        0.92079109525401       -1.53885707224166
H           -6.49190402345611        2.70601591223651       -3.04328792312184
H           -4.05584505766705        3.14380135894694       -3.14409531888239
H           -2.51595390462714        1.85879669101475       -1.74296817517432

          :  Hamiltonian                  GFN2-xTB          :
         :: gradient norm              0.000048046088 Eh/a0 ::
         :: HOMO-LUMO gap              1.158669735496 eV    ::
         :: SCC energy               -97.977712964581 Eh    ::
         :: -> dispersion             -0.077839659620 Eh    ::
         :: -> Gsolv                  -0.039373458358 Eh    ::
         :: repulsion energy           1.630360135090 Eh    ::

    * Orbital Energies and Occupations

         #    Occupation            Energy/Eh            Energy/eV
      -------------------------------------------------------------
         1        2.0000           -0.8370182             -22.7764
       ...           ...                  ...                  ...
        76        2.0000           -0.4315591             -11.7433
        77        2.0000           -0.4286575             -11.6644
        78        2.0000           -0.4276968             -11.6382
        79        2.0000           -0.4260783             -11.5942
        80        2.0000           -0.4205850             -11.4447
        81        2.0000           -0.4181905             -11.3795
        82        2.0000           -0.4173790             -11.3575
        83        2.0000           -0.4124510             -11.2234
        84        2.0000           -0.4118310             -11.2065
        85        2.0000           -0.3990119             -10.8577
        86        2.0000           -0.3956544             -10.7663
        87        2.0000           -0.3665663              -9.9748
        88        2.0000           -0.3513586              -9.5610 (HOMO)
        89                         -0.3087782              -8.4023 (LUMO)
        90                         -0.2770305              -7.5384
        91                         -0.2435282              -6.6267
        92                         -0.2397388              -6.5236
        93                         -0.2350461              -6.3959
        94                         -0.2348338              -6.3902
        95                         -0.2337632              -6.3610
        96                         -0.2291364              -6.2351
        97                         -0.2215979              -6.0300
        98                         -0.2196327              -5.9765
        99                         -0.2017881              -5.4909
       ...                                ...                  ...
       168                          0.6782929              18.4573
      -------------------------------------------------------------
                  HL-Gap            0.0425803 Eh            1.1587 eV

     #   Z          covCN         q      C6AA      α(0)
     1   9 F        0.787    -0.229    11.543     4.013
     2   6 C        2.784     0.156    24.611     8.126
     3   6 C        2.914    -0.065    29.628     8.926
     4   6 C        2.967     0.077    26.274     8.408
     5   7 N        1.851    -0.244    27.213     7.732
     6   6 C        2.950     0.089    26.010     8.365
     7   6 C        2.981     0.004    27.930     8.669
     8   6 C        2.923    -0.029    28.736     8.791
     9   6 C        2.919    -0.027    28.674     8.781
    10   6 C        2.920    -0.025    28.635     8.775
    11   6 C        2.918    -0.026    28.664     8.780
    12   6 C        2.925    -0.026    28.648     8.777
    13   6 C        2.948     0.090    25.990     8.361
    14   6 C        2.981     0.004    27.933     8.670
    15   6 C        2.923    -0.029    28.733     8.790
    16   6 C        2.919    -0.027    28.673     8.781
    17   6 C        2.920    -0.025    28.632     8.775
    18   6 C        2.918    -0.026    28.662     8.779
    19   6 C        2.925    -0.026    28.645     8.777
    20   7 N        1.852    -0.244    27.219     7.732
    21   6 C        2.959     0.075    26.332     8.417
    22   6 C        2.923    -0.060    29.488     8.905
    23   6 C        2.914     0.053    26.806     8.490
    24   7 N        2.750    -0.064    22.482     7.042
    25   6 C        2.920     0.042    27.067     8.532
    26   6 C        2.923    -0.060    29.489     8.905
    27   6 C        2.919    -0.038    28.935     8.821
    28   6 C        2.919    -0.039    28.961     8.825
    29   6 C        2.920    -0.056    29.397     8.891
    30   6 C        2.883     0.124    25.268     8.241
    31   8 O        1.708    -0.265    18.389     5.790
    32   6 C        2.883     0.124    25.278     8.242
    33   6 C        2.920    -0.057    29.409     8.893
    34   6 C        2.919    -0.038    28.957     8.824
    35   6 C        2.919    -0.038    28.948     8.823
    36   6 C        2.924    -0.054    29.346     8.884
    37   6 C        2.923     0.046    26.977     8.518
    38   1 H        0.926     0.081     1.973     2.197
    39   1 H        0.926     0.031     2.568     2.506
    40   1 H        0.926     0.043     2.413     2.429
    41   1 H        0.926     0.045     2.389     2.417
    42   1 H        0.926     0.044     2.393     2.419
    43   1 H        0.926     0.046     2.375     2.410
    44   1 H        0.926     0.031     2.571     2.507
    45   1 H        0.926     0.043     2.414     2.430
    46   1 H        0.926     0.045     2.388     2.416
    47   1 H        0.926     0.045     2.388     2.417
    48   1 H        0.926     0.046     2.364     2.405
    49   1 H        0.926     0.075     2.029     2.227
    50   1 H        0.926     0.038     2.478     2.462
    51   1 H        0.926     0.046     2.374     2.409
    52   1 H        0.926     0.048     2.347     2.396
    53   1 H        0.926     0.053     2.278     2.360
    54   1 H        0.926     0.053     2.281     2.362
    55   1 H        0.926     0.047     2.352     2.398
    56   1 H        0.926     0.044     2.394     2.419
    57   1 H        0.926     0.031     2.566     2.505

molecular dipole:
                 x           y           z       tot (Debye)
 q only:        1.944      -0.736      -0.345
   full:        1.924      -0.631      -0.307       5.205

 projected vibrational frequencies (cm⁻¹)
eigval :       -0.00    -0.00     0.00     0.00     0.00     0.00
eigval :       12.56    20.84    27.28    39.12    43.71    45.79
eigval :       58.77    60.12    73.96    79.75   117.91   131.44
eigval :      137.82   147.33   170.80   201.21   216.92   244.70
eigval :      250.31   251.88   256.51   268.76   285.71   309.97
eigval :      325.90   352.70   366.40   373.30   374.66   391.51
eigval :      404.14   429.67   433.60   438.17   443.48   459.43
eigval :      472.44   502.85   509.47   513.84   522.28   534.77
eigval :      556.07   574.05   581.54   586.43   592.01   593.40
eigval :      616.78   648.21   655.31   659.86   662.05   665.90
eigval :      673.31   689.57   696.08   714.07   747.27   751.46
eigval :      763.94   777.65   778.23   779.92   791.71   844.24
eigval :      848.83   853.95   864.45   864.63   871.96   873.30
eigval :      881.77   896.95   901.87   903.03   906.05   908.59
eigval :      914.54   917.58   917.87   925.18   927.29   930.37
eigval :      934.31   942.05   973.97  1017.58  1077.31  1080.09
eigval :     1083.32  1088.71  1092.29  1095.41  1107.47  1116.60
eigval :     1117.81  1131.68  1163.40  1173.18  1177.60  1177.85
eigval :     1178.43  1184.23  1191.18  1194.00  1199.52  1199.84
eigval :     1240.94  1247.91  1260.09  1263.64  1266.16  1273.31
eigval :     1278.39  1283.21  1304.84  1317.65  1319.74  1326.60
eigval :     1335.84  1347.30  1383.45  1414.77  1419.24  1423.44
eigval :     1430.55  1433.55  1441.97  1461.43  1472.13  1474.04
eigval :     1478.39  1498.31  1506.75  1522.64  1568.26  1577.18
eigval :     1577.56  1578.98  1585.77  1590.86  1591.39  1594.08
eigval :     1600.94  3075.69  3077.02  3078.61  3079.33  3084.90
eigval :     3084.99  3085.88  3090.11  3091.62  3092.38  3093.15
eigval :     3097.36  3097.56  3098.72  3100.89  3106.27  3106.97
eigval :     3110.22  3111.76  3114.90

   temp. (K)  partition function   enthalpy   heat capacity  entropy
                                   cal/mol     cal/K/mol   cal/K/mol   J/K/mol
 298.15  VIB  0.151E+13            16298.202    104.828    100.156
         ROT  0.389E+08              888.752      2.981     37.710
         INT  0.588E+20            17186.954    107.809    137.866
         TR   0.102E+29             1481.254      4.968     44.383
         TOT                       18668.2079   112.7771   182.2490   762.5300

       T/K    H(0)-H(T)+PV         H(T)/Eh          T*S/Eh         G(T)/Eh
   ------------------------------------------------------------------------
    298.15    0.297497E-01    0.451385E+00    0.865924E-01    0.364793E+00
   ------------------------------------------------------------------------

         :::::::::::::::::::::::::::::::::::::::::::::::::::::
         ::                  THERMODYNAMIC                  ::
         :::::::::::::::::::::::::::::::::::::::::::::::::::::
         :: total free energy         -95.982560210702 Eh   ::
         ::.................................................::
         :: total energy              -96.347352830717 Eh   ::
         :: zero point energy           0.421635333745 Eh   ::
         :: G(RRHO) w/o ZPVE           -0.056842713731 Eh   ::
         :: G(RRHO) contrib.            0.364792620014 Eh   ::
         :::::::::::::::::::::::::::::::::::::::::::::::::::::

           -------------------------------------------------
          | TOTAL ENERGY              -96.347352830717 Eh   |
          | TOTAL ENTHALPY            -95.895967814031 Eh   |
          | TOTAL FREE ENERGY         -95.982560210702 Eh   |
          | GRADIENT NORM               0.000048036139 Eh/α |
          | HOMO-LUMO GAP               1.158669653939 eV   |
           -------------------------------------------------

 * finished run on 2025/07/18 at 17:19:10.175
