   * xtb version 6.7.1 (edcfbbe) compiled by 'albert@albert-system' on 2024-07-22

   ID    Z sym.   atoms
    1    6 C      1-6, 8-13, 15-25, 27-32, 34-39, 41-44, 46
    2    8 O      7
    3    7 N      14, 26, 33, 40, 45
    4    1 H      47-69

          program call               : xtb data2507/gas/pDPAPQ-PXZ/pDPAPQ-PXZ_gas_T1_crest.xyz --gfn 2 --spinpol --tblite --uhf 2 --ohess vtight --parallel 40 --molden --ceasefiles --namespace data2507/gas/pDPAPQ-PXZ/pDPAPQ-PXZ_gas_T1_finalOpt
 * total energy  :  -116.0568520 Eh     change       -0.5500652E-08 Eh
 * total energy  :  -116.0569459 Eh     change       -0.9385108E-04 Eh
 * total energy  :  -116.0571134 Eh     change       -0.1675641E-03 Eh
 * total energy  :  -116.0571447 Eh     change       -0.3131353E-04 Eh
 * total energy  :  -116.0571687 Eh     change       -0.2399284E-04 Eh
 * total energy  :  -116.0571709 Eh     change       -0.2194669E-05 Eh
 * total energy  :  -116.0571704 Eh     change        0.5371881E-06 Eh
 * total energy  :  -116.0571721 Eh     change       -0.1734695E-05 Eh
 * total energy  :  -116.0571729 Eh     change       -0.7574593E-06 Eh
 * total energy  :  -116.0571740 Eh     change       -0.1075188E-05 Eh
 * total energy  :  -116.0571770 Eh     change        0.1151091E-07 Eh
 * total energy  :  -116.0571772 Eh     change       -0.2312797E-06 Eh
 * total energy  :  -116.0571774 Eh     change       -0.2024863E-06 Eh
 * total energy  :  -116.0571774 Eh     change        0.2394341E-07 Eh
 * total energy  :  -116.0571776 Eh     change       -0.1879961E-06 Eh
 * total energy  :  -116.0571777 Eh     change       -0.1242180E-06 Eh
 * total energy  :  -116.0571778 Eh     change       -0.1344907E-06 Eh
 * total energy  :  -116.0571778 Eh     change        0.1616088E-07 Eh
 * total energy  :  -116.0571778 Eh     change       -0.6811447E-08 Eh
   *** GEOMETRY OPTIMIZATION CONVERGED AFTER 23 ITERATIONS ***

 final structure:
================
69
 xtb: 6.7.1 (edcfbbe)
C            7.41418311511781        2.08817360144098       -2.80663935848056
C            6.03305213348137        2.04392149584941       -2.86716113098903
C            5.31865886034265        1.23360181070815       -2.00182702930715
C            5.97780542234436        0.45775076389640       -1.05309390788728
C            7.38088727128887        0.49399669873539       -1.01232381145004
C            8.08759245185495        1.30679350902040       -1.88081833961373
O            8.10502849905277       -0.26677366766651       -0.13330893703088
C            7.41243015166601       -1.07340670919907        0.73017376990585
C            8.15177091807584       -1.83408134809849        1.61842619692470
C            7.51140839815393       -2.65572976764063        2.53268943734973
C            6.12943160688676       -2.70372478147327        2.56166009372554
C            5.38259654739362       -1.94715499544704        1.67520031177847
C            6.00926738890569       -1.13191983689689        0.73775146129543
N            5.29136227021897       -0.36201562237892       -0.16736378082303
C            3.87379230454322       -0.39978653691796       -0.18201742109906
C            3.21926265397299       -1.52178768668999       -0.66846775367073
C            1.82942311800324       -1.63556071711232       -0.71591746492906
C            1.06625411313133       -0.57318580868808       -0.25358163557455
C            1.74416568079385        0.57206637611519        0.24637836218150
C            0.83964532055080        1.56269571321660        0.68471435734350
C            1.33684545869476        2.73803225395880        1.20735983376726
C            2.72827798554145        2.88867466809899        1.28062735289999
C            3.61134335199409        1.92053034936636        0.85058710917151
C            3.12978688817549        0.71028258432509        0.30632613722643
C           -0.48278108028626        1.02508654186863        0.44953568481311
N           -1.66182129777255        1.52230953189482        0.67051703205530
C           -2.76178787079991        0.81338305522700        0.36207836227508
C           -4.03915544334902        1.30849981956785        0.59238563310892
C           -5.17934632948076        0.57815366454099        0.27985899762270
C           -6.49550375425636        1.13560768077648        0.61392539373636
C           -6.81444001873122        2.45847642404905        0.30667512341474
C           -8.06459337574101        2.94137562307639        0.65109019656332
N           -8.98448215243853        2.21863650123442        1.26818699944767
C           -8.68002840836635        0.96815749497183        1.57424240410164
C           -7.46370115094758        0.38007402385985        1.27643612841589
C           -5.04058374149303       -0.69496234290182       -0.30667647699886
C           -6.21161581979832       -1.47340082009551       -0.73795805089998
C           -6.33550998448711       -2.82362008011733       -0.41472665557506
C           -7.45051470729264       -3.51494493257302       -0.85651306305495
N           -8.41064437241258       -2.96720678018091       -1.58202007032671
C           -8.28827208123113       -1.68988699674882       -1.90236529881324
C           -7.22001707681915       -0.90112017112678       -1.51249615489556
C           -3.77753205407239       -1.21349993548359       -0.53736673978226
C           -2.61577736400312       -0.50484932279035       -0.21821747424867
N           -1.40219462197231       -1.00154203606025       -0.43783625111435
C           -0.32719341250380       -0.29895798056199       -0.13161607152996
H            7.97175137296958        2.72058602108921       -3.47896201333008
H            5.50117056083342        2.63978071631670       -3.59238392557878
H            4.24240493025468        1.19668040251915       -2.05905343373083
H            9.16386535882219        1.31041210133979       -1.81737266002767
H            9.22702660754681       -1.76546168505414        1.57947549881502
H            8.09448117275477       -3.24694552892268        3.22066822012753
H            5.62213338008795       -3.33064380458952        3.27831345275465
H            4.30509742792238       -1.98071022633473        1.70790755075447
H            3.82259034396448       -2.34340339067247       -1.02939625038013
H            1.36962647354256       -2.52864026031390       -1.10820415614922
H            0.68175783435723        3.52213980213115        1.55378843667976
H            3.12360716495395        3.80572604272025        1.69314719499718
H            4.67528983736246        2.09024625611609        0.93071171463395
H           -4.12817351370952        2.27933304931436        1.05579013898215
H           -6.10445904229936        3.08625476652160       -0.21057023544185
H           -8.34976124495272        3.95990611676286        0.42025092458837
H           -9.45400255590454        0.41138398778950        2.08643387857831
H           -7.26334037856407       -0.64050361009182        1.56480281796894
H           -5.58414971457059       -3.31327234515911        0.18641895176575
H           -7.58579868421232       -4.56222019059291       -0.61821125759552
H           -9.09004618427762       -1.28017229253811       -2.50278046457200
H           -7.16317031829794        0.13422627914626       -1.81199108172181
H           -3.66449320731304       -2.18030307334749       -1.00377601844761

 projected vibrational frequencies (cm⁻¹)
eigval :       -0.00    -0.00    -0.00    -0.00     0.00     0.00
eigval :       12.22    12.64    22.95    29.16    35.50    44.64
eigval :       45.97    57.11    58.50    68.25    80.29   104.14
eigval :      107.70   111.65   132.15   138.34   160.51   171.45
eigval :      176.01   201.54   207.41   219.39   242.59   246.80
eigval :      259.55   263.49   278.73   300.76   310.13   330.16
eigval :      336.03   341.14   343.43   364.89   386.97   390.32
eigval :      413.30   417.49   423.76   431.00   441.41   453.95
eigval :      454.67   481.81   501.82   503.99   505.89   510.41
eigval :      524.23   524.33   537.66   540.79   553.94   575.00
eigval :      578.25   581.90   583.07   609.29   617.50   624.23
eigval :      630.08   649.94   650.58   661.68   663.36   666.31
eigval :      666.84   682.96   686.65   707.97   709.52   715.87
eigval :      720.15   728.33   771.98   776.98   778.12   784.88
eigval :      795.05   797.49   805.09   816.28   826.14   834.46
eigval :      836.95   855.28   862.45   864.12   865.31   877.93
eigval :      884.47   887.81   888.41   898.07   899.05   900.78
eigval :      914.55   915.08   916.01   916.27   916.68   917.66
eigval :      920.85   924.31   924.57   943.71   990.42   998.21
eigval :     1025.23  1035.20  1073.06  1080.57  1085.95  1087.68
eigval :     1099.19  1100.28  1111.26  1113.68  1118.01  1119.48
eigval :     1130.30  1161.56  1173.26  1174.70  1184.23  1192.63
eigval :     1204.34  1205.85  1206.40  1208.39  1217.17  1226.48
eigval :     1238.57  1239.75  1244.40  1254.84  1257.76  1263.47
eigval :     1263.84  1270.07  1276.73  1282.20  1285.03  1293.10
eigval :     1298.89  1315.02  1325.52  1341.39  1346.10  1352.84
eigval :     1372.54  1373.31  1379.02  1390.05  1407.89  1413.07
eigval :     1421.16  1430.90  1442.92  1460.28  1466.80  1474.84
eigval :     1475.78  1485.93  1492.19  1496.93  1536.04  1545.01
eigval :     1548.30  1558.73  1561.65  1569.41  1571.88  1576.99
eigval :     1578.03  1582.47  1590.73  1598.53  3053.16  3054.19
eigval :     3056.72  3057.93  3074.16  3074.94  3085.15  3085.83
eigval :     3085.94  3090.56  3090.92  3092.46  3093.12  3094.11
eigval :     3094.46  3099.87  3102.86  3103.13  3103.27  3109.79
eigval :     3110.79  3115.33  3115.53

   temp. (K)  partition function   enthalpy   heat capacity  entropy
                                   cal/mol     cal/K/mol   cal/K/mol   J/K/mol
 298.15  VIB  0.110E+16            20006.185    129.305    122.930
         ROT  0.835E+08              888.752      2.981     39.229
         INT  0.918E+23            20894.937    132.285    162.158
         TR   0.139E+29             1481.254      4.968     44.987
         TOT                       22376.1909   137.2536   207.1446   866.6930

       T/K    H(0)-H(T)+PV         H(T)/Eh          T*S/Eh         G(T)/Eh
   ------------------------------------------------------------------------
    298.15    0.356587E-01    0.540405E+00    0.984211E-01    0.441984E+00
   ------------------------------------------------------------------------

         :::::::::::::::::::::::::::::::::::::::::::::::::::::
         ::                  THERMODYNAMIC                  ::
         :::::::::::::::::::::::::::::::::::::::::::::::::::::
         :: total free energy        -115.615194251846 Eh   ::
         ::.................................................::
         :: total energy             -116.057177838923 Eh   ::
         :: zero point energy           0.504745943126 Eh   ::
         :: G(RRHO) w/o ZPVE           -0.062762356049 Eh   ::
         :: G(RRHO) contrib.            0.441983587077 Eh   ::
         :::::::::::::::::::::::::::::::::::::::::::::::::::::

           -------------------------------------------------
          | TOTAL ENERGY             -116.057177838923 Eh   |
          | TOTAL ENTHALPY           -115.516773165842 Eh   |
          | TOTAL FREE ENERGY        -115.615194251846 Eh   |
          | GRADIENT NORM               0.000150630103 Eh/α |
           -------------------------------------------------

 * finished run on 2025/08/22 at 11:57:16.981
