   * xtb version 6.7.1 (edcfbbe) compiled by 'albert@albert-system' on 2024-07-22

   ID    Z sym.   atoms
    1    6 C      1-6, 8-13, 15-25, 27-32, 34-39, 41-44, 46
    2    8 O      7
    3    7 N      14, 26, 33, 40, 45
    4    1 H      47-69

          program call               : xtb data2507/gas/pDPAPQ-PXZ/pDPAPQ-PXZ_gas_S0_crest.xyz --gfn 2 --ohess vtight --parallel 40 --molden --ceasefiles --namespace data2507/gas/pDPAPQ-PXZ/pDPAPQ-PXZ_gas_S0_finalOpt
          :  Hamiltonian                  GFN2-xTB          :
 * total energy  :  -116.1056983 Eh     change       -0.1059362E-08 Eh
 * total energy  :  -116.1056991 Eh     change       -0.8342167E-06 Eh
 * total energy  :  -116.1057000 Eh     change       -0.9262825E-06 Eh
 * total energy  :  -116.1057025 Eh     change       -0.2484770E-05 Eh
 * total energy  :  -116.1057037 Eh     change       -0.1197014E-05 Eh
 * total energy  :  -116.1057040 Eh     change       -0.2954329E-06 Eh
 * total energy  :  -116.1057043 Eh     change       -0.2453974E-06 Eh
 * total energy  :  -116.1057047 Eh     change       -0.3881278E-06 Eh
 * total energy  :  -116.1057049 Eh     change       -0.2043703E-06 Eh
 * total energy  :  -116.1057051 Eh     change       -0.2016023E-06 Eh
 * total energy  :  -116.1057056 Eh     change       -0.2528447E-06 Eh
 * total energy  :  -116.1057058 Eh     change       -0.2060434E-06 Eh
 * total energy  :  -116.1057059 Eh     change       -0.1673836E-06 Eh
 * total energy  :  -116.1057061 Eh     change       -0.1612766E-06 Eh
 * total energy  :  -116.1057063 Eh     change       -0.1593675E-06 Eh
 * total energy  :  -116.1057064 Eh     change       -0.1481514E-06 Eh
 * total energy  :  -116.1057065 Eh     change       -0.1497214E-06 Eh
 * total energy  :  -116.1057067 Eh     change       -0.1413838E-06 Eh
 * total energy  :  -116.1057068 Eh     change       -0.8775373E-07 Eh
   *** GEOMETRY OPTIMIZATION CONVERGED AFTER 20 ITERATIONS ***

 final structure:
================
69
 xtb: 6.7.1 (edcfbbe)
C            7.53956248066146        3.01035993841764        2.16359617966252
C            6.16117944783617        3.07192138726482        2.20030228095768
C            5.39964738524255        2.19787160666054        1.44002105121371
C            6.00554898126576        1.25271628063740        0.62188170222549
C            7.40472380607867        1.17443142186491        0.61990566732261
C            8.15956571976393        2.05166965514922        1.37672044934071
O            8.09053542349275        0.22880291941049       -0.10037363881159
C            7.35667560870162       -0.62350214713148       -0.88592948693080
C            8.06020401920494       -1.53515001929550       -1.65168462285424
C            7.38790596896044       -2.40791138026679       -2.49385480506789
C            6.01164809626759       -2.34512592122681       -2.58150762535330
C            5.30158675546312       -1.43279065490380       -1.81677386125393
C            5.95768949212300       -0.57941345371996       -0.93825339823451
N            5.26945971827710        0.34657013217452       -0.14808427795857
C            3.86358688881413        0.38688676774832       -0.16697323630621
C            3.20828388176213        1.50685669542502       -0.64938991863687
C            1.81185974829604        1.61596073056697       -0.69774488648813
C            1.05886626707378        0.56039307594292       -0.24294343487591
C            1.72418754336227       -0.58324862201095        0.25904672869444
C            0.82093752178093       -1.57656245621059        0.70615338363673
C            1.31933702746014       -2.73767415685162        1.24129680556727
C            2.71525053129296       -2.88370950207583        1.32796584085217
C            3.59413151584023       -1.92219497167304        0.88815954343297
C            3.11280721915783       -0.72100913491294        0.32133325658797
C           -0.50912543940669       -1.03938596219572        0.46460990421236
N           -1.67002795046999       -1.57611433723818        0.70616652241161
C           -2.74365199981301       -0.81672209417817        0.36854321343545
C           -4.03323894086212       -1.31827129623216        0.60080423001514
C           -5.15121425165407       -0.58479813253872        0.27780018668675
C           -6.48229591157568       -1.12510816001189        0.59995054297531
C           -6.83231959785750       -2.42532990385900        0.24171927821210
C           -8.09283543880026       -2.89101266217807        0.57576734419939
N           -8.98837491971049       -2.17036817692958        1.22860825817359
C           -8.65260250275888       -0.94183145601917        1.58338636867502
C           -7.42391800536608       -0.37118913911206        1.29810319899110
C           -5.00667609706076        0.69519501485319       -0.31911563803928
C           -6.18413057273182        1.46888383849082       -0.74656829263410
C           -7.18686262702584        0.89562486166096       -1.52652597944557
C           -8.26190775505695        1.68008634003086       -1.90810098872598
N           -8.39466503568106        2.95193087560982       -1.57241977771971
C           -7.43933496141087        3.50064072033398       -0.84182886930062
C           -6.31786746450935        2.81386092653497       -0.40819052839208
C           -3.74989846274101        1.20741175831893       -0.54272361595893
C           -2.59821893962026        0.47844460837452       -0.20828924596854
N           -1.37923896107151        1.02386905187822       -0.44955543082192
C           -0.36056857871016        0.28102872209092       -0.12073896465813
H            8.13653943584190        3.69141290273088        2.74905492770095
H            5.66312509957773        3.79808233218188        2.82396068570583
H            4.32334092168665        2.24564196367897        1.49267550296868
H            9.23342974236532        1.96177459424475        1.34093993982289
H            9.13575124370269       -1.54228229889137       -1.57636588535136
H            7.94449279256751       -3.11903829516164       -3.08337247011516
H            5.47604894573174       -3.00185816880284       -3.24937907446494
H            4.22778792802024       -1.38369401667325       -1.90632374984303
H            3.80736005262221        2.32901359193598       -1.01490741635498
H            1.34990722183317        2.50627687359887       -1.09446283436895
H            0.66401929611273       -3.51894884166761        1.59333800520694
H            3.10985496028438       -3.79165315221304        1.76037323845087
H            4.65801061093725       -2.08442900692433        0.97821904403140
H           -4.12280285980537       -2.28866545481917        1.06542731118352
H           -6.13854028300883       -3.04814810418955       -0.30261977081128
H           -8.40518999213556       -3.89193553325795        0.30721132601867
H           -9.40958622123790       -0.38767960497624        2.12270280967163
H           -7.19622376828780        0.63311374918416        1.62132511276319
H           -7.12141303522315       -0.13576191495358       -1.83780999056063
H           -9.06038264366151        1.27042091668546       -2.51273433312034
H           -7.58380144188969        4.54385002241288       -0.59207814565198
H           -5.56910007232070        3.30261230688139        0.19678648722337
H           -3.62026436889728        2.17388582012678       -1.00606929064989

          :  Hamiltonian                  GFN2-xTB          :
         :: gradient norm              0.000030277293 Eh/a0 ::
         :: HOMO-LUMO gap              1.201280599434 eV    ::
         :: SCC energy              -118.150801767266 Eh    ::
         :: -> dispersion             -0.101431954399 Eh    ::
         :: repulsion energy           2.045094988329 Eh    ::

    * Orbital Energies and Occupations

         #    Occupation            Energy/Eh            Energy/eV
      -------------------------------------------------------------
         1        2.0000           -0.7337026             -19.9651
       ...           ...                  ...                  ...
        95        2.0000           -0.4233688             -11.5205
        96        2.0000           -0.4231859             -11.5155
        97        2.0000           -0.4211224             -11.4593
        98        2.0000           -0.4198209             -11.4239
        99        2.0000           -0.4182274             -11.3805
       100        2.0000           -0.4154889             -11.3060
       101        2.0000           -0.4016628             -10.9298
       102        2.0000           -0.3987696             -10.8511
       103        2.0000           -0.3946714             -10.7396
       104        2.0000           -0.3714342             -10.1072
       105        2.0000           -0.3705989             -10.0845
       106        2.0000           -0.3569112              -9.7120
       107        2.0000           -0.3495714              -9.5123 (HOMO)
       108                         -0.3054250              -8.3110 (LUMO)
       109                         -0.3017068              -8.2099
       110                         -0.2678306              -7.2880
       111                         -0.2532296              -6.8907
       112                         -0.2492204              -6.7816
       113                         -0.2437677              -6.6333
       114                         -0.2432354              -6.6188
       115                         -0.2380212              -6.4769
       116                         -0.2350155              -6.3951
       117                         -0.2265876              -6.1658
       118                         -0.2213839              -6.0242
       ...                                ...                  ...
       207                          0.7149977              19.4561
      -------------------------------------------------------------
                  HL-Gap            0.0441464 Eh            1.2013 eV

     #   Z          covCN         q      C6AA      α(0)
     1   6 C        2.919    -0.039    28.968     8.826
     2   6 C        2.919    -0.038    28.941     8.822
     3   6 C        2.924    -0.059    29.466     8.902
     4   6 C        2.921     0.042    27.065     8.531
     5   6 C        2.884     0.125    25.250     8.238
     6   6 C        2.920    -0.055    29.377     8.888
     7   8 O        1.709    -0.253    18.191     5.759
     8   6 C        2.884     0.125    25.256     8.239
     9   6 C        2.920    -0.056    29.385     8.889
    10   6 C        2.919    -0.039    28.970     8.826
    11   6 C        2.919    -0.038    28.946     8.823
    12   6 C        2.924    -0.058    29.430     8.896
    13   6 C        2.923     0.043    27.045     8.528
    14   7 N        2.751    -0.066    22.518     7.048
    15   6 C        2.919     0.064    26.577     8.454
    16   6 C        2.922    -0.043    29.059     8.840
    17   6 C        2.912    -0.020    28.517     8.757
    18   6 C        3.029    -0.009    28.222     8.714
    19   6 C        3.136    -0.007    27.962     8.655
    20   6 C        3.028    -0.004    28.091     8.694
    21   6 C        2.912    -0.018    28.454     8.747
    22   6 C        2.920    -0.027    28.675     8.781
    23   6 C        2.917    -0.025    28.625     8.773
    24   6 C        2.977     0.005    27.909     8.666
    25   6 C        3.060     0.085    26.050     8.370
    26   7 N        1.838    -0.235    26.996     7.700
    27   6 C        2.989     0.077    26.278     8.409
    28   6 C        2.925    -0.043    29.080     8.843
    29   6 C        2.976     0.006    27.882     8.662
    30   6 C        2.987     0.030    27.319     8.574
    31   6 C        2.919    -0.044    29.100     8.846
    32   6 C        2.914     0.060    26.660     8.467
    33   7 N        1.836    -0.219    26.618     7.646
    34   6 C        2.914     0.060    26.653     8.466
    35   6 C        2.918    -0.041    29.020     8.834
    36   6 C        2.975     0.006    27.876     8.661
    37   6 C        2.987     0.030    27.319     8.574
    38   6 C        2.918    -0.041    29.019     8.834
    39   6 C        2.914     0.060    26.653     8.466
    40   7 N        1.836    -0.219    26.616     7.645
    41   6 C        2.914     0.060    26.660     8.467
    42   6 C        2.919    -0.044    29.099     8.846
    43   6 C        2.925    -0.044    29.087     8.844
    44   6 C        2.989     0.077    26.265     8.407
    45   7 N        1.838    -0.237    27.035     7.705
    46   6 C        3.058     0.085    26.052     8.370
    47   1 H        0.926     0.040     2.446     2.446
    48   1 H        0.926     0.038     2.476     2.461
    49   1 H        0.926     0.035     2.511     2.478
    50   1 H        0.926     0.052     2.292     2.368
    51   1 H        0.926     0.052     2.293     2.368
    52   1 H        0.926     0.040     2.447     2.446
    53   1 H        0.926     0.037     2.483     2.464
    54   1 H        0.926     0.033     2.539     2.492
    55   1 H        0.926     0.047     2.358     2.401
    56   1 H        0.926     0.055     2.259     2.351
    57   1 H        0.926     0.053     2.280     2.361
    58   1 H        0.926     0.043     2.412     2.429
    59   1 H        0.926     0.041     2.440     2.443
    60   1 H        0.926     0.056     2.248     2.345
    61   1 H        0.926     0.037     2.485     2.465
    62   1 H        0.925     0.041     2.435     2.440
    63   1 H        0.925     0.041     2.436     2.441
    64   1 H        0.926     0.032     2.562     2.503
    65   1 H        0.926     0.032     2.561     2.503
    66   1 H        0.925     0.041     2.436     2.441
    67   1 H        0.925     0.041     2.434     2.440
    68   1 H        0.926     0.037     2.485     2.465
    69   1 H        0.926     0.056     2.248     2.345

molecular dipole:
                 x           y           z       tot (Debye)
 q only:        1.190      -0.145       0.074
   full:        1.850      -0.207       0.103       4.739

 projected vibrational frequencies (cm⁻¹)
eigval :       -0.00    -0.00    -0.00     0.00     0.00     0.00
eigval :       12.69    15.21    21.90    34.55    37.11    43.58
eigval :       45.07    57.79    59.45    64.38    82.34   101.13
eigval :      107.67   115.43   136.50   142.51   160.84   171.59
eigval :      178.68   205.52   209.07   220.42   243.94   250.60
eigval :      258.36   272.05   282.55   300.11   308.42   325.41
eigval :      334.82   338.25   349.95   374.50   388.27   398.41
eigval :      415.72   419.66   425.05   432.26   443.24   450.93
eigval :      470.07   487.03   505.72   508.71   509.56   519.07
eigval :      525.53   540.73   544.63   553.35   566.78   580.96
eigval :      584.86   585.57   589.93   616.20   624.69   630.56
eigval :      648.36   654.05   660.84   661.87   669.01   673.80
eigval :      690.73   702.50   710.72   714.53   732.84   735.03
eigval :      742.04   761.47   778.57   779.17   784.03   797.69
eigval :      799.22   799.88   810.47   836.05   842.91   855.65
eigval :      862.01   864.86   867.43   881.34   887.96   890.09
eigval :      892.44   895.86   897.56   899.02   913.35   915.16
eigval :      915.36   916.10   916.29   921.86   924.76   924.79
eigval :      927.04   943.72   950.50   997.87  1023.60  1042.49
eigval :     1074.72  1077.27  1090.04  1091.82  1099.34  1100.36
eigval :     1108.76  1112.30  1117.34  1118.56  1124.60  1134.73
eigval :     1169.30  1175.43  1185.35  1189.24  1197.62  1201.45
eigval :     1202.00  1205.97  1206.85  1216.74  1228.81  1232.73
eigval :     1243.91  1255.18  1257.13  1261.50  1262.02  1263.08
eigval :     1270.98  1280.39  1281.90  1294.58  1300.56  1311.13
eigval :     1329.94  1339.13  1347.24  1358.48  1369.30  1372.73
eigval :     1378.56  1396.42  1412.28  1413.30  1423.17  1428.37
eigval :     1443.19  1446.97  1473.25  1475.09  1479.15  1485.35
eigval :     1485.91  1501.89  1545.84  1550.87  1553.37  1565.86
eigval :     1568.19  1578.26  1578.55  1579.77  1580.67  1590.29
eigval :     1594.77  1601.67  1608.56  1612.54  3056.45  3056.62
eigval :     3059.42  3059.82  3080.61  3081.96  3087.14  3087.35
eigval :     3090.77  3090.97  3091.08  3091.13  3092.43  3094.48
eigval :     3094.70  3100.24  3100.37  3104.22  3105.01  3107.01
eigval :     3107.79  3113.99  3114.51

   temp. (K)  partition function   enthalpy   heat capacity  entropy
                                   cal/mol     cal/K/mol   cal/K/mol   J/K/mol
 298.15  VIB  0.618E+15            19749.669    127.425    121.374
         ROT  0.831E+08              888.752      2.981     39.219
         INT  0.513E+23            20638.421    130.406    160.593
         TR   0.139E+29             1481.254      4.968     44.987
         TOT                       22119.6751   135.3737   205.5795   860.1446

       T/K    H(0)-H(T)+PV         H(T)/Eh          T*S/Eh         G(T)/Eh
   ------------------------------------------------------------------------
    298.15    0.352499E-01    0.544588E+00    0.976774E-01    0.446910E+00
   ------------------------------------------------------------------------

         :::::::::::::::::::::::::::::::::::::::::::::::::::::
         ::                  THERMODYNAMIC                  ::
         :::::::::::::::::::::::::::::::::::::::::::::::::::::
         :: total free energy        -115.658796481701 Eh   ::
         ::.................................................::
         :: total energy             -116.105706778929 Eh   ::
         :: zero point energy           0.509337801099 Eh   ::
         :: G(RRHO) w/o ZPVE           -0.062427503871 Eh   ::
         :: G(RRHO) contrib.            0.446910297228 Eh   ::
         :::::::::::::::::::::::::::::::::::::::::::::::::::::

           -------------------------------------------------
          | TOTAL ENERGY             -116.105706778929 Eh   |
          | TOTAL ENTHALPY           -115.561119031790 Eh   |
          | TOTAL FREE ENERGY        -115.658796481701 Eh   |
          | GRADIENT NORM               0.000030154243 Eh/α |
          | HOMO-LUMO GAP               1.201285766425 eV   |
           -------------------------------------------------

 * finished run on 2025/08/22 at 11:52:19.570
