   * xtb version 6.7.1 (edcfbbe) compiled by 'albert@albert-system' on 2024-07-22

   ID    Z sym.   atoms
    1    6 C      1-6, 8-13, 15-25, 27-32, 34-39, 41-44, 46
    2    8 O      7
    3    7 N      14, 26, 33, 40, 45
    4    1 H      47-69

          program call               : xtb data2507/gas/pDPAPQ-PXZ/pDPAPQ-PXZ.xyz --gfn 2 --ohess vtight --parallel 40 --molden --ceasefiles --namespace data2507/gas/pDPAPQ-PXZ/pDPAPQ-PXZ_gas_S0_preOpt
          :  Hamiltonian                  GFN2-xTB          :
 * total energy  :  -116.0816570 Eh     change       -0.1134552E-08 Eh
 * total energy  :  -116.0968213 Eh     change       -0.1516425E-01 Eh
 * total energy  :  -116.1010583 Eh     change       -0.4237005E-02 Eh
 * total energy  :  -116.1020094 Eh     change       -0.9510815E-03 Eh
 * total energy  :  -116.1027745 Eh     change       -0.7651033E-03 Eh
 * total energy  :  -116.1030693 Eh     change       -0.2948499E-03 Eh
 * total energy  :  -116.1033122 Eh     change       -0.2429116E-03 Eh
 * total energy  :  -116.1035103 Eh     change       -0.1980477E-03 Eh
 * total energy  :  -116.1036686 Eh     change       -0.1582885E-03 Eh
 * total energy  :  -116.1037924 Eh     change       -0.1238644E-03 Eh
 * total energy  :  -116.1057028 Eh     change       -0.1068034E-05 Eh
 * total energy  :  -116.1057036 Eh     change       -0.7554254E-06 Eh
 * total energy  :  -116.1057042 Eh     change       -0.6386943E-06 Eh
 * total energy  :  -116.1057050 Eh     change       -0.8059014E-06 Eh
 * total energy  :  -116.1057057 Eh     change       -0.6793857E-06 Eh
 * total energy  :  -116.1057061 Eh     change       -0.4029835E-06 Eh
 * total energy  :  -116.1057064 Eh     change       -0.3207935E-06 Eh
 * total energy  :  -116.1057066 Eh     change       -0.2345698E-06 Eh
 * total energy  :  -116.1057067 Eh     change       -0.2215768E-07 Eh
   *** GEOMETRY OPTIMIZATION CONVERGED AFTER 81 ITERATIONS ***

 final structure:
================
69
 xtb: 6.7.1 (edcfbbe)
C            7.53276992301240       -3.05034868606827       -2.15774232605633
C            6.15408451497089       -3.10725294811237       -2.19054574909724
C            5.39756889894567       -2.22424119367328       -1.43563328219028
C            6.00884646012410       -1.27457634236423       -0.62675465109949
C            7.40829852611549       -1.20134780539042       -0.62886842715495
C            8.15813746164301       -2.08744833043678       -1.38030540154802
O            8.09927811241143       -0.25233583411575        0.08194776612519
C            7.37038739882355        0.60955920222492        0.86159341617023
C            8.07913286481370        1.52539489869046        1.61747850401802
C            7.41212048361393        2.40822439791150        2.45332998670239
C            6.03584527932832        2.35139902531794        2.54473053480078
C            5.32056152572338        1.43484528173698        1.78994658473235
C            5.97136311065021        0.57110523277145        0.91763461276744
N            5.27787197180157       -0.35950045474675        0.13753206588822
C            3.87192440542084       -0.39520822081317        0.16035243771778
C            3.21448547846733       -1.50916182440789        0.65370184043620
C            1.81787630073658       -1.61385469329173        0.70606821022528
C            1.06685581262802       -0.56002812415165        0.24400573375595
C            1.73429820066217        0.57745777106099       -0.26901962317240
C            0.83284945269143        1.56951753450719       -0.72254684043849
C            1.33335212202822        2.72457910038828       -1.26870964629319
C            2.72948245483707        2.86595156382594       -1.35953116211429
C            3.60661649919284        1.90569474826246       -0.91352545684450
C            3.12317649000527        0.71070192493270       -0.33552798291345
C           -0.49822231747698        1.03830696110074       -0.47331963354542
N           -1.65816806465292        1.57652414262715       -0.71627750962162
C           -2.73321375859821        0.82311910650904       -0.36981571882297
C           -4.02199754608353        1.32684032636319       -0.60214915491721
C           -5.14118410928852        0.59915250666368       -0.27039178548124
C           -6.47206965576814        1.14049056253283       -0.59173109432822
C           -6.81854683999336        2.44347033880027       -0.24022374808725
C           -8.07969640720999        2.90905872501340       -0.57209938107026
N           -8.97899079541066        2.18584336722819       -1.21687602400949
C           -8.64652715426950        0.95465947741243       -1.56555414194302
C           -7.41760310143632        0.38386453388267       -1.28163781679835
C           -4.99869597845106       -0.67686256862391        0.33540520701176
C           -6.17704267725843       -1.44425247775214        0.77175187130947
C           -7.17460428901552       -0.86363691889923        1.55283538447027
C           -8.25013326223262       -1.64287839048157        1.94371346731698
N           -8.38811618195060       -2.91615952519997        1.61570189944635
C           -7.43785534981290       -3.47166187603791        0.88362462977415
C           -6.31631775217928       -2.79061554733678        0.44123538026312
C           -3.74288087669503       -1.19111827673615        0.55949471300880
C           -2.59001965000188       -0.46797268213578        0.21667073926732
N           -1.37206926437614       -1.01496825841423        0.45944821218771
C           -0.35204038615770       -0.27769499894278        0.12244037985116
H            8.12585868257143       -3.73831956388185       -2.73904796789900
H            5.65187739721124       -3.83669359325701       -2.80700503175806
H            4.32097251374234       -2.26859502382761       -1.48529056347680
H            9.23240422862588       -2.00110437083242       -1.34790077680465
H            9.15451879974851        1.52776481222146        1.53958649348614
H            7.97277527014258        3.12247092567564        3.03516651441510
H            5.50428420961583        3.01616646045148        3.20786762707330
H            4.24680345301610        1.39062322769393        1.88247956447636
H            3.81199641565209       -2.33002011933189        1.02466186180794
H            1.35427635131017       -2.49953693659464        1.11115402856298
H            0.67945234643743        3.50471319593071       -1.62587376022644
H            3.12571560633929        3.76893311106123       -1.80075319094074
H            4.67073951312174        2.06405684413729       -1.00750878155278
H           -4.11003495419077        2.29404456381348       -1.07367902061736
H           -6.12165580317037        3.06853909823349        0.29752217383466
H           -8.38953007388994        3.91202574181902       -0.30828171142759
H           -9.40644255589545        0.39845983688752       -2.09860875651097
H           -7.19275448605493       -0.62276809947870       -1.59955874941825
H           -7.10478808184998        0.16931650317783        1.85793956075486
H           -9.04449245901537       -1.22762841740734        2.54995809114362
H           -7.58661644470380       -4.51573614026476        0.64008340843073
H           -5.57166224225748       -3.28481480879452       -0.16439665682748
H           -3.61488501680138       -2.15452699905096        1.02962662378082

          :  Hamiltonian                  GFN2-xTB          :
         :: gradient norm              0.000083451406 Eh/a0 ::
         :: HOMO-LUMO gap              1.201470654251 eV    ::
         :: SCC energy              -118.150777549760 Eh    ::
         :: -> dispersion             -0.101432502004 Eh    ::
         :: repulsion energy           2.045070879296 Eh    ::

    * Orbital Energies and Occupations

         #    Occupation            Energy/Eh            Energy/eV
      -------------------------------------------------------------
         1        2.0000           -0.7337083             -19.9652
       ...           ...                  ...                  ...
        95        2.0000           -0.4233642             -11.5203
        96        2.0000           -0.4231769             -11.5152
        97        2.0000           -0.4211224             -11.4593
        98        2.0000           -0.4198314             -11.4242
        99        2.0000           -0.4182279             -11.3806
       100        2.0000           -0.4154893             -11.3060
       101        2.0000           -0.4016711             -10.9300
       102        2.0000           -0.3987682             -10.8510
       103        2.0000           -0.3946683             -10.7395
       104        2.0000           -0.3714363             -10.1073
       105        2.0000           -0.3706002             -10.0845
       106        2.0000           -0.3569036              -9.7118
       107        2.0000           -0.3495705              -9.5123 (HOMO)
       108                         -0.3054171              -8.3108 (LUMO)
       109                         -0.3016952              -8.2095
       110                         -0.2677827              -7.2867
       111                         -0.2532366              -6.8909
       112                         -0.2492167              -6.7815
       113                         -0.2437700              -6.6333
       114                         -0.2432252              -6.6185
       115                         -0.2380392              -6.4774
       116                         -0.2350153              -6.3951
       117                         -0.2266040              -6.1662
       118                         -0.2214065              -6.0248
       ...                                ...                  ...
       207                          0.7149831              19.4557
      -------------------------------------------------------------
                  HL-Gap            0.0441534 Eh            1.2015 eV

     #   Z          covCN         q      C6AA      α(0)
     1   6 C        2.919    -0.039    28.968     8.826
     2   6 C        2.919    -0.038    28.941     8.822
     3   6 C        2.924    -0.059    29.466     8.902
     4   6 C        2.921     0.042    27.065     8.531
     5   6 C        2.884     0.125    25.250     8.238
     6   6 C        2.920    -0.055    29.377     8.888
     7   8 O        1.709    -0.253    18.190     5.758
     8   6 C        2.884     0.125    25.256     8.239
     9   6 C        2.920    -0.056    29.385     8.889
    10   6 C        2.919    -0.039    28.970     8.826
    11   6 C        2.919    -0.038    28.946     8.823
    12   6 C        2.924    -0.058    29.430     8.896
    13   6 C        2.923     0.043    27.045     8.528
    14   7 N        2.751    -0.066    22.518     7.048
    15   6 C        2.919     0.064    26.577     8.454
    16   6 C        2.922    -0.043    29.059     8.840
    17   6 C        2.912    -0.020    28.517     8.757
    18   6 C        3.029    -0.009    28.222     8.714
    19   6 C        3.136    -0.007    27.962     8.655
    20   6 C        3.028    -0.004    28.091     8.694
    21   6 C        2.912    -0.018    28.454     8.747
    22   6 C        2.920    -0.027    28.675     8.781
    23   6 C        2.917    -0.025    28.625     8.774
    24   6 C        2.977     0.005    27.909     8.666
    25   6 C        3.059     0.085    26.050     8.370
    26   7 N        1.838    -0.235    26.996     7.700
    27   6 C        2.989     0.077    26.278     8.409
    28   6 C        2.925    -0.043    29.080     8.843
    29   6 C        2.976     0.006    27.882     8.662
    30   6 C        2.987     0.030    27.320     8.574
    31   6 C        2.919    -0.044    29.099     8.846
    32   6 C        2.914     0.060    26.660     8.467
    33   7 N        1.836    -0.219    26.617     7.646
    34   6 C        2.914     0.060    26.653     8.466
    35   6 C        2.918    -0.041    29.020     8.834
    36   6 C        2.976     0.006    27.876     8.661
    37   6 C        2.987     0.030    27.319     8.574
    38   6 C        2.918    -0.041    29.019     8.834
    39   6 C        2.914     0.060    26.653     8.466
    40   7 N        1.836    -0.219    26.616     7.645
    41   6 C        2.914     0.060    26.660     8.467
    42   6 C        2.919    -0.044    29.099     8.846
    43   6 C        2.925    -0.044    29.087     8.844
    44   6 C        2.989     0.077    26.264     8.407
    45   7 N        1.838    -0.237    27.035     7.705
    46   6 C        3.059     0.085    26.052     8.370
    47   1 H        0.926     0.040     2.446     2.446
    48   1 H        0.926     0.038     2.476     2.461
    49   1 H        0.926     0.035     2.511     2.478
    50   1 H        0.926     0.052     2.292     2.368
    51   1 H        0.926     0.052     2.293     2.368
    52   1 H        0.926     0.040     2.447     2.446
    53   1 H        0.926     0.037     2.483     2.464
    54   1 H        0.926     0.033     2.539     2.492
    55   1 H        0.926     0.047     2.358     2.401
    56   1 H        0.926     0.055     2.259     2.351
    57   1 H        0.926     0.053     2.280     2.361
    58   1 H        0.926     0.043     2.413     2.429
    59   1 H        0.926     0.041     2.440     2.443
    60   1 H        0.926     0.056     2.248     2.345
    61   1 H        0.926     0.037     2.485     2.465
    62   1 H        0.925     0.041     2.435     2.440
    63   1 H        0.925     0.041     2.436     2.441
    64   1 H        0.926     0.032     2.562     2.503
    65   1 H        0.926     0.032     2.561     2.503
    66   1 H        0.925     0.041     2.436     2.441
    67   1 H        0.925     0.041     2.434     2.440
    68   1 H        0.926     0.037     2.485     2.465
    69   1 H        0.926     0.056     2.249     2.345

molecular dipole:
                 x           y           z       tot (Debye)
 q only:        1.190       0.142      -0.079
   full:        1.850       0.202      -0.111       4.739

 projected vibrational frequencies (cm⁻¹)
eigval :       -0.00    -0.00     0.00     0.00     0.00     0.00
eigval :       12.71    15.21    21.95    34.51    37.02    43.51
eigval :       45.05    57.77    59.41    64.24    82.34   100.91
eigval :      107.65   115.43   136.47   142.49   160.70   171.57
eigval :      178.66   205.45   208.95   220.43   243.88   250.60
eigval :      258.34   271.91   282.56   300.06   308.43   325.45
eigval :      334.79   338.17   349.97   374.42   388.27   398.33
eigval :      415.74   419.67   425.01   432.27   443.24   450.92
eigval :      469.96   487.05   505.73   508.74   509.57   519.08
eigval :      525.52   540.70   544.62   553.39   566.78   580.99
eigval :      584.86   585.57   589.93   616.20   624.67   630.56
eigval :      648.35   654.04   660.84   661.87   669.01   673.81
eigval :      690.75   702.49   710.73   714.51   732.82   735.05
eigval :      742.03   761.47   778.58   779.18   784.03   797.69
eigval :      799.22   799.87   810.45   836.05   842.91   855.66
eigval :      862.00   864.88   867.44   881.35   887.94   890.07
eigval :      892.44   895.85   897.57   899.03   913.35   915.16
eigval :      915.36   916.10   916.27   921.86   924.76   924.79
eigval :      927.04   943.71   950.49   997.87  1023.60  1042.49
eigval :     1074.72  1077.27  1090.05  1091.82  1099.32  1100.34
eigval :     1108.76  1112.31  1117.31  1118.53  1124.61  1134.74
eigval :     1169.29  1175.43  1185.35  1189.25  1197.58  1201.44
eigval :     1202.03  1205.96  1206.84  1216.74  1228.81  1232.73
eigval :     1243.91  1255.16  1257.13  1261.49  1262.03  1263.07
eigval :     1270.95  1280.37  1281.88  1294.56  1300.51  1311.11
eigval :     1329.91  1339.12  1347.22  1358.46  1369.31  1372.72
eigval :     1378.52  1396.43  1412.27  1413.33  1423.16  1428.35
eigval :     1443.17  1446.97  1473.26  1475.10  1479.15  1485.36
eigval :     1485.90  1501.88  1545.87  1550.89  1553.38  1565.84
eigval :     1568.18  1578.24  1578.54  1579.75  1580.67  1590.28
eigval :     1594.74  1601.66  1608.58  1612.54  3056.43  3056.61
eigval :     3059.40  3059.80  3080.60  3081.95  3087.13  3087.33
eigval :     3090.77  3090.92  3091.06  3091.11  3092.43  3094.45
eigval :     3094.68  3100.24  3100.38  3104.24  3104.99  3106.99
eigval :     3107.78  3113.97  3114.50

   temp. (K)  partition function   enthalpy   heat capacity  entropy
                                   cal/mol     cal/K/mol   cal/K/mol   J/K/mol
 298.15  VIB  0.623E+15            19751.229    127.420    121.385
         ROT  0.831E+08              888.752      2.981     39.219
         INT  0.518E+23            20639.981    130.400    160.604
         TR   0.139E+29             1481.254      4.968     44.987
         TOT                       22121.2353   135.3686   205.5910   860.1928

       T/K    H(0)-H(T)+PV         H(T)/Eh          T*S/Eh         G(T)/Eh
   ------------------------------------------------------------------------
    298.15    0.352524E-01    0.544585E+00    0.976829E-01    0.446902E+00
   ------------------------------------------------------------------------

         :::::::::::::::::::::::::::::::::::::::::::::::::::::
         ::                  THERMODYNAMIC                  ::
         :::::::::::::::::::::::::::::::::::::::::::::::::::::
         :: total free energy        -115.658804682973 Eh   ::
         ::.................................................::
         :: total energy             -116.105706670461 Eh   ::
         :: zero point energy           0.509332480157 Eh   ::
         :: G(RRHO) w/o ZPVE           -0.062430492668 Eh   ::
         :: G(RRHO) contrib.            0.446901987489 Eh   ::
         :::::::::::::::::::::::::::::::::::::::::::::::::::::

           -------------------------------------------------
          | TOTAL ENERGY             -116.105706670461 Eh   |
          | TOTAL ENTHALPY           -115.561121757904 Eh   |
          | TOTAL FREE ENERGY        -115.658804682973 Eh   |
          | GRADIENT NORM               0.000083484232 Eh/α |
          | HOMO-LUMO GAP               1.201475920413 eV   |
           -------------------------------------------------

 * finished run on 2025/08/22 at 11:49:28.449
