   * xtb version 6.7.1 (edcfbbe) compiled by 'albert@albert-system' on 2024-07-22

   ID    Z sym.   atoms
    1    6 C      1-6, 8-13, 15-25, 27-32, 34-39, 41-44, 46
    2    8 O      7
    3    7 N      14, 26, 33, 40, 45
    4    1 H      47-69

          program call               : xtb data2507/gas/pDPAPQ-PXZ/pDPAPQ-PXZ_gas_S0_finalOpt.xtbopt.xyz --gfn 2 --spinpol --tblite --uhf 2 --ohess vtight --parallel 40 --molden --ceasefiles --namespace data2507/gas/pDPAPQ-PXZ/pDPAPQ-PXZ_gas_T1_preOpt
 * total energy  :  -116.0525934 Eh     change        0.1317122E-07 Eh
 * total energy  :  -116.0555451 Eh     change       -0.2951775E-02 Eh
 * total energy  :  -116.0567465 Eh     change       -0.1201383E-02 Eh
 * total energy  :  -116.0568859 Eh     change       -0.1393548E-03 Eh
 * total energy  :  -116.0569615 Eh     change       -0.7564453E-04 Eh
 * total energy  :  -116.0569788 Eh     change       -0.1729933E-04 Eh
 * total energy  :  -116.0570013 Eh     change       -0.2249710E-04 Eh
 * total energy  :  -116.0570205 Eh     change       -0.1919820E-04 Eh
 * total energy  :  -116.0570342 Eh     change       -0.1370214E-04 Eh
 * total energy  :  -116.0570506 Eh     change       -0.1635984E-04 Eh
 * total energy  :  -116.0571683 Eh     change       -0.6641513E-06 Eh
 * total energy  :  -116.0571692 Eh     change       -0.8185408E-06 Eh
 * total energy  :  -116.0571702 Eh     change       -0.1055223E-05 Eh
 * total energy  :  -116.0571716 Eh     change       -0.1387216E-05 Eh
 * total energy  :  -116.0571731 Eh     change       -0.1476099E-05 Eh
 * total energy  :  -116.0571746 Eh     change       -0.1488018E-05 Eh
 * total energy  :  -116.0571756 Eh     change       -0.1052542E-05 Eh
 * total energy  :  -116.0571760 Eh     change       -0.3667711E-06 Eh
 * total energy  :  -116.0571760 Eh     change       -0.4568383E-07 Eh
   *** GEOMETRY OPTIMIZATION CONVERGED AFTER 44 ITERATIONS ***

 final structure:
================
69
 xtb: 6.7.1 (edcfbbe)
C            7.50480358858235        2.82454364572528        2.35213389464831
C            6.12268586707543        2.87043978518988        2.37693686677535
C            5.37862489816299        2.05360106576759        1.54321036584787
C            6.00793064619152        1.17872681446633        0.66294708072799
C            7.41121269172311        1.12275812865551        0.66155503062379
C            8.14787214261358        1.94396303040267        1.49660592424409
O            8.10696314393243        0.26000387160535       -0.14300590875235
C            7.38603426873532       -0.55877283831302       -0.97094144378973
C            8.09635840157795       -1.42676782831512       -1.78116616917472
C            7.42683900494643       -2.26862550125173       -2.65526720804815
C            6.04594964040019       -2.22900496469688       -2.72391523848291
C            5.32803439309936       -1.36365188114262       -1.91675142266595
C            5.98305989846193       -0.52697797539960       -1.01809525730434
N            5.29288077097999        0.34792204843149       -0.18951545169655
C            3.87565837767555        0.38364441998395       -0.21031420684360
C            3.22205385725042        1.47927354828717       -0.75519073330952
C            1.83246519302725        1.59179649383896       -0.80933094055512
C            1.06793260109929        0.55559490824893       -0.29290100149728
C            1.74454620276957       -0.56371494893153        0.26429806652423
C            0.83871547187883       -1.53028125522269        0.75104492923615
C            1.33417972968183       -2.67860918346660        1.33212422777939
C            2.72535394802586       -2.82613576284901        1.41515866418802
C            3.60974468513050       -1.88111997604495        0.93879979965482
C            3.13004188041909       -0.69972083824566        0.33289623242047
C           -0.48304834040028       -1.00348407101172        0.48920772541227
N           -1.66268441366047       -1.48730201140577        0.73526016623579
C           -2.76179493230933       -0.79211059148728        0.39440578925995
C           -4.03972487934870       -1.27366856589436        0.64907365639022
C           -5.17909142428232       -0.55649103374584        0.30472524513189
C           -6.49572723854238       -1.09721402284837        0.66363042508801
C           -6.81547848209867       -2.43207776974073        0.41454750713757
C           -8.06607712100146       -2.89863563036460        0.77922588958629
N           -8.98566254775879       -2.14894979930426        1.36376509600550
C           -8.68041935388298       -0.88650548594135        1.61492345092719
C           -7.46359628829255       -0.31275931035520        1.29208380006731
C           -5.03888882049531        0.68855343518155       -0.33885958469958
C           -6.20924098889112        1.45030052714870       -0.80084917366458
C           -7.22049869801732        0.84783807668226       -1.54825082788744
C           -8.28809066107715        1.62163108912577       -1.96877386410436
N           -8.40726990997893        2.91157752148036       -1.70236159346770
C           -7.44442099005955        3.48753735005803       -1.00277222070278
C           -6.32971396707362        2.81322670045402       -0.53471399483932
C           -3.77525352021429        1.19294520705264       -0.59620223801226
C           -2.61425814970262        0.49688375292243       -0.24792178004161
N           -1.40002799342806        0.97937825965141       -0.49425188612581
C           -0.32588500795340        0.29005144647512       -0.15663380831127
H            8.08576904478744        3.46285972746844        2.99855328435574
H            5.61300901724301        3.54290858376073        3.04924118206843
H            4.30106728859311        2.08642501487024        1.57365618720268
H            9.22331400112919        1.87517907620598        1.46345810102215
H            9.17241042820590       -1.42495143190425       -1.71397304279469
H            7.98717916364881       -2.94405434181957       -3.28189330214729
H            5.51693110343170       -2.87166136471396       -3.41022802111590
H            4.25207151649514       -1.33110861383999       -1.98106197955384
H            3.82623812716262        2.28054229313237       -1.15801937990699
H            1.37380955922590        2.46371199877118       -1.24781223212639
H            0.67797046271618       -3.44413799450371        1.71591011450856
H            3.11950304474776       -3.72162452215590        1.87359423663076
H            4.67336637687628       -2.04720906665864        1.02967065927129
H           -4.12981397181221       -2.22183353274519        1.15707231710889
H           -6.10568084177037       -3.08238822910604       -0.07433972758110
H           -8.35164170943090       -3.92623948086275        0.59347582122118
H           -9.45429209477986       -0.30729417197908        2.10176237715581
H           -7.26280302848839        0.71938323746224        1.53546175657257
H           -7.16638062643561       -0.19938236326130       -1.80374073953893
H           -9.09198360271505        1.18859270036542       -2.54966669585861
H           -7.57720959905318        4.54418396999128       -0.80848638915897
H           -5.57599185208914        3.32628681720539        0.04353151578299
H           -3.66135899980022        2.13718928498570       -1.10657500732172

 projected vibrational frequencies (cm⁻¹)
eigval :       -0.00    -0.00    -0.00     0.00     0.00     0.00
eigval :       12.49    13.00    23.16    29.84    35.76    44.31
eigval :       46.08    57.49    58.65    68.36    80.45   103.98
eigval :      107.86   112.03   132.21   138.89   160.62   171.62
eigval :      176.21   201.58   207.43   219.29   242.64   246.79
eigval :      259.49   263.42   278.70   300.70   310.00   330.23
eigval :      336.04   341.20   343.36   364.74   386.23   390.30
eigval :      412.44   417.49   423.84   431.24   441.86   453.94
eigval :      454.76   482.05   501.75   504.05   506.04   510.45
eigval :      523.72   524.31   537.63   540.67   554.16   574.86
eigval :      578.00   581.98   583.20   609.39   617.27   624.25
eigval :      630.16   649.87   650.68   661.98   663.33   666.30
eigval :      667.12   682.72   686.58   708.06   709.56   715.85
eigval :      719.82   728.24   772.07   777.05   778.16   784.88
eigval :      795.04   797.46   805.15   816.41   825.97   833.09
eigval :      836.78   855.31   861.95   864.25   865.42   877.80
eigval :      882.82   887.59   888.21   898.56   899.51   901.97
eigval :      914.51   915.05   916.00   916.32   916.68   917.68
eigval :      921.02   924.27   924.59   943.80   989.52   998.25
eigval :     1025.44  1035.37  1072.97  1081.24  1086.00  1087.67
eigval :     1099.01  1100.02  1111.21  1113.61  1117.97  1119.48
eigval :     1130.21  1161.20  1174.66  1175.02  1184.35  1192.87
eigval :     1204.49  1205.91  1207.20  1209.08  1217.47  1226.37
eigval :     1238.84  1239.92  1245.16  1254.71  1258.17  1263.45
eigval :     1263.96  1270.44  1273.90  1282.22  1284.82  1292.45
eigval :     1298.35  1314.84  1325.26  1341.61  1346.21  1353.20
eigval :     1372.76  1373.58  1379.12  1390.20  1407.92  1412.92
eigval :     1421.10  1430.99  1442.90  1460.33  1467.15  1475.22
eigval :     1475.69  1484.46  1492.00  1497.22  1535.97  1545.01
eigval :     1548.28  1558.68  1561.64  1569.40  1571.64  1577.19
eigval :     1578.00  1582.11  1591.06  1598.17  3053.46  3054.55
eigval :     3056.99  3058.26  3074.15  3075.22  3085.44  3086.09
eigval :     3086.21  3091.00  3091.33  3092.83  3093.51  3094.32
eigval :     3094.71  3100.38  3103.04  3103.37  3103.47  3110.26
eigval :     3111.31  3115.58  3115.75

   temp. (K)  partition function   enthalpy   heat capacity  entropy
                                   cal/mol     cal/K/mol   cal/K/mol   J/K/mol
 298.15  VIB  0.998E+15            20002.493    129.329    122.842
         ROT  0.835E+08              888.752      2.981     39.229
         INT  0.833E+23            20891.245    132.310    162.071
         TR   0.139E+29             1481.254      4.968     44.987
         TOT                       22372.4992   137.2785   207.0577   866.3295

       T/K    H(0)-H(T)+PV         H(T)/Eh          T*S/Eh         G(T)/Eh
   ------------------------------------------------------------------------
    298.15    0.356528E-01    0.540418E+00    0.983798E-01    0.442038E+00
   ------------------------------------------------------------------------

         :::::::::::::::::::::::::::::::::::::::::::::::::::::
         ::                  THERMODYNAMIC                  ::
         :::::::::::::::::::::::::::::::::::::::::::::::::::::
         :: total free energy        -115.615138128122 Eh   ::
         ::.................................................::
         :: total energy             -116.057176040961 Eh   ::
         :: zero point energy           0.504764875265 Eh   ::
         :: G(RRHO) w/o ZPVE           -0.062726962426 Eh   ::
         :: G(RRHO) contrib.            0.442037912839 Eh   ::
         :::::::::::::::::::::::::::::::::::::::::::::::::::::

           -------------------------------------------------
          | TOTAL ENERGY             -116.057176040961 Eh   |
          | TOTAL ENTHALPY           -115.516758318816 Eh   |
          | TOTAL FREE ENERGY        -115.615138128122 Eh   |
          | GRADIENT NORM               0.000125538623 Eh/α |
           -------------------------------------------------

 * finished run on 2025/08/22 at 11:52:30.301
