   * xtb version 6.7.1 (edcfbbe) compiled by 'albert@albert-system' on 2024-07-22

   ID    Z sym.   atoms
    1    6 C      1-12, 14-27, 29-36, 38-65
    2    7 N      13, 28, 37
    3    1 H      66-106

          program call               : xtb data2507/gas/TPBPPI-PY/TPBPPI-PY_gas_S0_finalOpt.xtbopt.xyz --gfn 2 --spinpol --tblite --uhf 2 --ohess vtight --parallel 40 --molden --ceasefiles --namespace data2507/gas/TPBPPI-PY/TPBPPI-PY_gas_T1_preOpt
 * total energy  :  -162.3794597 Eh     change       -0.2393827E-07 Eh
 * total energy  :  -162.3844926 Eh     change       -0.5032848E-02 Eh
 * total energy  :  -162.3868059 Eh     change       -0.2313396E-02 Eh
 * total energy  :  -162.3873422 Eh     change       -0.5362187E-03 Eh
 * total energy  :  -162.3879819 Eh     change       -0.6397201E-03 Eh
 * total energy  :  -162.3883285 Eh     change       -0.3465730E-03 Eh
 * total energy  :  -162.3885672 Eh     change       -0.2387722E-03 Eh
 * total energy  :  -162.3887034 Eh     change       -0.1361185E-03 Eh
 * total energy  :  -162.3888076 Eh     change       -0.1042063E-03 Eh
 * total energy  :  -162.3889008 Eh     change       -0.9321303E-04 Eh
 * total energy  :  -162.3924549 Eh     change       -0.8183676E-06 Eh
 * total energy  :  -162.3924558 Eh     change       -0.8711214E-06 Eh
 * total energy  :  -162.3924568 Eh     change       -0.1019136E-05 Eh
 * total energy  :  -162.3924577 Eh     change       -0.8887934E-06 Eh
 * total energy  :  -162.3924588 Eh     change       -0.1057223E-05 Eh
 * total energy  :  -162.3924597 Eh     change       -0.9470671E-06 Eh
 * total energy  :  -162.3924608 Eh     change       -0.1117238E-05 Eh
 * total energy  :  -162.3924608 Eh     change        0.2923815E-07 Eh
 * total energy  :  -162.3924608 Eh     change       -0.3740919E-07 Eh
   *** GEOMETRY OPTIMIZATION CONVERGED AFTER 186 ITERATIONS ***

 final structure:
================
106
 xtb: 6.7.1 (edcfbbe)
C           -6.23597554349985        0.38571835048852       -5.17772305536750
C           -5.27872732246608        1.35080051747601       -4.91478127696550
C           -4.70231183777524        1.43275229934667       -3.66064403642139
C           -5.08279429685543        0.55623468215375       -2.64857140117855
C           -4.45669067007962        0.65159774530836       -1.31729788936922
C           -3.07790471121170        0.66610917160240       -1.22371466011394
C           -2.41890177719513        0.75513122155200        0.00691257497459
C           -0.97253237850800        0.82765320603475        0.04048448208179
C           -0.19146960028583        0.04212197943922       -0.83687599117078
C            1.17011387097587        0.03793954979178       -0.78284589456267
C            1.86755921689511        0.86708930275326        0.14682159573728
C            3.25399025482343        0.92837410942465        0.30349972192025
N            3.85760577830868        1.97227934136249        0.91533240516756
C            5.15687124664970        1.80328578243336        0.76884134251809
C            6.19860666611344        2.69076045471377        1.17213320972145
C            5.89634194927108        3.92378548529088        1.75261818851043
C            6.90488761348526        4.79885248504135        2.09357228375710
C            8.22356095325056        4.44262588284011        1.84304563236054
C            8.53198583824158        3.22104024146335        1.27646388136268
C            7.53563773480496        2.29987336388745        0.93315066443243
C            7.82756923177078        0.98584151306067        0.37895880970396
C            9.13741752992771        0.52495512735523        0.25428388027827
C            9.43467382470532       -0.73595846534442       -0.22373707128132
C            8.40449355233546       -1.60622653532553       -0.57769912052371
C            7.10200974978847       -1.19561344363070       -0.48060296625367
C            6.76998667945128        0.10281815777624       -0.02741586362908
C            5.45147735926345        0.56945983393838        0.09799599006946
N            4.22592661898421        0.02451569638219       -0.19625518527471
C            3.93944931094807       -1.20947142021226       -0.78475687480571
C            3.15088218071615       -2.13901339348961       -0.10173614918148
C            2.83921647127969       -3.34411126351293       -0.69034998485341
C            3.30278868754172       -3.66169161296760       -1.96977954753756
C            2.96967504617578       -4.94354326602256       -2.58911688751470
C            1.71683027829807       -5.53817529525153       -2.42386062341672
C            1.45663347546838       -6.75257535304993       -3.03105992767548
C            2.45680574121208       -7.33955932965744       -3.79283218858395
N            3.65077047665552       -6.79325116447527       -3.95543680713393
C            3.89700823542476       -5.63818617923707       -3.37220427968515
C            4.09292456349083       -2.72562280607035       -2.64388013447994
C            4.40546279195710       -1.51519754231487       -2.06605927655572
C            1.07315413984702        1.75109546912179        0.94391435757757
C           -0.28433386773531        1.71109767685310        0.90854161440748
C           -3.19752724983148        0.79376951969880        1.18397178845283
C           -2.54294442205280        0.79087677946238        2.50505607294654
C           -1.62125407221944       -0.20458047747037        2.82131608142491
C           -1.00897413043857       -0.22597719335027        4.05972039939006
C           -1.30554192786217        0.74695364837498        4.99943457324604
C           -2.21917009911877        1.74163127571352        4.69330596349433
C           -2.83631627754693        1.76359767521107        3.45704954446332
C           -4.58950903092077        0.76916177606177        1.09787984386709
C           -5.40407007740213        0.79882101379906        2.33210232678538
C           -5.26853378095949       -0.19915902243922        3.29158897517550
C           -6.03374865831638       -0.17229709737538        4.44231215667862
C           -6.94145976394298        0.85226968605368        4.65045151351501
C           -7.08223775198502        1.84937790937986        3.70027590033662
C           -6.32051011206170        1.82272453285942        2.54706726107513
C           -5.23046314763867        0.70847764454763       -0.14610212339722
C           -6.70137762043635        0.70980603954287       -0.22842777309310
C           -7.45738083570995       -0.24452959336818        0.44720722592242
C           -8.83644948455316       -0.23505515693865        0.36110712412956
C           -9.48106525265783        0.72852619045125       -0.39635028780045
C           -8.73743894197982        1.68176883958997       -1.07174001247012
C           -7.35808192641481        1.67180644771626       -0.99179037549853
C           -6.03893025083563       -0.41694037497573       -2.92500290353670
C           -6.60956103732720       -0.50035343542697       -4.18097085850662
H           -6.68765640169965        0.32280564142254       -6.15678173019259
H           -4.98131840592090        2.04329165231609       -5.68906305077225
H           -3.96329333845920        2.19396643270845       -3.45305282982442
H           -2.49397329206589        0.63570451851201       -2.13206957800499
H           -0.69185341328689       -0.60339633683217       -1.54480524567567
H            1.72178088652230       -0.56528728380614       -1.48488847571899
H            4.85724355387123        4.16471876971356        1.91361433158436
H            6.67479168929256        5.75330149137391        2.54235048493129
H            9.02165063966208        5.12646569799475        2.09357358422774
H            9.57093679943344        2.99449711171605        1.09776255640281
H            9.95892343629511        1.15756724610875        0.54989967414174
H           10.46340236259668       -1.05241787221219       -0.30592069182203
H            8.63272234197755       -2.60400156626735       -0.92171482518926
H            6.31140256613376       -1.88341008329055       -0.73036441483095
H            2.79406224676665       -1.90125086775220        0.88937710364754
H            2.25029370074532       -4.06469299181071       -0.14267554377976
H            0.95228796963814       -5.03934153976974       -1.84506951069116
H            0.49513098987732       -7.23114442562415       -2.92379845919571
H            2.30132928390869       -8.28477974451399       -4.29543888555242
H            4.89645126509924       -5.24844659686764       -3.51824570653698
H            4.43581118784105       -2.94073451752166       -3.64477593597545
H            4.99947770673037       -0.78819537296811       -2.60072353571681
H            1.59562464644396        2.43544943420554        1.59220954785893
H           -0.85595453466535        2.38798103619526        1.52477714578348
H           -1.39643871512377       -0.97006595364253        2.09196842731614
H           -0.29835045503009       -1.00530916182489        4.29405013599289
H           -0.82581158898939        0.73041466361577        5.96686105720990
H           -2.45158472361360        2.50537289728417        5.42105272082410
H           -3.53904458196359        2.54844211601520        3.21792942284347
H           -4.56508452276281       -1.00305561216509        3.12787164711502
H           -5.92125375676195       -0.95414441156701        5.17936183564904
H           -7.53792585492664        0.87324333748302        5.55065995723868
H           -7.78872839359976        2.65135109595069        3.85769069160148
H           -6.42791235688241        2.60469200638906        1.80892756518436
H           -6.95797827632656       -1.00492704143334        1.02999266737530
H           -9.41090510496771       -0.98394669601682        0.88680512889456
H          -10.55915702040796        0.73584447991150       -0.46095438931213
H           -9.23462826995246        2.43666932225163       -1.66342037136575
H           -6.78039840131823        2.42130506541686       -1.51364594688993
H           -6.32678087478135       -1.11633223813971       -2.15399607292372
H           -7.35009467160097       -1.26044934145771       -4.38310029244195

 projected vibrational frequencies (cm⁻¹)
eigval :       -0.00    -0.00    -0.00    -0.00     0.00     0.00
eigval :        6.11     7.72    12.01    16.42    16.67    25.83
eigval :       27.75    35.68    38.49    43.20    46.57    47.58
eigval :       50.07    60.04    63.85    71.87    73.50    74.36
eigval :       75.80    80.54    87.97    93.84   101.64   111.39
eigval :      113.57   122.92   125.49   137.57   158.88   169.10
eigval :      177.47   202.15   203.69   209.52   212.93   221.51
eigval :      223.79   235.76   243.48   244.71   255.80   259.06
eigval :      281.59   286.27   299.10   317.73   322.94   354.40
eigval :      358.55   363.37   371.73   373.53   374.12   374.87
eigval :      375.36   378.88   385.95   389.99   396.24   398.86
eigval :      401.55   421.64   430.75   451.27   460.83   464.65
eigval :      477.36   486.77   491.02   496.93   497.92   511.44
eigval :      517.22   523.64   532.68   540.07   574.93   581.32
eigval :      582.60   585.14   586.89   587.93   589.38   592.13
eigval :      595.07   603.80   605.82   610.60   616.27   627.03
eigval :      636.62   646.51   654.13   659.51   665.11   667.15
eigval :      668.42   672.08   675.23   677.29   683.91   685.33
eigval :      690.15   691.18   714.23   719.39   727.20   741.36
eigval :      753.14   757.67   763.44   764.12   765.97   773.43
eigval :      777.72   782.54   792.84   804.56   819.77   823.40
eigval :      831.63   849.16   861.97   864.44   866.71   871.86
eigval :      876.79   877.16   879.31   880.18   895.67   898.81
eigval :      901.45   901.77   903.06   904.14   906.15   911.48
eigval :      912.69   913.60   916.05   917.21   920.87   922.08
eigval :      925.74   928.22   928.48   928.89   929.66   930.16
eigval :      930.49   930.67   931.57   932.04   935.12   950.75
eigval :      962.61   974.34   979.66   983.87   990.84   993.28
eigval :     1005.76  1033.41  1045.50  1065.92  1076.67  1079.19
eigval :     1084.34  1085.00  1085.63  1088.12  1089.26  1096.16
eigval :     1103.01  1119.66  1121.08  1121.70  1122.33  1130.74
eigval :     1133.44  1136.35  1139.30  1143.72  1153.94  1174.06
eigval :     1180.17  1182.07  1182.09  1182.26  1182.37  1183.85
eigval :     1185.44  1192.27  1196.34  1198.48  1199.12  1201.63
eigval :     1203.29  1206.18  1213.57  1236.83  1247.19  1249.33
eigval :     1256.32  1259.25  1263.87  1271.53  1280.81  1281.80
eigval :     1282.25  1282.68  1283.92  1284.43  1291.50  1293.79
eigval :     1297.70  1306.09  1314.79  1315.22  1316.32  1317.48
eigval :     1318.89  1320.47  1327.45  1334.50  1345.40  1352.87
eigval :     1384.57  1390.06  1392.86  1395.78  1404.75  1411.29
eigval :     1414.06  1421.25  1426.29  1429.51  1430.46  1434.06
eigval :     1434.69  1439.64  1447.27  1450.94  1464.12  1473.69
eigval :     1479.00  1479.79  1484.98  1487.35  1489.33  1500.94
eigval :     1506.72  1521.57  1526.69  1543.47  1548.22  1548.70
eigval :     1557.53  1562.91  1574.96  1577.29  1578.48  1578.88
eigval :     1582.34  1583.86  1590.17  1596.99  1598.09  1600.28
eigval :     1601.82  3051.90  3061.74  3068.48  3068.51  3069.00
eigval :     3070.85  3071.05  3071.91  3072.24  3072.97  3073.56
eigval :     3073.74  3075.84  3079.24  3079.39  3079.72  3080.67
eigval :     3080.80  3080.84  3082.43  3082.61  3084.52  3085.61
eigval :     3085.95  3086.84  3089.01  3089.50  3090.71  3092.16
eigval :     3092.22  3092.68  3093.31  3093.37  3093.92  3094.29
eigval :     3099.07  3107.59  3110.45  3116.04  3116.71  3126.32

   temp. (K)  partition function   enthalpy   heat capacity  entropy
                                   cal/mol     cal/K/mol   cal/K/mol   J/K/mol
 298.15  VIB  0.402E+26            31058.187    192.822    196.982
         ROT  0.227E+09              888.752      2.981     41.213
         INT  0.911E+34            31946.939    195.803    238.194
         TR   0.231E+29             1481.254      4.968     45.998
         TOT                       33428.1932   200.7710   284.1926  1189.0616

       T/K    H(0)-H(T)+PV         H(T)/Eh          T*S/Eh         G(T)/Eh
   ------------------------------------------------------------------------
    298.15    0.532712E-01    0.867552E+00    0.135029E+00    0.732523E+00
   ------------------------------------------------------------------------

         :::::::::::::::::::::::::::::::::::::::::::::::::::::
         ::                  THERMODYNAMIC                  ::
         :::::::::::::::::::::::::::::::::::::::::::::::::::::
         :: total free energy        -161.659937953276 Eh   ::
         ::.................................................::
         :: total energy             -162.392460839683 Eh   ::
         :: zero point energy           0.814280720736 Eh   ::
         :: G(RRHO) w/o ZPVE           -0.081757834330 Eh   ::
         :: G(RRHO) contrib.            0.732522886407 Eh   ::
         :::::::::::::::::::::::::::::::::::::::::::::::::::::

           -------------------------------------------------
          | TOTAL ENERGY             -162.392460839683 Eh   |
          | TOTAL ENTHALPY           -161.524908902231 Eh   |
          | TOTAL FREE ENERGY        -161.659937953276 Eh   |
          | GRADIENT NORM               0.000077631335 Eh/α |
           -------------------------------------------------

 * finished run on 2025/08/21 at 20:04:23.876
