   * xtb version 6.7.1 (edcfbbe) compiled by 'albert@albert-system' on 2024-07-22

   ID    Z sym.   atoms
    1    6 C      1-12, 14-27, 29-36, 38-65
    2    7 N      13, 28, 37
    3    1 H      66-106

          program call               : xtb data2507/gas/TPBPPI-PY/TPBPPI-PY_gas_S0_crest.xyz --gfn 2 --ohess vtight --parallel 40 --molden --ceasefiles --namespace data2507/gas/TPBPPI-PY/TPBPPI-PY_gas_S0_finalOpt
          :  Hamiltonian                  GFN2-xTB          :
 * total energy  :  -162.4791277 Eh     change       -0.3821299E-08 Eh
 * total energy  :  -162.4791292 Eh     change       -0.1443044E-05 Eh
 * total energy  :  -162.4791309 Eh     change       -0.1767028E-05 Eh
 * total energy  :  -162.4791341 Eh     change       -0.3140911E-05 Eh
 * total energy  :  -162.4791361 Eh     change       -0.2029028E-05 Eh
 * total energy  :  -162.4791383 Eh     change       -0.2192719E-05 Eh
 * total energy  :  -162.4791411 Eh     change       -0.2768035E-05 Eh
 * total energy  :  -162.4791435 Eh     change       -0.2404965E-05 Eh
 * total energy  :  -162.4791449 Eh     change       -0.1470601E-05 Eh
 * total energy  :  -162.4791459 Eh     change       -0.9191347E-06 Eh
 * total energy  :  -162.4791485 Eh     change       -0.7990097E-06 Eh
 * total energy  :  -162.4791492 Eh     change       -0.6611140E-06 Eh
 * total energy  :  -162.4791497 Eh     change       -0.5408750E-06 Eh
 * total energy  :  -162.4791504 Eh     change       -0.6562712E-06 Eh
 * total energy  :  -162.4791513 Eh     change       -0.8792158E-06 Eh
 * total energy  :  -162.4791523 Eh     change       -0.9939235E-06 Eh
 * total energy  :  -162.4791531 Eh     change       -0.8071294E-06 Eh
 * total energy  :  -162.4791537 Eh     change       -0.6182408E-06 Eh
 * total energy  :  -162.4791537 Eh     change       -0.5102066E-08 Eh
   *** GEOMETRY OPTIMIZATION CONVERGED AFTER 22 ITERATIONS ***

 final structure:
================
106
 xtb: 6.7.1 (edcfbbe)
C           -6.53407691255955        2.26673715375893       -4.96381959031909
C           -5.63520397696698        3.16219033933268       -4.40976492752868
C           -4.94475663433125        2.82983384631585       -3.25878252439039
C           -5.15221071063045        1.60050055296633       -2.64023410906104
C           -4.40903275243505        1.25885302874073       -1.41377891916022
C           -3.02674492726029        1.39007838665197       -1.40264652522779
C           -2.27933184082198        1.06399460342552       -0.28080677750702
C           -0.81574581894212        1.23404046677926       -0.29822355501515
C           -0.05130515811553        0.60488595737818       -1.27572892937068
C            1.32576122549312        0.68976622226066       -1.25345927774625
C            1.96671428319335        1.42600472567668       -0.25969595665142
C            3.41986391782080        1.46968044440133       -0.16659056911597
N            4.13342431092893        2.55123987271742       -0.00729730633544
C            5.43148705289727        2.14092475930676        0.01592031807382
C            6.59841280424893        2.94684809800789        0.12380363119963
C            6.51094328326045        4.33993034499306        0.21703940828384
C            7.64975601132866        5.10265601650904        0.28304933731399
C            8.89496486333378        4.47762900316293        0.25125677067296
C            8.99248239432373        3.10852274290465        0.16667220327075
C            7.85185526804388        2.29295619993851        0.10851365672236
C            7.92081332467190        0.84292128448433        0.05842713969657
C            9.14436290561597        0.16153510510330        0.12837619058593
C            9.21619602628324       -1.21121756834885        0.13112146268148
C            8.05209394418583       -1.97159299888282        0.08337794555583
C            6.83368686763375       -1.34383871300797        0.00527534296244
C            6.74052510383706        0.05485601780648       -0.03219706131273
C            5.50478746854444        0.75567568624300       -0.11730810147910
N            4.19987438849071        0.33417030465840       -0.24441871158130
C            3.67647277591943       -0.95677711729346       -0.43061497867486
C            2.74146510736449       -1.45265298096526        0.47214527510191
C            2.16441136212572       -2.68716067317433        0.25499424342148
C            2.51240417073274       -3.45280427207693       -0.85598573904215
C            1.89070696380280       -4.76180905050192       -1.08270868972689
C            0.53370358390221       -4.97697247274618       -0.84575412945100
C           -0.00351558215642       -6.23038862653958       -1.07805130710007
C            0.83527822292033       -7.23164198099378       -1.54514862692374
N            2.12505837516351       -7.04546725211924       -1.76778756635634
C            2.63443218102880       -5.85096889815747       -1.54159946332869
C            3.45929756704043       -2.95102242659292       -1.74789777800864
C            4.03081652159989       -1.71124474393688       -1.54572833009487
C            1.20011956745771        2.11865076894747        0.67437752941313
C           -0.17493283770112        2.01382947047350        0.66093984834254
C           -2.92546948869928        0.58112230334721        0.86208701271387
C           -2.13480900833743        0.20860798686222        2.05249949427729
C           -1.11251395311902       -0.73052193336825        1.95020257403399
C           -0.36914706660149       -1.07971279652210        3.06176738738153
C           -0.63216398411593       -0.49350526079096        4.28822239673151
C           -1.64511225803333        0.44370174101384        4.39778453350600
C           -2.39307049042438        0.79178057836597        3.28869953991671
C           -4.31672803943302        0.44719009692792        0.86362312049528
C           -5.00208062355033       -0.06040154638273        2.07082284374344
C           -4.67922433658146       -1.30950988497009        2.59079866016766
C           -5.32055561688260       -1.78561999566000        3.71883245140552
C           -6.28914332267464       -1.01886105847831        4.34387308860996
C           -6.61462471912225        0.22657785884107        3.83401882099053
C           -5.97723006398300        0.70310965391212        2.70384732588098
C           -5.06228123448035        0.78814619153084       -0.26929865120345
C           -6.53328324494299        0.66050052285528       -0.25343984211367
C           -7.13913235811453       -0.55901345739961        0.03175737740668
C           -8.51676312966621       -0.67024447715408        0.04349529966674
C           -9.30677215975614        0.43451918463694       -0.22560248397074
C           -8.71178021433597        1.65201718010799       -0.50988834433017
C           -7.33437188054743        1.76493883633688       -0.52607039898756
C           -6.05011813482127        0.70256837172559       -3.21000465871716
C           -6.73476583307616        1.03481759174337       -4.36367071224657
H           -7.07450466274527        2.52690693018328       -5.86198163091985
H           -5.47240532096364        4.12354582921119       -4.87520666831989
H           -4.25105691034540        3.53385174680644       -2.82094653031035
H           -2.52153774667940        1.75418495150360       -2.28596026594046
H           -0.54265792529586        0.02114946558319       -2.04138706912372
H            1.90427710721908        0.18855937999065       -2.01579402757140
H            5.52737789539612        4.78328440921381        0.22742656767357
H            7.58744838499956        6.17859301459113        0.35350295966877
H            9.79462538229354        5.07464796937405        0.29374842389496
H            9.97752548208581        2.67004971243799        0.14191999805706
H           10.06503889449755        0.71853217131007        0.19288977211515
H           10.17759099834669       -1.70037898046434        0.18578574662949
H            8.10519512649358       -3.04991379980490        0.11264031818154
H            5.93246895175103       -1.93651052506025       -0.00895542750472
H            2.46832032735706       -0.86307466568688        1.33478789183518
H            1.44833372543276       -3.07335419201424        0.96497917358584
H           -0.09290506448791       -4.16480393621891       -0.50462637039615
H           -1.05124851103761       -6.42477851169989       -0.90789981155929
H            0.46354637188316       -8.22640992377874       -1.75149283952223
H            3.69826951955079       -5.75718220390132       -1.71865274859744
H            3.72611486907399       -3.52488133330653       -2.62264977850078
H            4.75006243637818       -1.31658405088417       -2.24870801620468
H            1.70072784313338        2.71861885234837        1.41849161284129
H           -0.76297835901216        2.53612813166526        1.40094442617527
H           -0.90759827539109       -1.19168698586464        0.99402325887673
H            0.41912841825994       -1.81396410015114        2.97514504201971
H           -0.04903030849277       -0.76641567645729        5.15536116459724
H           -1.85341007213350        0.90603100400463        5.35148253480919
H           -3.17785560312861        1.52904493076768        3.37578265970717
H           -3.92795881811722       -1.91206750834827        2.10043038323699
H           -5.06347491597592       -2.75867151370033        4.11164463166305
H           -6.78897726883696       -1.39096976220871        5.22601255551250
H           -7.36855030365066        0.82961551130631        4.31863615465185
H           -6.22845485095258        1.67792961844721        2.31118836857780
H           -6.52501664068661       -1.42479368522141        0.23394776563625
H           -8.97560257719314       -1.62328780248376        0.26331068509529
H          -10.38318062648724        0.34669503506518       -0.21449318952368
H           -9.32332052534304        2.51739787932285       -0.72002879316846
H           -6.87148030674525        2.71716563429561       -0.74260793574597
H           -6.20301177120326       -0.26294906861074       -2.75082774799924
H           -7.42867371470495        0.32909268594455       -4.79654874147273

          :  Hamiltonian                  GFN2-xTB          :
         :: gradient norm              0.000052499634 Eh/a0 ::
         :: HOMO-LUMO gap              2.481834659024 eV    ::
         :: SCC energy              -165.598321770620 Eh    ::
         :: -> dispersion             -0.164671312725 Eh    ::
         :: repulsion energy           3.119168074535 Eh    ::

    * Orbital Energies and Occupations

         #    Occupation            Energy/Eh            Energy/eV
      -------------------------------------------------------------
         1        2.0000           -0.6864718             -18.6798
       ...           ...                  ...                  ...
       140        2.0000           -0.4052690             -11.0279
       141        2.0000           -0.4040044             -10.9935
       142        2.0000           -0.4033219             -10.9749
       143        2.0000           -0.3996609             -10.8753
       144        2.0000           -0.3978292             -10.8255
       145        2.0000           -0.3955333             -10.7630
       146        2.0000           -0.3931977             -10.6995
       147        2.0000           -0.3839931             -10.4490
       148        2.0000           -0.3797224             -10.3328
       149        2.0000           -0.3787611             -10.3066
       150        2.0000           -0.3756976             -10.2233
       151        2.0000           -0.3730043             -10.1500
       152        2.0000           -0.3618977              -9.8477 (HOMO)
       153                         -0.2706920              -7.3659 (LUMO)
       154                         -0.2593759              -7.0580
       155                         -0.2528649              -6.8808
       156                         -0.2508040              -6.8247
       157                         -0.2463232              -6.7028
       158                         -0.2461642              -6.6985
       159                         -0.2441630              -6.6440
       160                         -0.2348505              -6.3906
       161                         -0.2296734              -6.2497
       162                         -0.2275181              -6.1911
       163                         -0.2256084              -6.1391
       ...                                ...                  ...
       301                          0.7305102              19.8782
      -------------------------------------------------------------
                  HL-Gap            0.0912058 Eh            2.4818 eV

     #   Z          covCN         q      C6AA      α(0)
     1   6 C        2.920    -0.031    28.771     8.796
     2   6 C        2.919    -0.030    28.741     8.791
     3   6 C        2.926    -0.034    28.845     8.808
     4   6 C        2.978     0.013    27.723     8.637
     5   6 C        2.978     0.003    27.953     8.672
     6   6 C        2.929    -0.043    29.060     8.841
     7   6 C        2.979     0.002    27.972     8.675
     8   6 C        2.979     0.015    27.680     8.630
     9   6 C        2.924    -0.034    28.847     8.808
    10   6 C        2.922    -0.033    28.824     8.804
    11   6 C        2.975     0.001    27.990     8.678
    12   6 C        3.198     0.129    24.682     8.097
    13   7 N        1.892    -0.289    28.340     7.892
    14   6 C        3.213     0.056    26.097     8.313
    15   6 C        2.986     0.003    27.948     8.672
    16   6 C        2.922    -0.031    28.777     8.797
    17   6 C        2.917    -0.030    28.753     8.793
    18   6 C        2.917    -0.033    28.819     8.803
    19   6 C        2.922    -0.035    28.867     8.811
    20   6 C        2.979    -0.002    28.059     8.689
    21   6 C        2.980     0.002    27.978     8.676
    22   6 C        2.922    -0.034    28.838     8.806
    23   6 C        2.916    -0.033    28.830     8.805
    24   6 C        2.917    -0.032    28.793     8.799
    25   6 C        2.919    -0.040    28.998     8.831
    26   6 C        2.978    -0.002    28.065     8.690
    27   6 C        3.072     0.019    27.509     8.600
    28   7 N        2.842    -0.045    22.115     6.984
    29   6 C        2.914     0.067    26.494     8.440
    30   6 C        2.920    -0.039    28.959     8.825
    31   6 C        2.925    -0.030    28.760     8.795
    32   6 C        2.976     0.008    27.844     8.656
    33   6 C        2.973     0.001    28.005     8.680
    34   6 C        2.933    -0.016    28.402     8.740
    35   6 C        2.912    -0.038    28.949     8.823
    36   6 C        2.914     0.058    26.693     8.472
    37   7 N        1.835    -0.216    26.544     7.635
    38   6 C        2.918     0.056    26.749     8.481
    39   6 C        2.924    -0.033    28.824     8.804
    40   6 C        2.919    -0.037    28.918     8.818
    41   6 C        2.925    -0.028    28.690     8.784
    42   6 C        2.923    -0.030    28.749     8.793
    43   6 C        2.983    -0.002    28.080     8.692
    44   6 C        2.978     0.016    27.655     8.626
    45   6 C        2.925    -0.032    28.800     8.801
    46   6 C        2.919    -0.030    28.756     8.794
    47   6 C        2.920    -0.031    28.780     8.797
    48   6 C        2.919    -0.029    28.722     8.789
    49   6 C        2.925    -0.031    28.771     8.796
    50   6 C        2.982    -0.000    28.026     8.684
    51   6 C        2.978     0.016    27.653     8.626
    52   6 C        2.925    -0.032    28.786     8.799
    53   6 C        2.919    -0.030    28.743     8.792
    54   6 C        2.920    -0.031    28.774     8.797
    55   6 C        2.919    -0.029    28.734     8.790
    56   6 C        2.925    -0.031    28.779     8.797
    57   6 C        2.983    -0.001    28.054     8.688
    58   6 C        2.978     0.016    27.649     8.625
    59   6 C        2.925    -0.032    28.792     8.799
    60   6 C        2.919    -0.030    28.742     8.792
    61   6 C        2.920    -0.031    28.776     8.797
    62   6 C        2.919    -0.029    28.737     8.791
    63   6 C        2.925    -0.031    28.781     8.798
    64   6 C        2.924    -0.031    28.782     8.798
    65   6 C        2.919    -0.029    28.730     8.790
    66   1 H        0.926     0.030     2.588     2.516
    67   1 H        0.926     0.030     2.582     2.513
    68   1 H        0.926     0.030     2.582     2.513
    69   1 H        0.926     0.035     2.523     2.484
    70   1 H        0.926     0.032     2.562     2.503
    71   1 H        0.926     0.027     2.633     2.537
    72   1 H        0.926     0.051     2.312     2.378
    73   1 H        0.926     0.030     2.588     2.516
    74   1 H        0.926     0.028     2.619     2.531
    75   1 H        0.926     0.030     2.581     2.512
    76   1 H        0.926     0.034     2.527     2.486
    77   1 H        0.926     0.029     2.606     2.524
    78   1 H        0.926     0.027     2.629     2.536
    79   1 H        0.926     0.025     2.661     2.551
    80   1 H        0.926     0.042     2.428     2.437
    81   1 H        0.926     0.039     2.456     2.451
    82   1 H        0.926     0.035     2.516     2.481
    83   1 H        0.926     0.037     2.486     2.466
    84   1 H        0.925     0.041     2.438     2.442
    85   1 H        0.925     0.040     2.444     2.445
    86   1 H        0.926     0.042     2.420     2.432
    87   1 H        0.926     0.045     2.381     2.413
    88   1 H        0.926     0.047     2.354     2.400
    89   1 H        0.926     0.035     2.511     2.478
    90   1 H        0.926     0.022     2.698     2.569
    91   1 H        0.926     0.025     2.657     2.549
    92   1 H        0.926     0.030     2.584     2.514
    93   1 H        0.926     0.031     2.574     2.509
    94   1 H        0.926     0.029     2.600     2.521
    95   1 H        0.926     0.025     2.656     2.548
    96   1 H        0.926     0.029     2.603     2.523
    97   1 H        0.926     0.030     2.588     2.516
    98   1 H        0.926     0.030     2.588     2.516
    99   1 H        0.926     0.028     2.619     2.531
   100   1 H        0.926     0.026     2.640     2.541
   101   1 H        0.926     0.029     2.601     2.522
   102   1 H        0.926     0.030     2.591     2.517
   103   1 H        0.926     0.030     2.592     2.518
   104   1 H        0.926     0.027     2.624     2.533
   105   1 H        0.926     0.028     2.611     2.527
   106   1 H        0.926     0.029     2.596     2.519

molecular dipole:
                 x           y           z       tot (Debye)
 q only:       -0.935      -0.418       0.064
   full:       -1.073      -0.555       0.165       3.098

 projected vibrational frequencies (cm⁻¹)
eigval :       -0.00    -0.00     0.00     0.00     0.00     0.00
eigval :        7.78     9.18    13.68    16.75    19.13    25.96
eigval :       28.77    36.01    38.72    43.00    44.95    47.55
eigval :       51.49    63.15    63.68    72.30    72.88    74.18
eigval :       77.10    79.13    85.07    92.33   100.83   103.57
eigval :      106.98   119.63   120.77   134.56   162.72   164.12
eigval :      177.30   204.08   206.29   208.99   213.30   220.84
eigval :      231.40   235.95   244.02   246.94   255.66   259.45
eigval :      283.36   293.76   304.96   317.68   346.14   358.28
eigval :      359.91   367.52   371.63   373.88   374.07   374.79
eigval :      375.48   378.93   384.85   397.45   404.67   408.69
eigval :      415.39   439.08   446.71   453.21   464.92   480.36
eigval :      488.72   491.06   499.22   501.21   519.75   522.37
eigval :      530.21   535.57   541.01   547.12   579.04   583.80
eigval :      585.38   587.70   588.17   590.06   596.18   597.55
eigval :      605.71   608.45   612.31   615.89   633.03   643.35
eigval :      646.18   655.86   664.04   667.56   670.05   674.53
eigval :      678.39   681.01   683.05   685.78   687.99   690.30
eigval :      700.27   708.41   719.70   725.20   735.27   746.15
eigval :      759.20   764.29   765.60   766.21   770.68   782.49
eigval :      783.44   785.11   799.07   820.02   827.69   839.43
eigval :      863.26   869.81   872.06   872.85   875.98   877.35
eigval :      878.01   878.81   879.71   884.24   902.28   902.50
eigval :      902.74   903.18   904.87   907.77   913.14   914.59
eigval :      917.70   918.86   923.88   927.52   927.94   928.97
eigval :      929.12   929.37   929.70   930.37   931.57   931.80
eigval :      931.96   932.04   932.50   939.56   950.01   960.20
eigval :      970.11   982.16   988.13   993.09  1006.79  1015.37
eigval :     1030.89  1042.10  1070.23  1074.93  1082.03  1084.87
eigval :     1085.27  1085.82  1086.27  1091.41  1096.98  1108.08
eigval :     1120.83  1121.36  1121.52  1122.01  1134.45  1134.71
eigval :     1135.94  1139.30  1142.48  1152.84  1174.16  1182.35
eigval :     1182.37  1182.41  1182.46  1183.09  1185.88  1190.35
eigval :     1190.56  1197.23  1198.59  1198.71  1201.76  1203.10
eigval :     1204.77  1209.87  1241.30  1252.97  1254.72  1257.64
eigval :     1264.00  1269.64  1270.50  1279.53  1280.20  1282.70
eigval :     1283.42  1283.93  1284.95  1290.44  1295.84  1296.46
eigval :     1304.65  1313.57  1315.40  1316.30  1317.77  1319.28
eigval :     1320.55  1326.46  1339.93  1346.59  1364.56  1376.33
eigval :     1392.86  1396.63  1408.15  1408.98  1412.65  1421.73
eigval :     1425.15  1430.52  1431.68  1432.48  1435.73  1436.89
eigval :     1442.41  1450.04  1476.47  1479.64  1483.94  1490.70
eigval :     1494.70  1499.57  1515.45  1520.07  1537.20  1551.74
eigval :     1557.97  1560.30  1564.84  1566.26  1567.93  1572.99
eigval :     1575.22  1582.77  1583.38  1584.03  1585.00  1595.13
eigval :     1596.32  1601.12  1601.35  1601.94  1602.10  1602.41
eigval :     1605.67  3054.52  3062.91  3065.61  3068.50  3069.48
eigval :     3070.94  3071.49  3071.57  3071.97  3072.77  3073.30
eigval :     3074.03  3074.08  3075.71  3077.87  3078.39  3079.92
eigval :     3080.34  3080.64  3083.07  3083.51  3084.27  3085.09
eigval :     3085.16  3085.25  3085.78  3085.98  3086.19  3087.43
eigval :     3092.49  3092.77  3092.90  3093.15  3093.66  3094.67
eigval :     3095.78  3096.75  3102.40  3105.11  3108.52  3110.78

   temp. (K)  partition function   enthalpy   heat capacity  entropy
                                   cal/mol     cal/K/mol   cal/K/mol   J/K/mol
 298.15  VIB  0.174E+26            30786.631    190.868    195.203
         ROT  0.202E+09              888.752      2.981     40.987
         INT  0.351E+34            31675.383    193.849    236.190
         TR   0.231E+29             1481.254      4.968     45.998
         TOT                       33156.6372   198.8167   282.1883  1180.6758

       T/K    H(0)-H(T)+PV         H(T)/Eh          T*S/Eh         G(T)/Eh
   ------------------------------------------------------------------------
    298.15    0.528385E-01    0.871480E+00    0.134077E+00    0.737403E+00
   ------------------------------------------------------------------------

         :::::::::::::::::::::::::::::::::::::::::::::::::::::
         ::                  THERMODYNAMIC                  ::
         :::::::::::::::::::::::::::::::::::::::::::::::::::::
         :: total free energy        -161.741750284516 Eh   ::
         ::.................................................::
         :: total energy             -162.479153696084 Eh   ::
         :: zero point energy           0.818641704277 Eh   ::
         :: G(RRHO) w/o ZPVE           -0.081238292709 Eh   ::
         :: G(RRHO) contrib.            0.737403411568 Eh   ::
         :::::::::::::::::::::::::::::::::::::::::::::::::::::

           -------------------------------------------------
          | TOTAL ENERGY             -162.479153696084 Eh   |
          | TOTAL ENTHALPY           -161.607673527163 Eh   |
          | TOTAL FREE ENERGY        -161.741750284516 Eh   |
          | GRADIENT NORM               0.000052491874 Eh/α |
          | HOMO-LUMO GAP               2.481835159469 eV   |
           -------------------------------------------------

 * finished run on 2025/08/21 at 20:03:42.108
