   * xtb version 6.7.1 (edcfbbe) compiled by 'albert@albert-system' on 2024-07-22

   ID    Z sym.   atoms
    1    6 C      1-12, 14-27, 29-36, 38-65
    2    7 N      13, 28, 37
    3    1 H      66-106

          program call               : xtb data2507/gas/TPBPPI-PY/TPBPPI-PY.xyz --gfn 2 --ohess vtight --parallel 40 --molden --ceasefiles --namespace data2507/gas/TPBPPI-PY/TPBPPI-PY_gas_S0_preOpt
          :  Hamiltonian                  GFN2-xTB          :
 * total energy  :  -162.4452892 Eh     change       -0.8034505E-08 Eh
 * total energy  :  -162.4618294 Eh     change       -0.1654017E-01 Eh
 * total energy  :  -162.4664456 Eh     change       -0.4616232E-02 Eh
 * total energy  :  -162.4680597 Eh     change       -0.1614142E-02 Eh
 * total energy  :  -162.4690668 Eh     change       -0.1007045E-02 Eh
 * total energy  :  -162.4695008 Eh     change       -0.4340062E-03 Eh
 * total energy  :  -162.4698759 Eh     change       -0.3750961E-03 Eh
 * total energy  :  -162.4703109 Eh     change       -0.4350134E-03 Eh
 * total energy  :  -162.4707956 Eh     change       -0.4847406E-03 Eh
 * total energy  :  -162.4713453 Eh     change       -0.5496445E-03 Eh
 * total energy  :  -162.4789813 Eh     change       -0.7660040E-06 Eh
 * total energy  :  -162.4789821 Eh     change       -0.7611230E-06 Eh
 * total energy  :  -162.4789828 Eh     change       -0.7580034E-06 Eh
 * total energy  :  -162.4789836 Eh     change       -0.7543933E-06 Eh
 * total energy  :  -162.4789844 Eh     change       -0.7510038E-06 Eh
 * total energy  :  -162.4789851 Eh     change       -0.7474191E-06 Eh
 * total energy  :  -162.4789858 Eh     change       -0.7458973E-06 Eh
 * total energy  :  -162.4789866 Eh     change       -0.7408392E-06 Eh
 * total energy  :  -162.4789866 Eh     change       -0.7326065E-08 Eh
   *** GEOMETRY OPTIMIZATION CONVERGED AFTER 540 ITERATIONS ***

 final structure:
================
106
 xtb: 6.7.1 (edcfbbe)
C           -6.19581418547760        3.82698904520929       -4.16258995790153
C           -5.34885055733535        4.43936440864951       -3.25460704742218
C           -4.70781074192309        3.68729524851549       -2.28754422041035
C           -4.91334138598009        2.31292282953306       -2.20913375986345
C           -4.22316588786044        1.52580287753893       -1.17130308058921
C           -2.84851981095298        1.65783577539901       -1.02657105335184
C           -2.15103346379086        0.93598772963796       -0.06987554456770
C           -0.69971241229899        1.14342388451528        0.08363993351666
C            0.15841488700681        0.93210049725582       -0.99052146235051
C            1.52176445748217        1.08642041029790       -0.84156784073270
C            2.05168604882415        1.48360739304215        0.38364787475043
C            3.48773988220751        1.63661140373742        0.57487162841957
N            4.06012268767167        2.67700910640942        1.11767267831221
C            5.39831372106087        2.43113841354363        1.07291005368219
C            6.45434927953944        3.28512375474127        1.49489479892175
C            6.19243888685423        4.55070904117669        2.03030529754290
C            7.22643437914467        5.37635036869557        2.39376854102919
C            8.54019763611995        4.94477802363543        2.22046048455807
C            8.80885265294284        3.69984884950512        1.70165793588624
C            7.77954978104666        2.82206439497016        1.32799834068260
C            8.02855493638637        1.48664744490235        0.81371814881400
C            9.32691185168799        0.96551583976824        0.71955285595648
C            9.56965665792786       -0.31481813160939        0.28210663978422
C            8.50986290120019       -1.14673199727199       -0.06467774823061
C            7.22338782404843       -0.67237103658917        0.00397162600143
C            6.95646086845625        0.64176338597661        0.41421139233258
C            5.64387655613150        1.18600803605644        0.49739696137866
N            4.40203793846467        0.68701024490927        0.16980820286742
C            4.04735082057256       -0.52045900493715       -0.45541010211392
C            3.16533603653493       -1.38818096277543        0.18021780950900
C            2.77209451538763       -2.55095155810600       -0.45033704282860
C            3.25263340333533       -2.87499210120277       -1.71742395481299
C            2.84202519123713       -4.12144687328277       -2.37253365134335
C            1.53102277823265       -4.59032083615905       -2.30019585310031
C            1.20058470820726       -5.77603181860591       -2.93159271862558
C            2.19393212723266       -6.45596529652690       -3.62092962895524
N            3.44258432895476       -6.02774172970036       -3.69370275238805
C            3.75485921277422       -4.89973200588552       -3.08757858364472
C            4.13497938802134       -1.99703250898611       -2.34565468298772
C            4.52328497067752       -0.82577850800233       -1.72772627395952
C            1.18952146894678        1.74961298174433        1.44456148598492
C           -0.16960956928087        1.56703108977823        1.29912235040397
C           -2.83751677451727        0.04153717123057        0.75727545754937
C           -2.09424955585301       -0.74175805070917        1.76425955965847
C           -1.01880258580233       -1.53751836976167        1.37980109274808
C           -0.31649313337349       -2.26698510745963        2.32034710351258
C           -0.67450239869725       -2.20973093511141        3.65652003042821
C           -1.74092626562158       -1.41832471359768        4.04758761749554
C           -2.44715210573237       -0.68985545302308        3.10886224874151
C           -4.22102987475945       -0.10243714197904        0.61888026477404
C           -4.95007038651303       -1.04813211652234        1.48981895512914
C           -4.60766803104840       -2.39625036447935        1.50511918791943
C           -5.29133438399890       -3.28323969656627        2.31529851450274
C           -6.32214701370361       -2.83449283223807        3.12327798920836
C           -6.66668965229294       -1.49348818479484        3.11662330406305
C           -5.98698193279917       -0.60534317926167        2.30435418893590
C           -4.91805492808280        0.64208071280484       -0.33803039115759
C           -6.38366690702723        0.50720867487363       -0.45832171109509
C           -6.96862730838732       -0.73056462275724       -0.70544814390126
C           -8.34156243871458       -0.84583852497184       -0.81647191404703
C           -9.14762818014683        0.27142517267717       -0.67857717255853
C           -8.57339993739096        1.50695784885049       -0.43185173564486
C           -7.20061621721554        1.62554803180979       -0.32440308115042
C           -5.75845988198919        1.70446340419124       -3.13246821701397
C           -6.39381249312461        2.45762654713837       -4.10164217173669
H           -6.69794280423947        4.41460077812315       -4.91693466111145
H           -5.18813305403644        5.50686644966773       -3.29900688146014
H           -4.05535474186799        4.16794823811670       -1.57212268356715
H           -2.31002772311330        2.34004363916354       -1.66896796504051
H           -0.24853498435021        0.62391324072630       -1.94335544197665
H            2.17508444561668        0.91387231859171       -1.68459124457586
H            5.16104259398550        4.84909250877503        2.13642096126590
H            7.02958659558878        6.35523477539388        2.80550647065411
H            9.35777938121899        5.59506836737953        2.49669769250815
H            9.84117849041726        3.41106190143631        1.58297097615469
H           10.17009961914816        1.57307238108828        1.00585110870668
H           10.58409720896236       -0.68074263500321        0.22259283132334
H            8.69667114306615       -2.16222413517600       -0.38141032755774
H            6.40353523896165       -1.32808117611592       -0.24389826455841
H            2.79313423097331       -1.14512640023179        1.16445793992529
H            2.10195977249044       -3.23044030311615        0.05459581823992
H            0.77912920260064       -4.02025405378287       -1.77267644084439
H            0.19322287724790       -6.16127915803298       -2.89567946942562
H            1.98627590175733       -7.38310256987415       -4.13824961586607
H            4.79414648471203       -4.60518359963879       -3.15853842469451
H            4.49829141791537       -2.22281245349571       -3.33697665898710
H            5.19643452808747       -0.14075224341344       -2.22254871637147
H            1.60396975792958        2.08652556351021        2.38212166152943
H           -0.83255511241784        1.75758360364849        2.13013458649221
H           -0.74031453537154       -1.58852171742389        0.33648150249570
H            0.51422846777179       -2.88572534812895        2.01235701278542
H           -0.12379894932484       -2.77986714803959        4.39013453760403
H           -2.02353781578593       -1.36765500740364        5.08886612294888
H           -3.27326716121705       -0.06659416871977        3.41872132782847
H           -3.80754057826683       -2.74912628680222        0.87011037854774
H           -5.01896174365257       -4.32872654109909        2.31589221018263
H           -6.85548350494520       -3.52800859125528        3.75658307178155
H           -7.46880520843970       -1.13758969321196        3.74660337191440
H           -6.25354215625013        0.44179103931199        2.30534013490001
H           -6.34146548895018       -1.60282729228811       -0.82134116613502
H           -8.78419966351541       -1.81181292953586       -1.01164251862149
H          -10.22039108503676        0.17963396782599       -0.76374697939648
H           -9.19747374674330        2.38197044998531       -0.32263177315855
H           -6.75403552937637        2.58949575352039       -0.12618401554214
H           -5.90885388909815        0.63564578740151       -3.09491578856072
H           -7.04721626536363        1.97372230855085       -4.81285373704271

          :  Hamiltonian                  GFN2-xTB          :
         :: gradient norm              0.000071314808 Eh/a0 ::
         :: HOMO-LUMO gap              2.482281894479 eV    ::
         :: SCC energy              -165.598417979006 Eh    ::
         :: -> dispersion             -0.164070524874 Eh    ::
         :: repulsion energy           3.119431384857 Eh    ::

    * Orbital Energies and Occupations

         #    Occupation            Energy/Eh            Energy/eV
      -------------------------------------------------------------
         1        2.0000           -0.6864891             -18.6803
       ...           ...                  ...                  ...
       140        2.0000           -0.4050520             -11.0220
       141        2.0000           -0.4039470             -10.9920
       142        2.0000           -0.4031022             -10.9690
       143        2.0000           -0.3995304             -10.8718
       144        2.0000           -0.3976206             -10.8198
       145        2.0000           -0.3954848             -10.7617
       146        2.0000           -0.3931154             -10.6972
       147        2.0000           -0.3837026             -10.4411
       148        2.0000           -0.3795767             -10.3288
       149        2.0000           -0.3787119             -10.3053
       150        2.0000           -0.3756009             -10.2206
       151        2.0000           -0.3729730             -10.1491
       152        2.0000           -0.3619423              -9.8490 (HOMO)
       153                         -0.2707201              -7.3667 (LUMO)
       154                         -0.2586883              -7.0393
       155                         -0.2528103              -6.8793
       156                         -0.2507685              -6.8238
       157                         -0.2462588              -6.7010
       158                         -0.2459818              -6.6935
       159                         -0.2440199              -6.6401
       160                         -0.2347886              -6.3889
       161                         -0.2294208              -6.2429
       162                         -0.2273077              -6.1854
       163                         -0.2255229              -6.1368
       ...                                ...                  ...
       301                          0.7304746              19.8772
      -------------------------------------------------------------
                  HL-Gap            0.0912222 Eh            2.4823 eV

     #   Z          covCN         q      C6AA      α(0)
     1   6 C        2.920    -0.031    28.771     8.796
     2   6 C        2.919    -0.030    28.741     8.791
     3   6 C        2.926    -0.034    28.845     8.808
     4   6 C        2.978     0.013    27.722     8.637
     5   6 C        2.978     0.003    27.951     8.672
     6   6 C        2.929    -0.043    29.057     8.840
     7   6 C        2.979     0.002    27.970     8.675
     8   6 C        2.979     0.015    27.673     8.629
     9   6 C        2.924    -0.034    28.841     8.807
    10   6 C        2.922    -0.033    28.819     8.804
    11   6 C        2.975     0.001    27.990     8.678
    12   6 C        3.199     0.129    24.676     8.096
    13   7 N        1.892    -0.289    28.350     7.894
    14   6 C        3.214     0.056    26.091     8.312
    15   6 C        2.986     0.003    27.949     8.672
    16   6 C        2.922    -0.031    28.777     8.797
    17   6 C        2.917    -0.030    28.753     8.793
    18   6 C        2.917    -0.033    28.819     8.803
    19   6 C        2.922    -0.035    28.867     8.811
    20   6 C        2.979    -0.001    28.058     8.689
    21   6 C        2.980     0.002    27.979     8.677
    22   6 C        2.922    -0.034    28.838     8.806
    23   6 C        2.916    -0.033    28.830     8.805
    24   6 C        2.917    -0.032    28.793     8.799
    25   6 C        2.919    -0.040    28.999     8.831
    26   6 C        2.978    -0.002    28.064     8.690
    27   6 C        3.072     0.019    27.514     8.601
    28   7 N        2.842    -0.045    22.110     6.984
    29   6 C        2.914     0.067    26.495     8.441
    30   6 C        2.920    -0.039    28.959     8.825
    31   6 C        2.925    -0.030    28.755     8.794
    32   6 C        2.976     0.008    27.845     8.656
    33   6 C        2.973     0.001    28.005     8.680
    34   6 C        2.933    -0.016    28.406     8.741
    35   6 C        2.912    -0.038    28.949     8.823
    36   6 C        2.914     0.058    26.693     8.472
    37   7 N        1.835    -0.216    26.544     7.635
    38   6 C        2.918     0.056    26.748     8.481
    39   6 C        2.924    -0.033    28.824     8.804
    40   6 C        2.919    -0.037    28.917     8.818
    41   6 C        2.925    -0.027    28.687     8.784
    42   6 C        2.924    -0.030    28.749     8.793
    43   6 C        2.983    -0.002    28.080     8.692
    44   6 C        2.978     0.016    27.656     8.626
    45   6 C        2.925    -0.032    28.804     8.801
    46   6 C        2.919    -0.030    28.751     8.793
    47   6 C        2.920    -0.031    28.782     8.798
    48   6 C        2.919    -0.029    28.724     8.789
    49   6 C        2.925    -0.031    28.771     8.796
    50   6 C        2.982    -0.000    28.025     8.684
    51   6 C        2.978     0.016    27.652     8.626
    52   6 C        2.925    -0.032    28.787     8.799
    53   6 C        2.919    -0.030    28.743     8.792
    54   6 C        2.920    -0.031    28.775     8.797
    55   6 C        2.919    -0.029    28.734     8.790
    56   6 C        2.925    -0.031    28.779     8.798
    57   6 C        2.983    -0.001    28.054     8.688
    58   6 C        2.978     0.016    27.647     8.625
    59   6 C        2.924    -0.032    28.791     8.799
    60   6 C        2.919    -0.030    28.742     8.791
    61   6 C        2.920    -0.031    28.776     8.797
    62   6 C        2.919    -0.030    28.737     8.791
    63   6 C        2.925    -0.031    28.781     8.798
    64   6 C        2.924    -0.031    28.781     8.798
    65   6 C        2.919    -0.029    28.731     8.790
    66   1 H        0.926     0.030     2.589     2.516
    67   1 H        0.926     0.030     2.583     2.513
    68   1 H        0.926     0.030     2.582     2.513
    69   1 H        0.926     0.034     2.524     2.484
    70   1 H        0.926     0.032     2.560     2.502
    71   1 H        0.926     0.027     2.634     2.538
    72   1 H        0.926     0.051     2.312     2.378
    73   1 H        0.926     0.030     2.588     2.516
    74   1 H        0.926     0.028     2.619     2.531
    75   1 H        0.926     0.030     2.581     2.512
    76   1 H        0.926     0.034     2.527     2.486
    77   1 H        0.926     0.029     2.606     2.524
    78   1 H        0.926     0.027     2.629     2.536
    79   1 H        0.926     0.025     2.661     2.551
    80   1 H        0.926     0.041     2.430     2.438
    81   1 H        0.926     0.039     2.461     2.453
    82   1 H        0.926     0.035     2.511     2.478
    83   1 H        0.926     0.037     2.486     2.465
    84   1 H        0.925     0.041     2.439     2.442
    85   1 H        0.925     0.040     2.445     2.445
    86   1 H        0.926     0.042     2.420     2.432
    87   1 H        0.926     0.045     2.380     2.413
    88   1 H        0.926     0.047     2.357     2.401
    89   1 H        0.926     0.035     2.515     2.480
    90   1 H        0.926     0.023     2.687     2.563
    91   1 H        0.926     0.024     2.668     2.554
    92   1 H        0.926     0.030     2.587     2.515
    93   1 H        0.926     0.031     2.576     2.510
    94   1 H        0.926     0.029     2.598     2.521
    95   1 H        0.926     0.025     2.652     2.547
    96   1 H        0.926     0.029     2.604     2.523
    97   1 H        0.926     0.030     2.589     2.516
    98   1 H        0.926     0.030     2.589     2.516
    99   1 H        0.926     0.028     2.619     2.531
   100   1 H        0.926     0.026     2.639     2.540
   101   1 H        0.926     0.029     2.601     2.522
   102   1 H        0.926     0.030     2.592     2.518
   103   1 H        0.926     0.030     2.593     2.518
   104   1 H        0.926     0.027     2.625     2.534
   105   1 H        0.926     0.028     2.609     2.526
   106   1 H        0.926     0.029     2.596     2.520

molecular dipole:
                 x           y           z       tot (Debye)
 q only:       -0.884      -0.496      -0.147
   full:       -1.013      -0.670      -0.113       3.101

 projected vibrational frequencies (cm⁻¹)
eigval :       -0.00    -0.00    -0.00    -0.00     0.00     0.00
eigval :        7.13     9.23    13.26    16.68    18.61    25.97
eigval :       28.22    35.68    37.59    43.08    45.07    47.16
eigval :       50.67    62.01    63.63    72.02    72.34    73.00
eigval :       75.06    77.18    82.41    92.70    99.73   102.06
eigval :      108.29   118.37   119.53   133.77   162.97   163.27
eigval :      176.60   204.12   205.99   208.23   213.25   220.71
eigval :      231.63   236.31   243.67   246.59   255.37   259.36
eigval :      283.08   294.43   304.62   317.31   345.42   357.50
eigval :      360.55   367.82   371.64   373.64   374.06   374.54
eigval :      374.95   377.71   384.13   397.33   404.66   407.59
eigval :      414.81   438.44   446.61   453.48   464.83   480.38
eigval :      488.48   490.82   499.05   501.03   519.78   522.60
eigval :      530.15   535.59   540.82   546.48   578.99   583.82
eigval :      585.35   587.69   588.24   589.96   596.12   597.54
eigval :      605.64   608.40   612.58   615.72   633.18   643.48
eigval :      646.05   655.95   663.90   667.45   670.09   674.55
eigval :      678.55   681.15   682.91   685.65   687.97   690.23
eigval :      699.86   708.97   719.62   724.88   735.25   746.29
eigval :      759.05   764.23   765.60   766.14   770.82   782.30
eigval :      783.30   785.03   799.02   819.49   827.13   839.40
eigval :      863.19   869.95   871.68   873.00   875.95   877.22
eigval :      877.69   878.44   879.57   884.05   902.26   902.42
eigval :      902.69   903.20   904.97   907.75   912.73   914.59
eigval :      916.91   917.92   923.79   927.41   927.55   928.19
eigval :      929.12   929.25   929.68   930.44   931.40   931.67
eigval :      931.91   931.99   932.52   939.58   950.03   960.34
eigval :      970.07   982.09   988.11   993.05  1006.79  1015.44
eigval :     1030.97  1042.17  1070.15  1074.97  1081.85  1084.82
eigval :     1085.22  1085.81  1086.21  1091.32  1096.99  1108.15
eigval :     1120.88  1121.43  1121.64  1122.09  1134.27  1135.10
eigval :     1135.87  1139.15  1142.43  1152.82  1174.14  1182.37
eigval :     1182.40  1182.40  1182.47  1183.04  1185.84  1190.38
eigval :     1190.57  1197.02  1198.63  1198.96  1201.43  1202.52
eigval :     1204.71  1209.51  1241.32  1252.97  1254.66  1257.72
eigval :     1263.89  1269.71  1270.32  1279.24  1280.24  1282.74
eigval :     1283.25  1283.96  1284.79  1290.75  1295.86  1296.77
eigval :     1306.10  1313.82  1315.42  1316.29  1317.67  1319.33
eigval :     1320.55  1327.89  1339.78  1347.06  1364.88  1376.25
eigval :     1392.82  1397.02  1408.02  1408.86  1412.56  1421.54
eigval :     1425.16  1430.40  1431.53  1432.45  1435.70  1436.83
eigval :     1442.55  1449.99  1476.48  1479.59  1483.97  1490.85
eigval :     1494.84  1499.65  1515.29  1519.99  1537.83  1551.48
eigval :     1557.95  1560.75  1564.90  1566.32  1567.96  1572.95
eigval :     1575.08  1582.76  1583.37  1584.04  1584.95  1595.15
eigval :     1596.42  1601.14  1601.81  1601.94  1602.15  1602.42
eigval :     1605.74  3054.41  3062.98  3066.70  3068.87  3069.43
eigval :     3070.85  3071.09  3071.48  3071.97  3072.73  3073.31
eigval :     3074.05  3074.39  3075.77  3078.31  3078.72  3079.85
eigval :     3080.26  3080.56  3083.32  3083.51  3084.54  3084.77
eigval :     3085.14  3085.16  3085.20  3085.50  3086.14  3087.44
eigval :     3092.45  3092.67  3092.97  3093.22  3093.62  3094.98
eigval :     3095.95  3096.75  3102.10  3105.16  3109.12  3110.81

   temp. (K)  partition function   enthalpy   heat capacity  entropy
                                   cal/mol     cal/K/mol   cal/K/mol   J/K/mol
 298.15  VIB  0.249E+26            30818.694    190.775    195.654
         ROT  0.208E+09              888.752      2.981     41.043
         INT  0.518E+34            31707.446    193.756    236.697
         TR   0.231E+29             1481.254      4.968     45.998
         TOT                       33188.7002   198.7238   282.6949  1182.7956

       T/K    H(0)-H(T)+PV         H(T)/Eh          T*S/Eh         G(T)/Eh
   ------------------------------------------------------------------------
    298.15    0.528896E-01    0.871459E+00    0.134317E+00    0.737141E+00
   ------------------------------------------------------------------------

         :::::::::::::::::::::::::::::::::::::::::::::::::::::
         ::                  THERMODYNAMIC                  ::
         :::::::::::::::::::::::::::::::::::::::::::::::::::::
         :: total free energy        -161.741845224308 Eh   ::
         ::.................................................::
         :: total energy             -162.478986594148 Eh   ::
         :: zero point energy           0.818569294071 Eh   ::
         :: G(RRHO) w/o ZPVE           -0.081427924230 Eh   ::
         :: G(RRHO) contrib.            0.737141369840 Eh   ::
         :::::::::::::::::::::::::::::::::::::::::::::::::::::

           -------------------------------------------------
          | TOTAL ENERGY             -162.478986594148 Eh   |
          | TOTAL ENTHALPY           -161.607527739818 Eh   |
          | TOTAL FREE ENERGY        -161.741845224308 Eh   |
          | GRADIENT NORM               0.000071314477 Eh/α |
          | HOMO-LUMO GAP               2.482282087531 eV   |
           -------------------------------------------------

 * finished run on 2025/08/21 at 19:58:37.576
