   * xtb version 6.7.1 (edcfbbe) compiled by 'albert@albert-system' on 2024-07-22

   ID    Z sym.   atoms
    1    6 C      1-12, 14-27, 29-36, 38-65
    2    7 N      13, 28, 37
    3    1 H      66-106

          program call               : xtb data2507/gas/TPBPPI-PY/TPBPPI-PY_gas_T1_crest.xyz --gfn 2 --spinpol --tblite --uhf 2 --ohess vtight --parallel 40 --molden --ceasefiles --namespace data2507/gas/TPBPPI-PY/TPBPPI-PY_gas_T1_finalOpt
 * total energy  :  -162.3926338 Eh     change       -0.2584520E-07 Eh
 * total energy  :  -162.3926504 Eh     change       -0.1653084E-04 Eh
 * total energy  :  -162.3926598 Eh     change       -0.9436189E-05 Eh
 * total energy  :  -162.3926626 Eh     change       -0.2760367E-05 Eh
 * total energy  :  -162.3926657 Eh     change       -0.3082979E-05 Eh
 * total energy  :  -162.3926693 Eh     change       -0.3672058E-05 Eh
 * total energy  :  -162.3926731 Eh     change       -0.3743388E-05 Eh
 * total energy  :  -162.3926760 Eh     change       -0.2972273E-05 Eh
 * total energy  :  -162.3926792 Eh     change       -0.3173189E-05 Eh
 * total energy  :  -162.3926834 Eh     change       -0.4215782E-05 Eh
 * total energy  :  -162.3927606 Eh     change       -0.4414437E-06 Eh
 * total energy  :  -162.3927607 Eh     change       -0.1086247E-06 Eh
 * total energy  :  -162.3927610 Eh     change       -0.3332244E-06 Eh
 * total energy  :  -162.3927612 Eh     change       -0.1474251E-06 Eh
 * total energy  :  -162.3927616 Eh     change       -0.3580035E-06 Eh
 * total energy  :  -162.3927620 Eh     change       -0.4191377E-06 Eh
 * total energy  :  -162.3927624 Eh     change       -0.4666820E-06 Eh
 * total energy  :  -162.3927629 Eh     change       -0.4138613E-06 Eh
 * total energy  :  -162.3927629 Eh     change       -0.1249145E-07 Eh
   *** GEOMETRY OPTIMIZATION CONVERGED AFTER 68 ITERATIONS ***

 final structure:
================
106
 xtb: 6.7.1 (edcfbbe)
C           -5.48426866886326       -5.24022489153768       -1.11591119092984
C           -4.55043522217213       -4.63364736508356       -1.93857165631725
C           -4.15926572508765       -3.32905933371169       -1.70024635819948
C           -4.70375620332262       -2.60942274044026       -0.64049428619913
C           -4.27148371923551       -1.22266931826816       -0.38978550398941
C           -2.92102043906682       -0.94517017768756       -0.31096585414716
C           -2.43847435546590        0.34668802012898       -0.06605126275757
C           -1.01063721100686        0.57440557201870       -0.07592351511115
C           -0.13022575878516       -0.38762928741911        0.47264341751335
C            1.22166457220541       -0.22473544352417        0.45667818526411
C            1.81400635761728        0.92051299139985       -0.15631519607242
C            3.18425033011852        1.16466083721666       -0.27307329157034
N            3.67192441147835        2.39906608555965       -0.52449890714308
C            4.98556269542592        2.31838965264073       -0.42959291983096
C            5.93026728544561        3.38225827378995       -0.53425124197245
C            5.50090168519851        4.69920213800571       -0.70828711312204
C            6.41541219455259        5.72842285092356       -0.76067755180563
C            7.76765700564801        5.44023531163092       -0.62782775287801
C            8.20162962850574        4.13952764620999       -0.46273360381977
C            7.30333445776947        3.06661371196075       -0.42208384928970
C            7.72913963944759        1.68036738682158       -0.29792182354567
C            9.07913158886750        1.33089692833815       -0.31251206135158
C            9.50309866325778        0.01878711294452       -0.24726486700731
C            8.56660385074247       -1.01230961482534       -0.18899200512056
C            7.22961260965922       -0.71795436546809       -0.16249271712685
C            6.76855614566862        0.61854036824542       -0.19200571182178
C            5.40885139100801        0.97289197566822       -0.17443596862634
N            4.24721068261374        0.24776654195434       -0.07595342801002
C            4.08776969554778       -1.12870699368546        0.09912223848871
C            4.60837160124764       -1.77166222031231        1.22506825139701
C            4.41580825079040       -3.12438642755399        1.39754406297597
C            3.69587159223084       -3.87459701200675        0.46264851672535
C            3.48086713403146       -5.30725759863952        0.65887760400243
C            4.46295249117447       -6.13336122117385        1.20970563871085
C            4.20365049550947       -7.48165162168549        1.37138243541632
C            2.96782262752413       -7.97040906999557        0.97265537243973
N            2.02310397733204       -7.20121945710365        0.45655067129493
C            2.27127200943165       -5.91624326142648        0.30859909254410
C            3.17824094859588       -3.22100053979677       -0.65907766834653
C            3.36968656739197       -1.87017386179873       -0.84328036570647
C            0.91875415155019        1.91145823698662       -0.66938536452285
C           -0.42825360495576        1.73881875411471       -0.63789348042560
C           -3.37663658756964        1.38167904504768        0.14889236511175
C           -2.92110107640235        2.73212514252116        0.52404113206170
C           -2.07687909559044        2.89888275317913        1.61997432415171
C           -1.65574007670061        4.16004116887287        1.99538871296219
C           -2.06844053029990        5.27267784386006        1.28150183865253
C           -2.90494793476050        5.11654776934762        0.18871093310723
C           -3.33161184365221        3.85712605114571       -0.18707404310641
C           -4.74230296303157        1.10816195343319        0.07229254276285
C           -5.72540200410256        2.19098031217617        0.29437958772444
C           -5.76148177746764        2.87782733842431        1.50339066418616
C           -6.68652109011454        3.88416777422420        1.70887131351214
C           -7.58444366159916        4.21886275464169        0.70947854808557
C           -7.55454042759011        3.54025941350920       -0.49694458585748
C           -6.63278687480231        2.53107506002334       -0.70341605899597
C           -5.20247215140197       -0.18512001175681       -0.20740133414094
C           -6.64540519918022       -0.45820696157030       -0.31742979724907
C           -7.51901475790988       -0.13884293492376        0.71891178282126
C           -8.87039732240382       -0.40221789580635        0.60207757959427
C           -9.37054758108308       -0.98381062817797       -0.55095450743212
C           -8.50938625612328       -1.30528524167727       -1.58679514502652
C           -7.15692036124652       -1.04805667463598       -1.47099138887910
C           -5.63490338701989       -3.23087557743088        0.18696744397500
C           -6.02059899782474       -4.53654846498873       -0.05039191265074
H           -5.79073315558820       -6.25884482731058       -1.30266326038803
H           -4.12605199604620       -5.17869370645238       -2.76934579098641
H           -3.43881562848686       -2.85261439935115       -2.35038406293051
H           -2.21515070761517       -1.74732518051330       -0.46973640957984
H           -0.54924858789993       -1.24840683628338        0.97420090902140
H            1.84321221704872       -0.94174852634412        0.96757884377736
H            4.44013984805570        4.87740524202420       -0.79066380275312
H            6.08708503740492        6.74793253934808       -0.89547479907081
H            8.49263697919361        6.24092545215039       -0.65427797599443
H            9.26140662570157        3.96934641521364       -0.35959567841815
H            9.83121493338353        2.09943463278136       -0.39102332436868
H           10.55844030848724       -0.20794862138427       -0.25970412095032
H            8.89456773361838       -2.04106827076508       -0.17100079578284
H            6.51183766956366       -1.52117521375391       -0.14395032062592
H            5.14807780648135       -1.19492589740939        1.96231682366424
H            4.79844128023518       -3.60425099760001        2.28615087329101
H            5.42465552591643       -5.72369124330418        1.48487371776679
H            4.94708849689554       -8.14283987074144        1.78982911710837
H            2.71867516214246       -9.01874601983766        1.06837449704402
H            1.45545030761981       -5.32932955607401       -0.09388786237693
H            2.64299064380898       -3.78834767851599       -1.40534080909034
H            2.97233682027554       -1.37177106161799       -1.71483182623534
H            1.35848280454802        2.78587888005332       -1.12090534303592
H           -1.07015885941900        2.47903011581362       -1.08955073454998
H           -1.76169988718786        2.03205565830784        2.18332835884809
H           -1.00357350624668        4.27577076798757        2.84871201166571
H           -1.73857410997074        6.25820679767264        1.57514221601737
H           -3.22630520248587        5.98045442535081       -0.37469456802946
H           -3.97328224458100        3.73870599298465       -1.04802460571926
H           -5.06557616365217        2.61371139949590        2.28688499207684
H           -6.70683725805599        4.40899948039157        2.65294736647907
H           -8.30608234128426        5.00617748956868        0.87068689645717
H           -8.25252939285795        3.79741063998056       -1.28039778040310
H           -6.60747182892050        2.00545278665034       -1.64735528219774
H           -7.13176749634196        0.30353025830885        1.62525648669537
H           -9.53649353742670       -0.15347534373599        1.41547237334473
H          -10.42743527068385       -1.18706828137654       -0.64139451253647
H           -8.89347498857845       -1.75850869309063       -2.48914429681272
H           -6.48815985521827       -1.29274321327151       -2.28378892338801
H           -6.04788530145094       -2.69035870137152        1.02582881142703
H           -6.74329620387144       -5.00763158388779        0.59978455051162

 projected vibrational frequencies (cm⁻¹)
eigval :       -0.00    -0.00    -0.00     0.00     0.00     0.00
eigval :        6.58     7.65    12.07    16.02    18.56    25.59
eigval :       29.11    35.32    39.00    43.02    45.85    47.40
eigval :       49.48    59.54    63.85    69.82    73.83    75.16
eigval :       75.89    80.09    88.04    96.66   101.14   104.43
eigval :      113.73   123.69   129.38   142.82   163.73   168.55
eigval :      180.84   193.88   203.43   211.73   215.32   221.77
eigval :      229.62   237.91   242.49   247.03   253.74   260.04
eigval :      275.21   288.74   301.08   315.91   326.80   350.94
eigval :      360.91   368.81   373.62   374.07   374.45   374.93
eigval :      375.94   381.15   384.01   389.97   394.98   396.64
eigval :      405.37   422.80   433.43   450.17   462.20   462.51
eigval :      477.12   486.38   492.92   495.66   499.10   505.68
eigval :      523.21   524.63   532.10   539.94   575.00   581.49
eigval :      582.30   585.38   586.79   589.06   590.52   592.14
eigval :      594.25   603.15   604.48   611.18   618.52   627.63
eigval :      635.51   646.76   654.13   659.56   665.26   667.72
eigval :      668.55   672.46   675.30   678.03   683.11   685.65
eigval :      689.47   691.52   714.25   719.62   727.44   741.72
eigval :      753.90   757.54   763.35   763.99   766.22   774.00
eigval :      777.95   782.28   792.96   804.65   821.15   822.60
eigval :      832.71   849.73   862.24   864.56   867.06   870.23
eigval :      876.54   876.96   879.39   879.82   896.15   898.72
eigval :      901.36   901.79   903.11   904.15   906.18   911.97
eigval :      913.17   914.56   917.49   917.96   920.13   922.47
eigval :      924.17   928.35   928.51   928.91   929.72   930.05
eigval :      930.42   930.61   931.60   931.88   935.08   950.67
eigval :      962.11   974.10   980.16   983.83   990.70   994.40
eigval :     1006.25  1033.24  1046.31  1065.08  1076.35  1079.80
eigval :     1084.30  1085.07  1085.54  1088.04  1089.66  1096.19
eigval :     1103.35  1119.75  1121.10  1121.76  1122.45  1131.12
eigval :     1133.76  1136.41  1140.18  1144.15  1154.79  1174.25
eigval :     1180.43  1181.88  1182.07  1182.25  1182.41  1184.51
eigval :     1186.54  1193.29  1196.16  1198.50  1199.09  1201.79
eigval :     1203.60  1206.62  1216.54  1235.57  1247.70  1250.13
eigval :     1256.42  1259.23  1263.73  1271.74  1280.76  1281.69
eigval :     1281.84  1282.70  1284.16  1284.34  1291.39  1293.50
eigval :     1295.96  1307.79  1314.03  1315.00  1316.84  1317.49
eigval :     1318.73  1320.57  1327.80  1334.95  1344.95  1353.38
eigval :     1383.85  1389.12  1394.34  1395.04  1404.59  1410.45
eigval :     1416.64  1420.40  1425.70  1428.71  1430.17  1433.91
eigval :     1434.77  1437.97  1448.14  1451.07  1464.30  1472.92
eigval :     1478.63  1479.58  1484.30  1486.89  1489.11  1498.33
eigval :     1507.98  1520.93  1525.36  1543.21  1548.41  1548.50
eigval :     1558.43  1563.19  1575.17  1577.09  1578.01  1578.17
eigval :     1582.01  1583.56  1589.91  1595.61  1597.35  1599.88
eigval :     1601.55  3052.33  3061.66  3068.00  3068.49  3070.86
eigval :     3071.16  3071.45  3072.15  3072.93  3073.27  3073.69
eigval :     3073.96  3075.50  3078.82  3079.25  3079.34  3079.63
eigval :     3080.94  3081.16  3083.05  3084.47  3085.40  3086.06
eigval :     3086.71  3087.39  3088.51  3089.31  3089.98  3090.79
eigval :     3092.15  3092.45  3093.28  3093.84  3096.67  3097.16
eigval :     3098.76  3107.36  3110.36  3113.74  3115.21  3125.01

   temp. (K)  partition function   enthalpy   heat capacity  entropy
                                   cal/mol     cal/K/mol   cal/K/mol   J/K/mol
 298.15  VIB  0.328E+26            31030.785    192.726    196.624
         ROT  0.227E+09              888.752      2.981     41.218
         INT  0.745E+34            31919.537    195.707    237.842
         TR   0.231E+29             1481.254      4.968     45.998
         TOT                       33400.7912   200.6748   283.8405  1187.5886

       T/K    H(0)-H(T)+PV         H(T)/Eh          T*S/Eh         G(T)/Eh
   ------------------------------------------------------------------------
    298.15    0.532275E-01    0.867604E+00    0.134862E+00    0.732742E+00
   ------------------------------------------------------------------------

         :::::::::::::::::::::::::::::::::::::::::::::::::::::
         ::                  THERMODYNAMIC                  ::
         :::::::::::::::::::::::::::::::::::::::::::::::::::::
         :: total free energy        -161.660020868073 Eh   ::
         ::.................................................::
         :: total energy             -162.392762848449 Eh   ::
         :: zero point energy           0.814376205498 Eh   ::
         :: G(RRHO) w/o ZPVE           -0.081634225122 Eh   ::
         :: G(RRHO) contrib.            0.732741980376 Eh   ::
         :::::::::::::::::::::::::::::::::::::::::::::::::::::

           -------------------------------------------------
          | TOTAL ENERGY             -162.392762848449 Eh   |
          | TOTAL ENTHALPY           -161.525159094143 Eh   |
          | TOTAL FREE ENERGY        -161.660020868073 Eh   |
          | GRADIENT NORM               0.000037053349 Eh/α |
           -------------------------------------------------

 * finished run on 2025/08/21 at 20:11:35.458
