   * xtb version 6.7.1 (edcfbbe) compiled by 'albert@albert-system' on 2024-07-22

   ID    Z sym.   atoms
    1    6 C      1-6, 8-25, 27-48, 50-65
    2    7 N      7, 26, 49
    3    1 H      66-106

          program call               : xtb data2507/toluene/2CzTPEPCz/2CzTPEPCz_toluene_T1_crest.xyz --gfn 2 --uhf 2 --gbsa toluene --ohess vtight --parallel 40 --molden --ceasefiles --namespace data2507/toluene/2CzTPEPCz/2CzTPEPCz_toluene_T1_finalOpt
      * Solvation model:               GBSA
        Solvent                        toluene
        Solvent mass                       9.2140E+01 g/mol
          :  Hamiltonian                  GFN2-xTB          :
 * total energy  :  -162.5262926 Eh     change       -0.2294030E-08 Eh
 * total energy  :  -162.5263416 Eh     change       -0.4901375E-04 Eh
 * total energy  :  -162.5263794 Eh     change       -0.3787419E-04 Eh
 * total energy  :  -162.5263942 Eh     change       -0.1473264E-04 Eh
 * total energy  :  -162.5264118 Eh     change       -0.1758322E-04 Eh
 * total energy  :  -162.5264260 Eh     change       -0.1422751E-04 Eh
 * total energy  :  -162.5264467 Eh     change       -0.2069042E-04 Eh
 * total energy  :  -162.5264749 Eh     change       -0.2825503E-04 Eh
 * total energy  :  -162.5265060 Eh     change       -0.3107100E-04 Eh
 * total energy  :  -162.5265398 Eh     change       -0.3375422E-04 Eh
 * total energy  :  -162.5276736 Eh     change       -0.1340828E-05 Eh
 * total energy  :  -162.5276748 Eh     change       -0.1194314E-05 Eh
 * total energy  :  -162.5276759 Eh     change       -0.1084745E-05 Eh
 * total energy  :  -162.5276769 Eh     change       -0.1001177E-05 Eh
 * total energy  :  -162.5276779 Eh     change       -0.1021777E-05 Eh
 * total energy  :  -162.5276791 Eh     change       -0.1118608E-05 Eh
 * total energy  :  -162.5276803 Eh     change       -0.1277970E-05 Eh
 * total energy  :  -162.5276819 Eh     change       -0.1520735E-05 Eh
 * total energy  :  -162.5276819 Eh     change       -0.6685326E-08 Eh
   *** GEOMETRY OPTIMIZATION CONVERGED AFTER 94 ITERATIONS ***

 final structure:
================
106
 xtb: 6.7.1 (edcfbbe)
C           -1.71292753174340       -1.69703225497944       -1.02757788030353
C           -2.55444340266550       -0.57308867566795       -0.69106375393908
C           -3.93309671751212       -0.81251425430554       -0.40535524302580
C           -4.92728166449797        0.16374984901816       -0.63694941317110
C           -6.25407070909391       -0.09651704231995       -0.40297229536270
C           -6.66042873222092       -1.34449408483536        0.08012087598119
N           -8.01329021584836       -1.60582224790328        0.31717786956723
C           -8.88107288751350       -0.79523049497100        1.02323216212780
C           -8.63013203682833        0.38927697171263        1.70254024630016
C           -9.68498206228207        0.99312993551458        2.36045324501708
C          -10.96117235228789        0.43358657238331        2.35663248873865
C          -11.21120600056924       -0.75920222965988        1.70622604538372
C          -10.16696870115423       -1.38462784073033        1.03786486843280
C          -10.06172068853077       -2.61082542738436        0.29602939405130
C          -10.97409769880679       -3.59912164953645       -0.04906688637062
C          -10.54034939901912       -4.66119111404955       -0.81842512974304
C           -9.21980322235960       -4.73498520836545       -1.25711436201026
C           -8.29362269766147       -3.76402892893318       -0.92608668692955
C           -8.71603936947194       -2.70848950287262       -0.12936561755288
C           -5.69387012774697       -2.32834719040344        0.30896863878300
C           -4.36742194499567       -2.07149709747753        0.06540436152264
C           -2.00846511680804        0.75128030937989       -0.71345033257641
C           -0.92861804285958        1.07873920624309       -1.56261756657825
C           -0.36551221087612        2.33009467107043       -1.55550920195475
C           -0.83979234523206        3.31684738809510       -0.68637526669516
N           -0.24142362975418        4.57950810558295       -0.65485632762246
C            1.11634973267394        4.82404388165448       -0.57317479232785
C            2.17067018413394        3.92822124482346       -0.45862938323413
C            3.44957362954393        4.44343956494629       -0.36382584045581
C            3.68258310124222        5.81721325488611       -0.37133990897201
C            2.63568884528350        6.71438207383604       -0.45748023851738
C            1.34140311488237        6.22019429547103       -0.55368973815470
C            0.04840114473093        6.84253686173865       -0.63232953150821
C           -0.37428482220328        8.16454975355313       -0.67058307794187
C           -1.72729684415163        8.42454652529535       -0.77235035908439
C           -2.65199598599283        7.38546684328110       -0.85482745940959
C           -2.25519743595428        6.06195166377315       -0.82059327626301
C           -0.89936307634697        5.79380613275508       -0.68971100363252
C           -1.91016852683245        3.01418714604151        0.16135769224153
C           -2.48555849186860        1.76748597464564        0.14146970415695
C           -0.37537058799169       -1.84946818608572       -0.69811455579839
C            0.39367097498472       -2.90450415824201       -1.27812598542435
C            1.73366604837527       -3.01827353812089       -1.05689029069642
C            2.42460186306045       -2.11085352283011       -0.22408288304547
C            3.85917080772486       -2.19695277483490       -0.03214884571050
C            4.62030422348821       -1.04809782563092        0.23178853944857
C            5.98484827858229       -1.11441211450054        0.40010434176823
C            6.64555584442228       -2.33991890554812        0.31985466684586
N            8.03393336313654       -2.41015359207342        0.49140213143936
C            8.74713046972789       -1.86551452086717        1.54105088724702
C            8.28916973419010       -1.19285958880912        2.66569075450746
C            9.22465626678213       -0.77174877099306        3.59169542919804
C           10.58493558307875       -1.01804965825225        3.41537820043881
C           11.04454087386707       -1.70713626688178        2.31013029002290
C           10.12344532069929       -2.14056639758660        1.36522482795035
C           10.23740434385616       -2.88322686428963        0.14044803521792
C           11.31350717540041       -3.41207351374453       -0.56051042066294
C           11.07007569054742       -4.06868772105797       -1.75099133039978
C            9.77504342642602       -4.18670849718285       -2.25213812609145
C            8.68838527983126       -3.66962186727416       -1.57270595822323
C            8.92381652527751       -3.03036523023925       -0.36324130955760
C            5.90435125484163       -3.49337304335822        0.06450345443872
C            4.54071854444907       -3.42021048936516       -0.11199612975929
C            1.65920633361750       -1.11682701098225        0.42062006924698
C            0.31775825007895       -0.99200120511409        0.21123601555182
H           -2.17449377608638       -2.48882632484891       -1.60565056654894
H           -4.64102086485208        1.11468915661253       -1.06041377256893
H           -7.00092206331038        0.65218035316144       -0.62355638243670
H           -7.64156438291042        0.82181091051349        1.72805924049996
H           -9.51530724818763        1.91773155591297        2.89287277743028
H          -11.76078047982619        0.93770584828438        2.87947389442702
H          -12.19597157637885       -1.20204548720342        1.71929842469618
H          -12.00231377637098       -3.53176319124007        0.27386742316378
H          -11.23344466329121       -5.44195924557214       -1.09555106914322
H           -8.91386121212731       -5.56763875560355       -1.87372441629096
H           -7.27837888389027       -3.82170392635129       -1.28807931385908
H           -5.99840933487222       -3.28625280477620        0.70468828572629
H           -3.63067878895870       -2.83207044195267        0.27767468113465
H           -0.56615741777534        0.33696885301486       -2.25794066520332
H            0.43588783870799        2.56775048005594       -2.23938332870564
H            1.99850681638347        2.86323111240483       -0.43578437439933
H            4.28713790881279        3.76635379474253       -0.27893735061425
H            4.69694926443530        6.18130964777571       -0.29880568327379
H            2.81564948279313        7.77900487278098       -0.44492213103649
H            0.34319428014751        8.97027877327083       -0.62537420183193
H           -2.07664837671389        9.44628526687339       -0.79986956587481
H           -3.70221198040744        7.61956781972436       -0.95172837870950
H           -2.97847228140956        5.26525573664622       -0.90512819981229
H           -2.25758297520103        3.76058291199945        0.86065120752122
H           -3.27475765897588        1.53586368103183        0.84131287758973
H           -0.10647361094906       -3.59687375245785       -1.94107684487516
H            2.28709009092798       -3.79841114900832       -1.55880707757201
H            4.13563017780898       -0.08426649787235        0.26446177561632
H            6.55641840358991       -0.21411327244573        0.57218310421088
H            7.23601616407558       -1.01256472718323        2.82011581771890
H            8.89354914020004       -0.24353511845312        4.47407481508237
H           11.28542276917698       -0.67081507094494        4.16080971335758
H           12.09717198718494       -1.91137558314853        2.18210328607460
H           12.31898561689413       -3.30595808777836       -0.18117897459269
H           11.89302621683192       -4.48914532267525       -2.31035053841828
H            9.61738914050448       -4.69092740413276       -3.19455839782977
H            7.69100103668930       -3.75170888802618       -1.97752936928697
H            6.40698159499294       -4.44882495052255        0.02837960553379
H            3.98563787200560       -4.33133186976237       -0.27596002006577
H            2.14249980295294       -0.46349847130981        1.13287154816654
H           -0.24502481896186       -0.25257997763378        0.75961864046888

          :  Hamiltonian                  GFN2-xTB          :
         :: gradient norm              0.000060723911 Eh/a0 ::
         :: HOMO-LUMO gap              1.246325347659 eV    ::
         :: SCC energy              -165.627548080636 Eh    ::
         :: -> dispersion             -0.150244394644 Eh    ::
         :: -> Gsolv                  -0.066377182499 Eh    ::
         :: repulsion energy           3.099866222481 Eh    ::

    * Orbital Energies and Occupations

         #    Occupation            Energy/Eh            Energy/eV
      -------------------------------------------------------------
         1        2.0000           -0.6778634             -18.4456
       ...           ...                  ...                  ...
       141        2.0000           -0.4062147             -11.0537
       142        2.0000           -0.4057164             -11.0401
       143        2.0000           -0.4054804             -11.0337
       144        2.0000           -0.4004024             -10.8955
       145        2.0000           -0.3976185             -10.8197
       146        2.0000           -0.3803844             -10.3508
       147        2.0000           -0.3798530             -10.3363
       148        2.0000           -0.3792134             -10.3189
       149        2.0000           -0.3693942             -10.0517
       150        2.0000           -0.3629332              -9.8759
       151        2.0000           -0.3628030              -9.8724
       152        1.0000           -0.3421204              -9.3096
       153        1.0000           -0.2936560              -7.9908 (HOMO)
       154                         -0.2478544              -6.7445 (LUMO)
       155                         -0.2476025              -6.7376
       156                         -0.2460531              -6.6954
       157                         -0.2402805              -6.5384
       158                         -0.2355497              -6.4096
       159                         -0.2281952              -6.2095
       160                         -0.2274037              -6.1880
       161                         -0.2245846              -6.1113
       162                         -0.2238125              -6.0902
       163                         -0.2233333              -6.0772
       164                         -0.2226316              -6.0581
       ...                                ...                  ...
       301                          0.7437120              20.2374
      -------------------------------------------------------------
                  HL-Gap            0.0458016 Eh            1.2463 eV

     #   Z          covCN         q      C6AA      α(0)
     1   6 C        2.911    -0.048    29.180     8.858
     2   6 C        2.963    -0.009    28.236     8.716
     3   6 C        2.972     0.008    27.834     8.654
     4   6 C        2.921    -0.037    28.911     8.817
     5   6 C        2.916    -0.044    29.091     8.845
     6   6 C        2.912     0.055    26.755     8.482
     7   7 N        2.800    -0.038    21.972     6.962
     8   6 C        3.075     0.047    26.867     8.498
     9   6 C        2.910    -0.050    29.241     8.867
    10   6 C        2.923    -0.035    28.868     8.811
    11   6 C        2.920    -0.041    29.028     8.835
    12   6 C        2.912    -0.034    28.854     8.808
    13   6 C        3.066    -0.018    28.382     8.736
    14   6 C        3.066    -0.018    28.382     8.736
    15   6 C        2.912    -0.034    28.855     8.808
    16   6 C        2.920    -0.041    29.029     8.835
    17   6 C        2.923    -0.035    28.868     8.811
    18   6 C        2.910    -0.050    29.243     8.867
    19   6 C        3.074     0.047    26.867     8.499
    20   6 C        2.916    -0.043    29.067     8.841
    21   6 C        2.922    -0.038    28.937     8.822
    22   6 C        2.971     0.014    27.699     8.633
    23   6 C        2.922    -0.033    28.814     8.803
    24   6 C        2.916    -0.043    29.065     8.841
    25   6 C        2.912     0.057    26.726     8.477
    26   7 N        2.800    -0.037    21.956     6.959
    27   6 C        3.075     0.047    26.870     8.499
    28   6 C        2.910    -0.050    29.233     8.866
    29   6 C        2.923    -0.034    28.858     8.810
    30   6 C        2.920    -0.041    29.024     8.835
    31   6 C        2.912    -0.034    28.851     8.808
    32   6 C        3.066    -0.017    28.375     8.735
    33   6 C        3.067    -0.017    28.375     8.735
    34   6 C        2.912    -0.034    28.850     8.808
    35   6 C        2.920    -0.041    29.023     8.834
    36   6 C        2.923    -0.035    28.863     8.810
    37   6 C        2.910    -0.050    29.239     8.867
    38   6 C        3.074     0.047    26.869     8.499
    39   6 C        2.916    -0.044    29.089     8.844
    40   6 C        2.921    -0.036    28.894     8.815
    41   6 C        2.963     0.014    27.689     8.631
    42   6 C        2.919    -0.039    28.980     8.828
    43   6 C        2.915    -0.035    28.872     8.811
    44   6 C        2.973     0.004    27.926     8.668
    45   6 C        2.972     0.008    27.841     8.655
    46   6 C        2.924    -0.035    28.864     8.810
    47   6 C        2.918    -0.043    29.071     8.842
    48   6 C        2.912     0.059    26.670     8.468
    49   7 N        2.801    -0.042    22.054     6.975
    50   6 C        3.075     0.047    26.858     8.497
    51   6 C        2.909    -0.051    29.262     8.870
    52   6 C        2.923    -0.035    28.869     8.811
    53   6 C        2.920    -0.042    29.043     8.838
    54   6 C        2.912    -0.035    28.861     8.809
    55   6 C        3.067    -0.018    28.394     8.738
    56   6 C        3.067    -0.018    28.393     8.738
    57   6 C        2.912    -0.035    28.861     8.809
    58   6 C        2.920    -0.042    29.044     8.838
    59   6 C        2.924    -0.035    28.870     8.811
    60   6 C        2.909    -0.051    29.263     8.870
    61   6 C        3.075     0.047    26.858     8.497
    62   6 C        2.918    -0.043    29.073     8.842
    63   6 C        2.923    -0.035    28.868     8.811
    64   6 C        2.916    -0.035    28.872     8.811
    65   6 C        2.915    -0.036    28.893     8.814
    66   1 H        0.925     0.035     2.513     2.479
    67   1 H        0.926     0.039     2.461     2.453
    68   1 H        0.926     0.038     2.479     2.462
    69   1 H        0.926     0.032     2.553     2.499
    70   1 H        0.926     0.031     2.569     2.506
    71   1 H        0.926     0.029     2.599     2.521
    72   1 H        0.926     0.031     2.568     2.506
    73   1 H        0.926     0.031     2.568     2.506
    74   1 H        0.926     0.029     2.600     2.521
    75   1 H        0.926     0.031     2.571     2.507
    76   1 H        0.926     0.032     2.553     2.499
    77   1 H        0.926     0.038     2.480     2.463
    78   1 H        0.926     0.038     2.481     2.463
    79   1 H        0.926     0.036     2.505     2.475
    80   1 H        0.926     0.038     2.472     2.459
    81   1 H        0.926     0.033     2.548     2.496
    82   1 H        0.926     0.031     2.568     2.506
    83   1 H        0.926     0.029     2.596     2.520
    84   1 H        0.926     0.032     2.565     2.504
    85   1 H        0.926     0.032     2.564     2.504
    86   1 H        0.926     0.029     2.595     2.519
    87   1 H        0.926     0.032     2.565     2.504
    88   1 H        0.926     0.033     2.549     2.496
    89   1 H        0.926     0.039     2.457     2.451
    90   1 H        0.926     0.040     2.449     2.447
    91   1 H        0.925     0.029     2.596     2.520
    92   1 H        0.926     0.032     2.560     2.502
    93   1 H        0.926     0.040     2.447     2.446
    94   1 H        0.926     0.039     2.457     2.451
    95   1 H        0.926     0.031     2.572     2.508
    96   1 H        0.926     0.031     2.578     2.511
    97   1 H        0.926     0.028     2.608     2.526
    98   1 H        0.926     0.031     2.576     2.510
    99   1 H        0.926     0.031     2.576     2.510
   100   1 H        0.926     0.028     2.608     2.526
   101   1 H        0.926     0.031     2.578     2.511
   102   1 H        0.926     0.031     2.572     2.508
   103   1 H        0.926     0.040     2.455     2.450
   104   1 H        0.926     0.040     2.444     2.445
   105   1 H        0.926     0.030     2.592     2.518
   106   1 H        0.926     0.030     2.582     2.513

molecular dipole:
                 x           y           z       tot (Debye)
 q only:       -0.268      -0.104      -0.135
   full:       -0.272      -0.138      -0.163       0.879

 projected vibrational frequencies (cm⁻¹)
eigval :       -0.00    -0.00     0.00     0.00     0.00     0.00
eigval :        7.79    10.28    13.53    17.54    19.92    20.23
eigval :       22.94    34.18    39.96    43.71    44.88    56.25
eigval :       62.64    73.08    80.77    83.19    90.27    99.69
eigval :      104.84   106.51   111.10   117.17   139.29   142.06
eigval :      145.09   147.96   156.41   161.62   168.23   177.16
eigval :      201.65   216.29   221.95   232.79   239.91   258.97
eigval :      260.88   271.62   274.15   275.02   278.75   301.22
eigval :      302.24   328.43   338.41   361.04   371.44   380.38
eigval :      385.56   385.99   391.52   393.61   397.11   399.75
eigval :      406.48   407.48   408.51   410.88   418.90   423.52
eigval :      428.17   433.09   436.92   439.53   449.25   461.66
eigval :      475.01   491.76   513.82   517.25   518.06   520.17
eigval :      535.26   537.16   539.04   540.45   541.90   543.05
eigval :      543.41   572.83   577.36   580.86   582.25   583.03
eigval :      590.36   592.98   594.99   600.48   613.06   614.92
eigval :      618.58   629.68   665.92   671.71   674.05   674.36
eigval :      675.28   675.34   684.09   692.31   694.83   705.99
eigval :      710.42   710.96   712.32   744.20   746.60   753.88
eigval :      756.12   758.04   766.45   767.72   768.11   769.32
eigval :      777.34   779.18   779.43   800.79   813.49   821.24
eigval :      824.22   832.19   849.15   852.34   861.10   863.41
eigval :      870.53   871.06   872.16   873.00   873.81   876.81
eigval :      896.04   896.48   896.76   899.84   900.21   900.74
eigval :      900.85   902.14   902.31   902.78   910.70   916.50
eigval :      916.70   917.28   918.48   919.10   920.34   921.88
eigval :      924.58   924.94   926.21   927.57   928.96   931.68
eigval :      933.94   941.77   952.69   969.83  1005.25  1008.31
eigval :     1010.65  1010.90  1011.20  1012.89  1059.62  1068.21
eigval :     1068.51  1070.20  1071.08  1071.71  1073.60  1114.84
eigval :     1115.67  1116.47  1122.17  1134.14  1136.79  1143.11
eigval :     1148.48  1149.81  1150.48  1151.45  1171.40  1174.35
eigval :     1174.94  1176.60  1179.64  1179.70  1180.18  1181.51
eigval :     1182.44  1189.86  1198.85  1204.18  1208.82  1222.66
eigval :     1233.42  1234.01  1235.05  1241.81  1242.60  1243.13
eigval :     1261.54  1267.06  1268.59  1279.60  1290.68  1293.68
eigval :     1294.30  1296.74  1297.63  1298.57  1299.79  1302.31
eigval :     1315.06  1316.38  1321.58  1326.99  1338.06  1355.46
eigval :     1355.78  1356.18  1357.16  1357.64  1357.89  1358.97
eigval :     1362.36  1364.91  1406.13  1410.73  1414.47  1418.50
eigval :     1422.05  1423.46  1424.24  1425.03  1425.29  1430.48
eigval :     1437.14  1463.47  1469.53  1469.83  1471.47  1474.62
eigval :     1476.76  1483.44  1485.14  1485.24  1486.03  1495.41
eigval :     1504.57  1507.41  1535.38  1545.12  1556.68  1571.33
eigval :     1571.48  1572.11  1581.53  1585.33  1585.82  1586.59
eigval :     1592.32  1592.56  1592.86  1594.54  1608.44  1608.75
eigval :     1610.33  3030.05  3062.56  3071.07  3071.54  3071.89
eigval :     3071.91  3072.19  3072.44  3072.72  3076.35  3077.17
eigval :     3077.41  3077.58  3077.94  3078.11  3078.41  3078.97
eigval :     3079.11  3079.25  3081.10  3082.13  3082.53  3085.34
eigval :     3086.05  3086.40  3086.92  3087.01  3088.15  3088.57
eigval :     3089.13  3091.52  3091.80  3092.37  3092.96  3093.71
eigval :     3093.76  3094.01  3094.31  3095.53  3096.71  3098.33

   temp. (K)  partition function   enthalpy   heat capacity  entropy
                                   cal/mol     cal/K/mol   cal/K/mol   J/K/mol
 298.15  VIB  0.322E+24            29959.832    192.416    185.638
         ROT  0.351E+09              888.752      2.981     42.082
         INT  0.113E+33            30848.585    195.397    227.720
         TR   0.231E+29             1481.254      4.968     45.998
         TOT                       32329.8388   200.3654   273.7181  1145.2365

       T/K    H(0)-H(T)+PV         H(T)/Eh          T*S/Eh         G(T)/Eh
   ------------------------------------------------------------------------
    298.15    0.515209E-01    0.868841E+00    0.130052E+00    0.738788E+00
   ------------------------------------------------------------------------

         :::::::::::::::::::::::::::::::::::::::::::::::::::::
         ::                  THERMODYNAMIC                  ::
         :::::::::::::::::::::::::::::::::::::::::::::::::::::
         :: total free energy        -161.788893613642 Eh   ::
         ::.................................................::
         :: total energy             -162.527681862569 Eh   ::
         :: zero point energy           0.817319666192 Eh   ::
         :: G(RRHO) w/o ZPVE           -0.078531417265 Eh   ::
         :: G(RRHO) contrib.            0.738788248927 Eh   ::
         :::::::::::::::::::::::::::::::::::::::::::::::::::::

           -------------------------------------------------
          | TOTAL ENERGY             -162.527681862569 Eh   |
          | TOTAL ENTHALPY           -161.658841318856 Eh   |
          | TOTAL FREE ENERGY        -161.788893613642 Eh   |
          | GRADIENT NORM               0.000060719214 Eh/α |
          | HOMO-LUMO GAP               1.246324776178 eV   |
           -------------------------------------------------

 * finished run on 2025/07/16 at 10:18:28.094
