   * xtb version 6.7.1 (edcfbbe) compiled by 'albert@albert-system' on 2024-07-22

   ID    Z sym.   atoms
    1    6 C      1-6, 8-25, 27-48, 50-65
    2    7 N      7, 26, 49
    3    1 H      66-106

          program call               : xtb data2507/toluene/2CzTPEPCz/2CzTPEPCz.xyz --gfn 2 --gbsa toluene --ohess vtight --parallel 40 --molden --ceasefiles --namespace data2507/toluene/2CzTPEPCz/2CzTPEPCz_toluene_S0_preOpt
      * Solvation model:               GBSA
        Solvent                        toluene
        Solvent mass                       9.2140E+01 g/mol
          :  Hamiltonian                  GFN2-xTB          :
 * total energy  :  -162.5666118 Eh     change       -0.8965344E-09 Eh
 * total energy  :  -162.5857044 Eh     change       -0.1909254E-01 Eh
 * total energy  :  -162.5900196 Eh     change       -0.4315247E-02 Eh
 * total energy  :  -162.5911659 Eh     change       -0.1146238E-02 Eh
 * total energy  :  -162.5926048 Eh     change       -0.1438964E-02 Eh
 * total energy  :  -162.5936345 Eh     change       -0.1029711E-02 Eh
 * total energy  :  -162.5944073 Eh     change       -0.7727695E-03 Eh
 * total energy  :  -162.5949253 Eh     change       -0.5179991E-03 Eh
 * total energy  :  -162.5952153 Eh     change       -0.2899712E-03 Eh
 * total energy  :  -162.5954146 Eh     change       -0.1993667E-03 Eh
 * total energy  :  -162.5978089 Eh     change       -0.2094907E-06 Eh
 * total energy  :  -162.5978092 Eh     change       -0.2572641E-06 Eh
 * total energy  :  -162.5978094 Eh     change       -0.2695859E-06 Eh
 * total energy  :  -162.5978096 Eh     change       -0.2026865E-06 Eh
 * total energy  :  -162.5978098 Eh     change       -0.1979425E-06 Eh
 * total energy  :  -162.5978100 Eh     change       -0.2012082E-06 Eh
 * total energy  :  -162.5978102 Eh     change       -0.1533004E-06 Eh
 * total energy  :  -162.5978103 Eh     change       -0.1202958E-06 Eh
 * total energy  :  -162.5978103 Eh     change       -0.1986481E-07 Eh
   *** GEOMETRY OPTIMIZATION CONVERGED AFTER 114 ITERATIONS ***

 final structure:
================
106
 xtb: 6.7.1 (edcfbbe)
C           -1.60791493606518       -2.08293765268814       -0.24627161011453
C           -2.44089559243075       -1.03031588590377       -0.15261595517117
C           -3.89813633608603       -1.21854121193184       -0.13236903959789
C           -4.73889442790377       -0.30453974432751       -0.76903315528758
C           -6.10902050402605       -0.46724866460307       -0.75060140070236
C           -6.67588436518596       -1.55392092642655       -0.08941538315910
N           -8.06895503916452       -1.71933450142823       -0.05946260541139
C           -8.83261724450239       -1.92071797765170        1.07306221479482
C           -8.44541201916141       -1.95687810370026        2.40560371365567
C           -9.42738070185905       -2.14930829586158        3.35855094814747
C          -10.76745077213363       -2.29385699872918        3.00377668403552
C          -11.16180837012688       -2.23656173327719        1.68170400943081
C          -10.19276425142460       -2.04412782824697        0.70503346011342
C          -10.24093262244416       -1.91747315678252       -0.72501115961050
C          -11.27068468267101       -1.97108188339687       -1.65591566804073
C          -10.96151622613479       -1.83047557284913       -2.99431536308965
C           -9.64344977464584       -1.65086831440401       -3.41012717281768
C           -8.60210730669299       -1.59402120642756       -2.50354912596682
C           -8.90902257906639       -1.71313468297993       -1.15502164952887
C           -5.84650538502538       -2.47211025507705        0.54913190450013
C           -4.47699078513778       -2.30236164989404        0.52833657414006
C           -1.96544308124891        0.36445087451613       -0.11458963477547
C           -1.03368694817681        0.82764392571940       -1.04196539288264
C           -0.59260532368331        2.13452798683795       -1.00647839614549
C           -1.06761528513191        3.00741944332753       -0.03049714705051
N           -0.59338401163390        4.32693142280516        0.02670643197734
C            0.73504209577693        4.70126048141538        0.05819548575756
C            1.87555889393936        3.91030445685076        0.06936032052740
C            3.10125981352229        4.54533063028431        0.12933295445295
C            3.19872768943752        5.93449659575343        0.18631371198728
C            2.06728332945339        6.72579951247519        0.19659490967702
C            0.82301784341629        6.11067214817120        0.13629661572474
C           -0.52631415521124        6.60309771589611        0.14425484102695
C           -1.07996456928502        7.87651309763898        0.18602714687753
C           -2.45460159157384        8.00252558177868        0.15318747369167
C           -3.27518959616695        6.87930497095249        0.06689873921865
C           -2.74857205951240        5.60248291669254        0.02486299466331
C           -1.36809660940621        5.46806728966569        0.07922572658253
C           -2.01192838674934        2.55804182017593        0.88819862355611
C           -2.46353820226569        1.25412188482295        0.83517269613964
C           -0.15359164728261       -2.05308078998206       -0.18095535823887
C            0.59039810623278       -2.93794349738199       -0.96443681686780
C            1.96924162413831       -2.93706743433490       -0.92338061638868
C            2.65719145966068       -2.06335633849622       -0.08230427714021
C            4.12553664870161       -2.05368397067100       -0.04161707213127
C            4.82729683912778       -0.85132477886607        0.03508307522389
C            6.20716973927984       -0.83498011717205        0.07151774947979
C            6.92154637624966       -2.02885928004140        0.02690527650845
N            8.32498335940352       -2.01619204128867        0.05568112147108
C            9.12295364648269       -2.74619374801686        0.91327167525892
C            8.76095803309659       -3.59554620255749        1.94989438527358
C            9.77195828365344       -4.18925547616452        2.68121405959241
C           11.11470013426462       -3.94201545660263        2.40090995020309
C           11.48095339837177       -3.08067652274711        1.38577050123701
C           10.48264364695598       -2.47271027826832        0.63489504274158
C           10.49507802663474       -1.53452980137624       -0.45264234275686
C           11.51041357356932       -0.91537416913626       -1.17091371556052
C           11.16773742180749       -0.05879963010349       -2.19825199750377
C            9.83218708248302        0.17328638095172       -2.52220544635569
C            8.80469444666550       -0.43164013548008       -1.82381109140362
C            9.14223101197106       -1.27686038489049       -0.77563518549390
C            6.23107106947987       -3.23522301675028       -0.04905514828017
C            4.85092183467811       -3.24353024406002       -0.08106012850277
C            1.91458067657051       -1.20293491978056        0.72652070866779
C            0.53658720386245       -1.19780233638673        0.68060922407027
H           -2.03681567163317       -3.06529258139902       -0.40204486274534
H           -4.30976513559053        0.54054309615502       -1.28749796816943
H           -6.74955447008644        0.25391101306041       -1.23634089491177
H           -7.41231688647184       -1.82941560754208        2.69211184283077
H           -9.15090430991529       -2.18415929482182        4.40248894414762
H          -11.50537157949256       -2.44459805871985        3.77823146241932
H          -12.20209121346714       -2.33386774275149        1.40851230693963
H          -12.29041979731006       -2.12502073997697       -1.33542359499143
H          -11.74826490740843       -1.86789922080900       -3.73367937857156
H           -9.43079034834095       -1.55809595306435       -4.46539742099563
H           -7.58269683596567       -1.47039753147195       -2.83688397304698
H           -6.28237675362002       -3.32109879374045        1.05473285472480
H           -3.84705237270659       -3.01170005467534        1.04409633381884
H           -0.66307373161173        0.15734626774352       -1.80306671715074
H            0.11435509557116        2.49144021992456       -1.74070045333626
H            1.80732868712136        2.83350182956574        0.03956209156040
H            4.00489505193479        3.95304538453158        0.13570927801860
H            4.17539955825740        6.39410825861398        0.23013573704119
H            2.14378857208741        7.80146943140032        0.25430894546944
H           -0.44455282767057        8.74821520626057        0.23784586013802
H           -2.90484622180999        8.98393532003711        0.18615581180337
H           -4.34694861636460        7.01041270077036        0.02871721099813
H           -3.39254596932428        4.73983830397028       -0.05726825652939
H           -2.37882435993438        3.23059757988046        1.64931549590373
H           -3.19367570388185        0.91130260151523        1.55418318319051
H            0.07456317421864       -3.61817293655963       -1.62801252456208
H            2.52352689766650       -3.60854929215543       -1.56317961087243
H            4.28481330975900        0.08225345915744        0.05399185967222
H            6.74001113382538        0.10176878587132        0.14342112739182
H            7.72359625925804       -3.77989785419775        2.18602626591927
H            9.51588960576038       -4.85742678858018        3.49079152146048
H           11.87609359400540       -4.42701866071907        2.99429789561851
H           12.52137825832687       -2.87800825915012        1.17893948334120
H           12.54580882290505       -1.10609935547538       -0.93021547045592
H           11.94250479344447        0.43440407312141       -2.76707229666502
H            9.59500840738786        0.83827134760669       -3.34011678071558
H            7.77355842333146       -0.25888980826454       -2.09358925437922
H            6.78317196837908       -4.16243181103866       -0.09370774255484
H            4.32674818199094       -4.18685407483782       -0.12441290125493
H            2.42683539132406       -0.54874854284813        1.41743656061409
H           -0.01743239376106       -0.53960423596695        1.33301013448966

          :  Hamiltonian                  GFN2-xTB          :
         :: gradient norm              0.000066101101 Eh/a0 ::
         :: HOMO-LUMO gap              2.367137536854 eV    ::
         :: SCC energy              -165.715892635432 Eh    ::
         :: -> dispersion             -0.149884830940 Eh    ::
         :: -> Gsolv                  -0.067262802477 Eh    ::
         :: repulsion energy           3.118082311743 Eh    ::

    * Orbital Energies and Occupations

         #    Occupation            Energy/Eh            Energy/eV
      -------------------------------------------------------------
         1        2.0000           -0.6757656             -18.3885
       ...           ...                  ...                  ...
       140        2.0000           -0.4077554             -11.0956
       141        2.0000           -0.4049658             -11.0197
       142        2.0000           -0.4049133             -11.0183
       143        2.0000           -0.4045031             -11.0071
       144        2.0000           -0.4043046             -11.0017
       145        2.0000           -0.3987304             -10.8500
       146        2.0000           -0.3783477             -10.2954
       147        2.0000           -0.3783271             -10.2948
       148        2.0000           -0.3778804             -10.2826
       149        2.0000           -0.3759300             -10.2296
       150        2.0000           -0.3620814              -9.8527
       151        2.0000           -0.3615171              -9.8374
       152        2.0000           -0.3580725              -9.7436 (HOMO)
       153                         -0.2710818              -7.3765 (LUMO)
       154                         -0.2465726              -6.7096
       155                         -0.2461038              -6.6968
       156                         -0.2444387              -6.6515
       157                         -0.2396225              -6.5205
       158                         -0.2354744              -6.4076
       159                         -0.2330132              -6.3406
       160                         -0.2300863              -6.2610
       161                         -0.2298866              -6.2555
       162                         -0.2219269              -6.0389
       163                         -0.2217332              -6.0337
       ...                                ...                  ...
       301                          0.7450813              20.2747
      -------------------------------------------------------------
                  HL-Gap            0.0869907 Eh            2.3671 eV

     #   Z          covCN         q      C6AA      α(0)
     1   6 C        2.909    -0.045    29.113     8.848
     2   6 C        2.959     0.002    27.969     8.674
     3   6 C        2.978     0.009    27.803     8.649
     4   6 C        2.924    -0.031    28.777     8.797
     5   6 C        2.920    -0.043    29.062     8.840
     6   6 C        2.912     0.062    26.600     8.457
     7   7 N        2.802    -0.046    22.131     6.987
     8   6 C        3.076     0.047    26.858     8.497
     9   6 C        2.909    -0.052    29.292     8.875
    10   6 C        2.924    -0.035    28.878     8.813
    11   6 C        2.919    -0.043    29.065     8.841
    12   6 C        2.912    -0.035    28.871     8.811
    13   6 C        3.067    -0.019    28.410     8.740
    14   6 C        3.067    -0.019    28.411     8.740
    15   6 C        2.912    -0.035    28.872     8.811
    16   6 C        2.919    -0.043    29.065     8.841
    17   6 C        2.924    -0.035    28.876     8.812
    18   6 C        2.909    -0.052    29.290     8.874
    19   6 C        3.075     0.047    26.856     8.497
    20   6 C        2.920    -0.043    29.059     8.840
    21   6 C        2.924    -0.034    28.850     8.808
    22   6 C        2.977     0.015    27.676     8.629
    23   6 C        2.924    -0.030    28.746     8.792
    24   6 C        2.920    -0.042    29.054     8.839
    25   6 C        2.913     0.062    26.604     8.458
    26   7 N        2.802    -0.046    22.135     6.988
    27   6 C        3.076     0.047    26.855     8.496
    28   6 C        2.910    -0.052    29.285     8.874
    29   6 C        2.924    -0.035    28.873     8.812
    30   6 C        2.919    -0.043    29.068     8.841
    31   6 C        2.912    -0.035    28.872     8.811
    32   6 C        3.067    -0.019    28.411     8.740
    33   6 C        3.067    -0.019    28.413     8.740
    34   6 C        2.912    -0.035    28.872     8.811
    35   6 C        2.919    -0.043    29.067     8.841
    36   6 C        2.924    -0.035    28.878     8.813
    37   6 C        2.909    -0.052    29.291     8.875
    38   6 C        3.076     0.048    26.856     8.497
    39   6 C        2.920    -0.043    29.072     8.842
    40   6 C        2.924    -0.032    28.789     8.799
    41   6 C        2.970     0.016    27.661     8.627
    42   6 C        2.925    -0.037    28.912     8.818
    43   6 C        2.922    -0.035    28.878     8.812
    44   6 C        2.976     0.008    27.841     8.655
    45   6 C        2.975     0.008    27.835     8.654
    46   6 C        2.925    -0.033    28.827     8.805
    47   6 C        2.920    -0.043    29.066     8.841
    48   6 C        2.913     0.062    26.617     8.460
    49   7 N        2.802    -0.047    22.148     6.990
    50   6 C        3.076     0.048    26.853     8.496
    51   6 C        2.909    -0.052    29.292     8.875
    52   6 C        2.924    -0.035    28.880     8.813
    53   6 C        2.919    -0.043    29.069     8.842
    54   6 C        2.912    -0.035    28.875     8.811
    55   6 C        3.067    -0.019    28.416     8.741
    56   6 C        3.067    -0.019    28.415     8.741
    57   6 C        2.912    -0.035    28.875     8.811
    58   6 C        2.919    -0.043    29.069     8.841
    59   6 C        2.924    -0.035    28.879     8.813
    60   6 C        2.909    -0.052    29.292     8.875
    61   6 C        3.076     0.048    26.852     8.496
    62   6 C        2.920    -0.043    29.069     8.842
    63   6 C        2.924    -0.034    28.835     8.806
    64   6 C        2.923    -0.035    28.873     8.812
    65   6 C        2.922    -0.034    28.844     8.807
    66   1 H        0.925     0.042     2.424     2.435
    67   1 H        0.926     0.038     2.473     2.459
    68   1 H        0.926     0.041     2.436     2.441
    69   1 H        0.926     0.030     2.585     2.514
    70   1 H        0.926     0.030     2.592     2.518
    71   1 H        0.926     0.027     2.628     2.535
    72   1 H        0.926     0.029     2.595     2.519
    73   1 H        0.926     0.029     2.595     2.519
    74   1 H        0.926     0.027     2.628     2.535
    75   1 H        0.926     0.029     2.594     2.518
    76   1 H        0.926     0.030     2.588     2.515
    77   1 H        0.926     0.042     2.419     2.432
    78   1 H        0.926     0.043     2.406     2.426
    79   1 H        0.926     0.039     2.464     2.455
    80   1 H        0.926     0.041     2.432     2.439
    81   1 H        0.926     0.030     2.586     2.515
    82   1 H        0.926     0.029     2.596     2.519
    83   1 H        0.926     0.027     2.630     2.536
    84   1 H        0.926     0.029     2.600     2.521
    85   1 H        0.926     0.029     2.598     2.520
    86   1 H        0.926     0.027     2.631     2.536
    87   1 H        0.926     0.029     2.595     2.519
    88   1 H        0.926     0.030     2.590     2.517
    89   1 H        0.926     0.041     2.435     2.440
    90   1 H        0.926     0.038     2.478     2.461
    91   1 H        0.925     0.033     2.542     2.493
    92   1 H        0.926     0.034     2.532     2.489
    93   1 H        0.926     0.040     2.442     2.444
    94   1 H        0.926     0.040     2.442     2.444
    95   1 H        0.926     0.030     2.593     2.518
    96   1 H        0.926     0.029     2.595     2.519
    97   1 H        0.926     0.027     2.629     2.536
    98   1 H        0.926     0.029     2.597     2.520
    99   1 H        0.926     0.029     2.597     2.520
   100   1 H        0.926     0.027     2.629     2.536
   101   1 H        0.926     0.029     2.595     2.519
   102   1 H        0.926     0.030     2.592     2.518
   103   1 H        0.926     0.041     2.440     2.442
   104   1 H        0.926     0.041     2.433     2.439
   105   1 H        0.926     0.032     2.556     2.500
   106   1 H        0.926     0.031     2.567     2.505

molecular dipole:
                 x           y           z       tot (Debye)
 q only:       -0.362      -0.634      -0.068
   full:       -0.375      -0.637      -0.078       1.889

 projected vibrational frequencies (cm⁻¹)
eigval :       -0.00    -0.00     0.00     0.00     0.00     0.00
eigval :       -1.45     4.64     9.85    10.79    12.83    14.28
eigval :       21.68    31.48    39.15    41.55    44.36    53.48
eigval :       63.84    66.65    77.28    79.80    83.62    90.25
eigval :       99.88   100.26   102.64   106.20   136.07   139.67
eigval :      141.50   142.35   145.98   155.61   163.80   166.84
eigval :      200.37   207.26   215.58   224.81   244.74   251.06
eigval :      253.48   271.02   271.50   272.28   274.47   297.23
eigval :      319.10   333.70   351.24   366.23   373.20   379.16
eigval :      381.05   382.73   385.25   387.64   394.07   395.18
eigval :      400.89   413.82   417.19   418.78   423.14   425.46
eigval :      427.30   431.88   435.79   438.49   449.05   480.24
eigval :      494.47   505.79   518.16   518.53   518.99   531.51
eigval :      533.24   534.61   539.05   539.29   541.13   541.59
eigval :      568.44   575.21   577.80   582.17   585.23   587.98
eigval :      594.24   596.88   602.29   607.97   616.93   618.12
eigval :      629.36   636.28   668.57   672.72   674.08   674.83
eigval :      677.18   684.57   697.59   700.48   702.24   707.77
eigval :      709.01   710.27   718.47   747.74   753.84   756.08
eigval :      759.23   767.19   768.64   770.78   771.38   779.16
eigval :      780.15   781.59   804.45   814.95   820.99   831.21
eigval :      852.40   856.51   864.61   865.80   865.96   870.60
eigval :      871.60   873.91   874.31   877.60   878.36   880.34
eigval :      896.97   897.14   897.34   899.27   900.78   901.18
eigval :      901.75   903.04   904.26   906.51   917.50   917.92
eigval :      918.66   919.55   920.87   922.70   924.26   924.42
eigval :      925.46   928.61   929.56   931.65   931.83   933.12
eigval :      935.11   937.50   963.79   993.75  1010.99  1011.05
eigval :     1011.46  1015.46  1020.25  1029.27  1068.19  1068.58
eigval :     1068.75  1071.12  1071.69  1071.84  1079.67  1116.06
eigval :     1116.64  1116.99  1133.86  1135.52  1138.75  1143.57
eigval :     1150.34  1150.74  1151.83  1170.01  1174.28  1174.39
eigval :     1175.83  1179.38  1179.45  1180.35  1182.28  1182.86
eigval :     1183.46  1195.12  1200.58  1202.58  1207.37  1222.72
eigval :     1234.82  1235.67  1235.81  1241.86  1242.50  1244.26
eigval :     1265.95  1266.69  1268.03  1270.99  1278.72  1296.31
eigval :     1298.36  1299.34  1300.86  1301.70  1301.93  1305.98
eigval :     1310.50  1313.24  1314.36  1319.45  1336.53  1355.04
eigval :     1355.54  1355.83  1360.14  1360.58  1360.73  1363.90
eigval :     1366.89  1369.78  1393.94  1404.45  1405.28  1411.98
eigval :     1426.98  1427.41  1427.51  1428.68  1429.28  1429.88
eigval :     1473.84  1474.25  1474.33  1475.71  1486.79  1486.98
eigval :     1487.07  1489.30  1491.48  1506.07  1550.03  1556.49
eigval :     1558.91  1563.28  1572.72  1573.05  1573.09  1582.44
eigval :     1586.68  1587.08  1587.20  1590.49  1592.97  1596.60
eigval :     1596.81  1597.17  1599.80  1612.75  1612.85  1613.16
eigval :     1629.73  3045.11  3065.92  3069.31  3069.88  3069.92
eigval :     3070.29  3070.37  3070.95  3073.30  3075.47  3075.55
eigval :     3076.00  3076.21  3076.32  3076.56  3076.93  3078.57
eigval :     3079.05  3080.75  3081.50  3081.75  3081.99  3083.50
eigval :     3083.80  3083.89  3084.40  3084.78  3086.30  3089.93
eigval :     3090.13  3090.31  3090.42  3091.15  3091.38  3091.46
eigval :     3092.38  3092.53  3093.49  3093.77  3094.12  3095.44

   temp. (K)  partition function   enthalpy   heat capacity  entropy
                                   cal/mol     cal/K/mol   cal/K/mol   J/K/mol
 298.15  VIB  0.430E+26            30031.757    191.005    190.790
         ROT  0.342E+09              888.752      2.981     42.034
         INT  0.147E+35            30920.509    193.986    232.824
         TR   0.231E+29             1481.254      4.968     45.998
         TOT                       32401.7632   198.9543   278.8217  1166.5898

       T/K    H(0)-H(T)+PV         H(T)/Eh          T*S/Eh         G(T)/Eh
   ------------------------------------------------------------------------
    298.15    0.516355E-01    0.871193E+00    0.132477E+00    0.738715E+00
   ------------------------------------------------------------------------

         :::::::::::::::::::::::::::::::::::::::::::::::::::::
         ::                  THERMODYNAMIC                  ::
         :::::::::::::::::::::::::::::::::::::::::::::::::::::
         :: total free energy        -161.859094895170 Eh   ::
         ::.................................................::
         :: total energy             -162.597810320276 Eh   ::
         :: zero point energy           0.819557099311 Eh   ::
         :: G(RRHO) w/o ZPVE           -0.080841674205 Eh   ::
         :: G(RRHO) contrib.            0.738715425106 Eh   ::
         :::::::::::::::::::::::::::::::::::::::::::::::::::::

           -------------------------------------------------
          | TOTAL ENERGY             -162.597810320276 Eh   |
          | TOTAL ENTHALPY           -161.726617724576 Eh   |
          | TOTAL FREE ENERGY        -161.859094895170 Eh   |
          | GRADIENT NORM               0.000066085465 Eh/α |
          | HOMO-LUMO GAP               2.367137629329 eV   |
           -------------------------------------------------

 * finished run on 2025/07/16 at 10:00:10.196
