   * xtb version 6.7.1 (edcfbbe) compiled by 'albert@albert-system' on 2024-07-22

   ID    Z sym.   atoms
    1    6 C      1-6, 8-25, 27-48, 50-65
    2    7 N      7, 26, 49
    3    1 H      66-106

          program call               : xtb data2507/toluene/2CzTPEPCz/2CzTPEPCz_toluene_S0_finalOpt.xtbopt.xyz --gfn 2 --uhf 2 --gbsa toluene --ohess vtight --parallel 40 --molden --ceasefiles --namespace data2507/toluene/2CzTPEPCz/2CzTPEPCz_toluene_T1_preOpt
      * Solvation model:               GBSA
        Solvent                        toluene
        Solvent mass                       9.2140E+01 g/mol
          :  Hamiltonian                  GFN2-xTB          :
 * total energy  :  -162.5064106 Eh     change       -0.2417295E-08 Eh
 * total energy  :  -162.5148815 Eh     change       -0.8470874E-02 Eh
 * total energy  :  -162.5193765 Eh     change       -0.4495041E-02 Eh
 * total energy  :  -162.5206169 Eh     change       -0.1240385E-02 Eh
 * total energy  :  -162.5221189 Eh     change       -0.1501987E-02 Eh
 * total energy  :  -162.5229233 Eh     change       -0.8043538E-03 Eh
 * total energy  :  -162.5233504 Eh     change       -0.4271161E-03 Eh
 * total energy  :  -162.5236241 Eh     change       -0.2737294E-03 Eh
 * total energy  :  -162.5238601 Eh     change       -0.2359740E-03 Eh
 * total energy  :  -162.5240633 Eh     change       -0.2032343E-03 Eh
 * total energy  :  -162.5273892 Eh     change       -0.3825034E-06 Eh
 * total energy  :  -162.5273895 Eh     change       -0.3030941E-06 Eh
 * total energy  :  -162.5273899 Eh     change       -0.3247754E-06 Eh
 * total energy  :  -162.5273902 Eh     change       -0.3269887E-06 Eh
 * total energy  :  -162.5273905 Eh     change       -0.3199015E-06 Eh
 * total energy  :  -162.5273908 Eh     change       -0.2964180E-06 Eh
 * total energy  :  -162.5273910 Eh     change       -0.2192616E-06 Eh
 * total energy  :  -162.5273912 Eh     change       -0.1440486E-06 Eh
 * total energy  :  -162.5273912 Eh     change       -0.8195741E-07 Eh
   *** GEOMETRY OPTIMIZATION CONVERGED AFTER 171 ITERATIONS ***

 final structure:
================
106
 xtb: 6.7.1 (edcfbbe)
C           -1.68843065084068       -1.33517144833516       -1.52542262811049
C           -2.55026424770343       -0.32412841146862       -0.95537647050531
C           -3.91216722873207       -0.66778215965000       -0.68751123983821
C           -4.95014665683180        0.28786983684724       -0.70693006907392
C           -6.25616254883434       -0.07119672364640       -0.47832009655810
C           -6.59054238220727       -1.40130795241247       -0.21081183369756
N           -7.92002345652726       -1.76412394408901        0.03416104764611
C           -8.36751920406312       -2.51330156278711        1.10464227092509
C           -7.65814739563270       -3.02593212208968        2.18236784585982
C           -8.36226394851352       -3.72160409565370        3.14688189023752
C           -9.74122505829685       -3.90019602817029        3.05407078863591
C          -10.45619257481812       -3.37183331969983        1.99679773747978
C           -9.77057956654815       -2.66963461634721        1.01421023941519
C          -10.18068370143594       -1.98351878055849       -0.17988427933533
C          -11.40728959618670       -1.80462441250747       -0.80589894669106
C          -11.44916788211498       -1.09598046320017       -1.99087174872196
C          -10.28551805953902       -0.58095961110444       -2.55888488177585
C           -9.05359885776976       -0.74514206716763       -1.95441966345674
C           -9.00788311016268       -1.43623620967882       -0.75117754981454
C           -5.57963710909251       -2.36676344314230       -0.20241443024905
C           -4.27637853649111       -2.01014586985767       -0.44527473484037
C           -2.03703931368167        0.98915127275891       -0.71421297791610
C           -0.96210875260961        1.50218347656374       -1.47426029123391
C           -0.41894704153509        2.73358713646614       -1.20726938832509
C           -0.91059064989144        3.51317584026630       -0.15615459002897
N           -0.32991193609241        4.74889195590381        0.14116450239394
C            1.02357696330206        4.98664415307356        0.28904566440207
C            2.08960772302417        4.09967668113965        0.22416788957902
C            3.35928679119986        4.59765089636155        0.44803102317441
C            3.57210007147313        5.94368651632182        0.73871306189784
C            2.51331521448314        6.82622005340274        0.83001173064780
C            1.22794438978579        6.34896719845673        0.60988084362950
C           -0.07322849842781        6.95775105350520        0.65193107413587
C           -0.51513078674103        8.25135391943790        0.89541095450450
C           -1.87100640932159        8.50985662243118        0.83806494568446
C           -2.77987390222696        7.50088986183712        0.52569424473841
C           -2.36386127933388        6.20631561381325        0.27814799004266
C           -1.00514670717586        5.93377947855544        0.36165410201171
C           -1.97881957794461        3.02697517954498        0.60495427763757
C           -2.53355739898890        1.80226756715185        0.32782784345403
C           -0.35156356374777       -1.54032927868733       -1.22306455459350
C            0.43206782717430       -2.44681230283850       -2.00047703952955
C            1.76674978169840       -2.61210545370990       -1.77757380470165
C            2.43670138168134       -1.90570416931611       -0.75562823637936
C            3.86407477047193       -2.05576701764004       -0.53975896192213
C            4.63325989338160       -0.99457923503319       -0.04141608282047
C            5.98946331387058       -1.12508830166239        0.15835648484188
C            6.63067196525976       -2.32929067382422       -0.12944098769221
N            8.01073100461289       -2.46347917381323        0.07356334334902
C            8.63033212860573       -3.47779377098577        0.77643453897303
C            8.07131450165748       -4.54488298885601        1.46625583687480
C            8.92737925304300       -5.41296383446116        2.11696984136800
C           10.30827146291033       -5.22638055930687        2.09477511932279
C           10.86898471718888       -4.15310658120434        1.43056964455616
C           10.02903379205585       -3.26695093623140        0.76849538487497
C           10.25585666974025       -2.06514245174052        0.01449797873879
C           11.40011204740035       -1.36956466220718       -0.35434003756191
C           11.26394377852048       -0.23330490853736       -1.12751092301842
C           10.00767682325649        0.20383213062309       -1.54314039838969
C            8.85487381601509       -0.47060725393034       -1.18828206743552
C            8.98319494216211       -1.60050811831354       -0.39207661000203
C            5.88037867894313       -3.39631669118454       -0.62196941327619
C            4.52492950179672       -3.25870183677884       -0.82453858229055
C            1.66088499542664       -1.05574389989409        0.05851975679206
C            0.32343398908826       -0.88556473626461       -0.14740399097735
H           -2.13651944306403       -1.98908197397173       -2.26427739522956
H           -4.71716500709990        1.31547447343674       -0.94167247861687
H           -7.03481473234351        0.67753556068557       -0.49110833964202
H           -6.59270166491170       -2.87757798772583        2.27292184185872
H           -7.83225960745605       -4.13297081052046        3.99368385542582
H          -10.25554339687174       -4.45158098198465        3.82759620224342
H          -11.52704847862636       -3.49623645675091        1.93450438233563
H          -12.30708631948771       -2.21821598475980       -0.37533476570744
H          -12.39372540961446       -0.94485363203199       -2.49266486279841
H          -10.34719888786175       -0.04467895438058       -3.49476164659754
H           -8.15599127396671       -0.35740350996721       -2.41185871430463
H           -5.83701012416791       -3.40006349979300       -0.02046737325028
H           -3.50322299981388       -2.76441366500848       -0.42654061490525
H           -0.58573556982395        0.92354834397799       -2.30411450321632
H            0.38006399374065        3.11929652704874       -1.82315523338590
H            1.93382382309525        3.05209723788935        0.01659810522269
H            4.20567891861491        3.92794613178224        0.39994144463994
H            4.57982310411696        6.29550530009453        0.90453361081898
H            2.67718645622657        7.86537592534727        1.07342467946312
H            0.18998430762861        9.03776509041058        1.11991823091802
H           -2.23530437499127        9.50883670354223        1.02788177342608
H           -3.83277744528874        7.73667996458635        0.47132545538306
H           -3.07467979992605        5.43700828292905        0.01754580749621
H           -2.33950199327150        3.60860140000134        1.44067001136059
H           -3.31879222641014        1.41957810013022        0.96276522979019
H           -0.05250098451931       -2.98071600356936       -2.80616683320832
H            2.33271383943441       -3.27067198999492       -2.42026132573850
H            4.16117785180515       -0.04721997940754        0.17076925277915
H            6.56388067587095       -0.29907693367996        0.55152310287685
H            7.00200929177183       -4.68824620062979        1.50455056971317
H            8.51646448257861       -6.25281236061623        2.65836455073732
H           10.94459350184478       -5.92834778784917        2.61366905137803
H           11.93794453994607       -4.00001598095209        1.42717957662332
H           12.37494997948727       -1.71690010766607       -0.04579613642987
H           12.14132887893436        0.32296593077061       -1.42364094416529
H            9.93343562942913        1.08753511722841       -2.16026191314695
H            7.88812140487231       -0.13302426080713       -1.53012369972603
H            6.37310397334287       -4.32845358027409       -0.85663121369873
H            3.96171621465815       -4.10430987127820       -1.18939834279263
H            2.13088849940253       -0.56113090411860        0.89650258551994
H           -0.24949936155123       -0.26871623990798        0.52745002101080

          :  Hamiltonian                  GFN2-xTB          :
         :: gradient norm              0.000042386501 Eh/a0 ::
         :: HOMO-LUMO gap              1.275297913927 eV    ::
         :: SCC energy              -165.627086974170 Eh    ::
         :: -> dispersion             -0.149974638826 Eh    ::
         :: -> Gsolv                  -0.066483305960 Eh    ::
         :: repulsion energy           3.099695723515 Eh    ::

    * Orbital Energies and Occupations

         #    Occupation            Energy/Eh            Energy/eV
      -------------------------------------------------------------
         1        2.0000           -0.6779264             -18.4473
       ...           ...                  ...                  ...
       141        2.0000           -0.4060691             -11.0497
       142        2.0000           -0.4058848             -11.0447
       143        2.0000           -0.4055574             -11.0358
       144        2.0000           -0.4010183             -10.9123
       145        2.0000           -0.3977945             -10.8245
       146        2.0000           -0.3804274             -10.3520
       147        2.0000           -0.3795472             -10.3280
       148        2.0000           -0.3790620             -10.3148
       149        2.0000           -0.3690830             -10.0433
       150        2.0000           -0.3627676              -9.8714
       151        2.0000           -0.3623829              -9.8609
       152        1.0000           -0.3418834              -9.3031
       153        1.0000           -0.2946425              -8.0176 (HOMO)
       154                         -0.2477759              -6.7423 (LUMO)
       155                         -0.2472792              -6.7288
       156                         -0.2459257              -6.6920
       157                         -0.2402538              -6.5376
       158                         -0.2356191              -6.4115
       159                         -0.2283592              -6.2140
       160                         -0.2273772              -6.1872
       161                         -0.2248568              -6.1187
       162                         -0.2238640              -6.0916
       163                         -0.2230022              -6.0682
       164                         -0.2224906              -6.0543
       ...                                ...                  ...
       301                          0.7438428              20.2410
      -------------------------------------------------------------
                  HL-Gap            0.0468666 Eh            1.2753 eV

     #   Z          covCN         q      C6AA      α(0)
     1   6 C        2.911    -0.048    29.180     8.858
     2   6 C        2.963    -0.008    28.217     8.713
     3   6 C        2.972     0.008    27.827     8.653
     4   6 C        2.921    -0.037    28.909     8.817
     5   6 C        2.916    -0.044    29.088     8.844
     6   6 C        2.912     0.056    26.748     8.481
     7   7 N        2.800    -0.039    22.000     6.966
     8   6 C        3.075     0.047    26.861     8.497
     9   6 C        2.909    -0.050    29.247     8.868
    10   6 C        2.923    -0.035    28.868     8.811
    11   6 C        2.920    -0.042    29.034     8.836
    12   6 C        2.912    -0.034    28.858     8.809
    13   6 C        3.066    -0.018    28.387     8.737
    14   6 C        3.067    -0.018    28.387     8.737
    15   6 C        2.912    -0.034    28.858     8.809
    16   6 C        2.920    -0.042    29.035     8.836
    17   6 C        2.923    -0.035    28.868     8.811
    18   6 C        2.909    -0.050    29.250     8.868
    19   6 C        3.075     0.047    26.862     8.498
    20   6 C        2.916    -0.042    29.055     8.839
    21   6 C        2.923    -0.037    28.928     8.820
    22   6 C        2.971     0.014    27.704     8.634
    23   6 C        2.922    -0.033    28.819     8.803
    24   6 C        2.916    -0.043    29.063     8.840
    25   6 C        2.912     0.057    26.727     8.477
    26   7 N        2.800    -0.037    21.950     6.958
    27   6 C        3.074     0.047    26.871     8.499
    28   6 C        2.910    -0.050    29.233     8.866
    29   6 C        2.923    -0.034    28.858     8.810
    30   6 C        2.920    -0.041    29.024     8.835
    31   6 C        2.912    -0.034    28.851     8.808
    32   6 C        3.066    -0.017    28.374     8.735
    33   6 C        3.066    -0.017    28.375     8.735
    34   6 C        2.912    -0.034    28.849     8.808
    35   6 C        2.920    -0.041    29.022     8.834
    36   6 C        2.923    -0.035    28.863     8.810
    37   6 C        2.910    -0.050    29.238     8.866
    38   6 C        3.074     0.047    26.870     8.499
    39   6 C        2.916    -0.044    29.084     8.843
    40   6 C        2.921    -0.036    28.902     8.816
    41   6 C        2.962     0.015    27.682     8.630
    42   6 C        2.920    -0.039    28.978     8.828
    43   6 C        2.915    -0.035    28.868     8.810
    44   6 C        2.973     0.005    27.916     8.667
    45   6 C        2.972     0.008    27.837     8.654
    46   6 C        2.924    -0.035    28.860     8.810
    47   6 C        2.918    -0.043    29.071     8.842
    48   6 C        2.912     0.060    26.664     8.467
    49   7 N        2.801    -0.043    22.065     6.976
    50   6 C        3.075     0.047    26.857     8.497
    51   6 C        2.909    -0.051    29.268     8.871
    52   6 C        2.923    -0.035    28.870     8.811
    53   6 C        2.920    -0.042    29.047     8.838
    54   6 C        2.912    -0.035    28.863     8.810
    55   6 C        3.067    -0.018    28.396     8.738
    56   6 C        3.067    -0.018    28.396     8.738
    57   6 C        2.912    -0.035    28.863     8.810
    58   6 C        2.920    -0.042    29.046     8.838
    59   6 C        2.924    -0.035    28.871     8.811
    60   6 C        2.909    -0.051    29.266     8.871
    61   6 C        3.075     0.047    26.857     8.497
    62   6 C        2.918    -0.043    29.073     8.842
    63   6 C        2.924    -0.035    28.865     8.811
    64   6 C        2.916    -0.035    28.866     8.810
    65   6 C        2.915    -0.036    28.895     8.815
    66   1 H        0.925     0.036     2.501     2.473
    67   1 H        0.926     0.039     2.457     2.451
    68   1 H        0.926     0.038     2.480     2.463
    69   1 H        0.926     0.032     2.561     2.503
    70   1 H        0.926     0.031     2.574     2.509
    71   1 H        0.926     0.029     2.603     2.523
    72   1 H        0.926     0.031     2.571     2.508
    73   1 H        0.926     0.031     2.572     2.508
    74   1 H        0.926     0.029     2.604     2.523
    75   1 H        0.926     0.031     2.574     2.509
    76   1 H        0.926     0.032     2.560     2.502
    77   1 H        0.926     0.038     2.482     2.464
    78   1 H        0.926     0.038     2.478     2.462
    79   1 H        0.926     0.036     2.501     2.473
    80   1 H        0.926     0.038     2.471     2.458
    81   1 H        0.926     0.033     2.547     2.495
    82   1 H        0.926     0.031     2.567     2.506
    83   1 H        0.926     0.029     2.595     2.519
    84   1 H        0.926     0.032     2.564     2.504
    85   1 H        0.926     0.032     2.563     2.504
    86   1 H        0.926     0.029     2.595     2.519
    87   1 H        0.926     0.032     2.564     2.504
    88   1 H        0.926     0.033     2.548     2.496
    89   1 H        0.926     0.039     2.458     2.451
    90   1 H        0.926     0.040     2.443     2.444
    91   1 H        0.926     0.030     2.592     2.518
    92   1 H        0.926     0.032     2.556     2.500
    93   1 H        0.926     0.040     2.447     2.446
    94   1 H        0.926     0.039     2.455     2.450
    95   1 H        0.926     0.031     2.574     2.509
    96   1 H        0.926     0.030     2.580     2.512
    97   1 H        0.926     0.028     2.611     2.527
    98   1 H        0.926     0.031     2.578     2.511
    99   1 H        0.926     0.031     2.578     2.511
   100   1 H        0.926     0.028     2.611     2.527
   101   1 H        0.926     0.030     2.580     2.512
   102   1 H        0.926     0.031     2.574     2.509
   103   1 H        0.926     0.040     2.454     2.450
   104   1 H        0.926     0.040     2.443     2.444
   105   1 H        0.926     0.030     2.587     2.515
   106   1 H        0.926     0.030     2.581     2.512

molecular dipole:
                 x           y           z       tot (Debye)
 q only:       -0.231      -0.023      -0.207
   full:       -0.236      -0.055      -0.234       0.855

 projected vibrational frequencies (cm⁻¹)
eigval :       -0.00    -0.00    -0.00     0.00     0.00     0.00
eigval :        6.83     9.58    14.15    15.49    17.22    20.14
eigval :       23.60    30.51    38.41    43.24    44.27    57.09
eigval :       64.09    72.96    81.57    84.17    95.15   100.41
eigval :      105.99   107.90   108.87   116.85   138.60   142.58
eigval :      144.70   145.49   155.57   159.21   171.14   174.33
eigval :      203.87   214.53   218.13   231.45   247.00   252.61
eigval :      257.30   272.17   272.41   273.01   282.50   289.82
eigval :      312.20   325.15   348.36   358.73   371.69   373.68
eigval :      378.71   380.37   386.54   390.91   395.48   396.36
eigval :      398.40   402.26   415.67   418.16   423.89   428.39
eigval :      429.71   433.13   437.32   440.48   450.21   458.34
eigval :      473.19   489.49   514.25   517.25   517.92   520.43
eigval :      534.35   535.99   537.87   540.58   540.77   540.90
eigval :      541.53   573.49   576.74   580.82   582.58   583.88
eigval :      591.26   592.65   596.31   599.95   614.46   616.81
eigval :      617.35   629.68   665.38   671.06   673.80   674.62
eigval :      675.03   675.85   683.28   692.42   695.00   705.98
eigval :      707.64   710.52   712.14   743.20   744.48   753.74
eigval :      756.18   758.26   768.00   768.74   768.96   769.65
eigval :      779.62   779.89   781.26   800.75   811.69   818.27
eigval :      824.96   834.53   848.13   853.40   861.18   862.98
eigval :      871.28   871.75   872.53   874.28   875.76   876.17
eigval :      895.57   896.02   896.43   900.10   900.61   901.35
eigval :      901.41   903.75   904.38   906.15   913.87   916.00
eigval :      917.64   918.08   918.55   919.79   920.70   922.10
eigval :      923.91   924.87   926.84   927.50   927.82   929.69
eigval :      933.44   941.11   953.24   970.90  1005.26  1008.99
eigval :     1010.53  1010.99  1011.06  1012.80  1060.60  1068.91
eigval :     1069.09  1069.18  1072.30  1072.32  1073.57  1114.19
eigval :     1115.13  1116.98  1120.39  1133.81  1135.50  1142.59
eigval :     1149.17  1149.64  1150.44  1152.42  1170.31  1174.29
eigval :     1175.68  1176.11  1178.96  1179.37  1180.92  1181.17
eigval :     1182.55  1191.52  1198.46  1203.98  1207.80  1223.95
eigval :     1234.24  1234.48  1234.98  1241.84  1242.45  1243.14
eigval :     1260.36  1266.63  1268.36  1280.40  1289.76  1293.71
eigval :     1294.41  1296.97  1297.22  1298.58  1300.70  1301.44
eigval :     1315.73  1316.50  1321.58  1327.36  1338.36  1355.42
eigval :     1355.56  1356.09  1357.06  1357.57  1358.05  1358.98
eigval :     1362.66  1364.89  1405.89  1410.09  1413.29  1418.30
eigval :     1421.97  1423.87  1424.63  1425.03  1425.84  1430.39
eigval :     1437.23  1462.82  1469.32  1469.94  1471.59  1474.57
eigval :     1477.22  1483.03  1484.97  1485.34  1486.08  1496.27
eigval :     1504.27  1510.21  1538.36  1546.92  1557.81  1571.26
eigval :     1571.38  1572.05  1581.78  1585.45  1585.90  1586.51
eigval :     1592.61  1592.85  1592.96  1594.79  1608.48  1609.17
eigval :     1610.64  3029.01  3063.02  3071.52  3071.58  3071.61
eigval :     3071.94  3072.13  3072.33  3072.40  3074.70  3077.02
eigval :     3077.07  3077.69  3077.88  3078.07  3078.39  3078.94
eigval :     3079.03  3079.49  3081.15  3082.05  3082.31  3085.19
eigval :     3085.27  3086.05  3086.24  3086.56  3086.97  3088.56
eigval :     3089.78  3091.56  3091.73  3092.18  3092.73  3093.41
eigval :     3093.57  3093.67  3094.38  3094.89  3096.72  3096.92

   temp. (K)  partition function   enthalpy   heat capacity  entropy
                                   cal/mol     cal/K/mol   cal/K/mol   J/K/mol
 298.15  VIB  0.542E+24            29990.527    192.394    186.102
         ROT  0.355E+09              888.752      2.981     42.104
         INT  0.192E+33            30879.280    195.375    228.206
         TR   0.231E+29             1481.254      4.968     45.998
         TOT                       32360.5337   200.3430   274.2045  1147.2718

       T/K    H(0)-H(T)+PV         H(T)/Eh          T*S/Eh         G(T)/Eh
   ------------------------------------------------------------------------
    298.15    0.515698E-01    0.868833E+00    0.130283E+00    0.738549E+00
   ------------------------------------------------------------------------

         :::::::::::::::::::::::::::::::::::::::::::::::::::::
         ::                  THERMODYNAMIC                  ::
         :::::::::::::::::::::::::::::::::::::::::::::::::::::
         :: total free energy        -161.788842029347 Eh   ::
         ::.................................................::
         :: total energy             -162.527391250017 Eh   ::
         :: zero point energy           0.817262849644 Eh   ::
         :: G(RRHO) w/o ZPVE           -0.078713628974 Eh   ::
         :: G(RRHO) contrib.            0.738549220670 Eh   ::
         :::::::::::::::::::::::::::::::::::::::::::::::::::::

           -------------------------------------------------
          | TOTAL ENERGY             -162.527391250017 Eh   |
          | TOTAL ENTHALPY           -161.658558607296 Eh   |
          | TOTAL FREE ENERGY        -161.788842029347 Eh   |
          | GRADIENT NORM               0.000042463512 Eh/α |
          | HOMO-LUMO GAP               1.275305622789 eV   |
           -------------------------------------------------

 * finished run on 2025/07/16 at 10:10:06.235
