   * xtb version 6.7.1 (edcfbbe) compiled by 'albert@albert-system' on 2024-07-22

   ID    Z sym.   atoms
    1    6 C      1-6, 8-25, 27-48, 50-65
    2    7 N      7, 26, 49
    3    1 H      66-106

          program call               : xtb data2507/toluene/2CzTPEPCz/2CzTPEPCz_toluene_S0_crest.xyz --gfn 2 --gbsa toluene --ohess vtight --parallel 40 --molden --ceasefiles --namespace data2507/toluene/2CzTPEPCz/2CzTPEPCz_toluene_S0_finalOpt
      * Solvation model:               GBSA
        Solvent                        toluene
        Solvent mass                       9.2140E+01 g/mol
          :  Hamiltonian                  GFN2-xTB          :
 * total energy  :  -162.5966330 Eh     change       -0.1660425E-08 Eh
 * total energy  :  -162.5966896 Eh     change       -0.5655906E-04 Eh
 * total energy  :  -162.5967362 Eh     change       -0.4658178E-04 Eh
 * total energy  :  -162.5967609 Eh     change       -0.2476867E-04 Eh
 * total energy  :  -162.5967796 Eh     change       -0.1871357E-04 Eh
 * total energy  :  -162.5968062 Eh     change       -0.2654590E-04 Eh
 * total energy  :  -162.5968185 Eh     change       -0.1226730E-04 Eh
 * total energy  :  -162.5968430 Eh     change       -0.2450869E-04 Eh
 * total energy  :  -162.5968611 Eh     change       -0.1817933E-04 Eh
 * total energy  :  -162.5968757 Eh     change       -0.1455264E-04 Eh
 * total energy  :  -162.5977181 Eh     change       -0.1649132E-05 Eh
 * total energy  :  -162.5977198 Eh     change       -0.1770274E-05 Eh
 * total energy  :  -162.5977216 Eh     change       -0.1783967E-05 Eh
 * total energy  :  -162.5977233 Eh     change       -0.1715466E-05 Eh
 * total energy  :  -162.5977250 Eh     change       -0.1639858E-05 Eh
 * total energy  :  -162.5977266 Eh     change       -0.1594519E-05 Eh
 * total energy  :  -162.5977282 Eh     change       -0.1600169E-05 Eh
 * total energy  :  -162.5977298 Eh     change       -0.1649096E-05 Eh
 * total energy  :  -162.5977298 Eh     change       -0.6771302E-08 Eh
   *** GEOMETRY OPTIMIZATION CONVERGED AFTER 94 ITERATIONS ***

 final structure:
================
106
 xtb: 6.7.1 (edcfbbe)
C           -1.69138915024928       -2.13180142790115       -0.16757930311715
C           -2.47400846613094       -1.04406239605662       -0.04767244281448
C           -3.93884244920473       -1.15552528962065       -0.06590944669158
C           -4.71204331432266       -0.16939019922710       -0.68056153950605
C           -6.08826538867531       -0.26195941943289       -0.71123011801090
C           -6.72968538211837       -1.34874196737946       -0.12242399599191
N           -8.12933398650418       -1.44465410803387       -0.15026687485491
C           -8.94744963120759       -1.64706755402228        0.94310522172899
C           -8.61553189077665       -1.75976637709852        2.28624151847598
C           -9.64363687364053       -1.93199835904857        3.19328456550052
C          -10.97468306335799       -1.98323631458769        2.78322429016961
C          -11.31285845047692       -1.84910881370663        1.45113162592851
C          -10.29684542705903       -1.67425451276734        0.51989475751296
C          -10.28138043104653       -1.48157240138120       -0.90348411229588
C          -11.27518295515256       -1.42561032671791       -1.87264045188341
C          -10.90575708565431       -1.24039825171060       -3.19015411483369
C           -9.56367085779780       -1.12727985696691       -3.54893021344372
C           -8.55720446061676       -1.17892154600285       -2.60353804182583
C           -8.92365702433068       -1.34093457023666       -1.27453541209244
C           -5.96877086350548       -2.33635465106519        0.49741279364303
C           -4.59235369999852       -2.23662279539491        0.52606132353674
C           -1.92848052116013        0.32327130783197        0.04489451120631
C           -0.98069997468905        0.77695987101532       -0.87058969123347
C           -0.47723017850281        2.05895439942752       -0.78774170128895
C           -0.90423770311178        2.91474612473871        0.22489869202733
N           -0.36925686490289        4.20829634767052        0.32560012159552
C            0.97521732244204        4.52038984114811        0.35126636782448
C            2.07796029451720        3.67793790048893        0.32710398541403
C            3.33238932715894        4.25388974077003        0.38851791662069
C            3.49465248820962        5.63515056398992        0.48051070685618
C            2.40124168092247        6.47698040306701        0.52700930242675
C            1.12923203378407        5.92156724358194        0.46617017987758
C           -0.19570928345258        6.47477758826036        0.50430024695913
C           -0.68905364088912        7.77073749955720        0.58742358417877
C           -2.05657164710092        7.96096097063097        0.57471778219559
C           -2.92926872510139        6.87951676263813        0.46778264494414
C           -2.46304084323124        5.58134523373190        0.38487167720555
C           -1.08981748221799        5.38187685071562        0.41833410016772
C           -1.86170945390841        2.47461194616974        1.13433710587000
C           -2.37564819855997        1.19660543112616        1.03401943626985
C           -0.23682716382827       -2.16079853069231       -0.10014844769638
C            0.47577199300931       -3.02881583425330       -0.92998995682666
C            1.85502287857499       -3.05623658075945       -0.91259770029546
C            2.57415337317306       -2.23047202745658       -0.04937310973005
C            4.04292540625005       -2.22347485691959       -0.05905704857278
C            4.74283949749913       -1.02325319574892        0.06053365653755
C            6.12232097783937       -0.99822111580146        0.03462368848748
C            6.83998598472392       -2.18110109670768       -0.11895701609760
N            8.24282832240332       -2.15577405887054       -0.15644742474335
C            9.08799824254131       -2.92941778623909        0.61361320635318
C            8.78486234812780       -3.85803452640908        1.59990254394874
C            9.83585070817499       -4.48173141965832        2.24475793430390
C           11.16123393335774       -4.18865340369831        1.92847503038673
C           11.46958678035564       -3.24989021097203        0.96403601369226
C           10.43005825718058       -2.60947744032997        0.30144643847863
C           10.38174153899524       -1.59397319598791       -0.71297801459025
C           11.35675775162019       -0.90192950406274       -1.42036302853356
C           10.95842549819192        0.02103820879805       -2.36688696339968
C            9.60712047919522        0.24722829470653       -2.62241088448376
C            8.61905424781094       -0.42897128389434       -1.93247899402945
C            9.01271495911707       -1.34120752233434       -0.96286244567198
C            6.15209206223299       -3.38568161612353       -0.23650616863622
C            4.77175336961681       -3.40298532837103       -0.20363346370456
C            1.86147015142881       -1.40074894587562        0.81675819191682
C            0.48349417359705       -1.36614410595578        0.79393852429019
H           -2.16137913438492       -3.08799362822255       -0.36164428082048
H           -4.22470530957896        0.67562271134717       -1.14477550032973
H           -6.67629475515517        0.51333261458245       -1.17986688213138
H           -7.58870408577627       -1.70532565535155        2.61527435793503
H           -9.41099907319482       -2.02496104915770        4.24430843413938
H          -11.75013121135622       -2.12130302861799        3.52257974386134
H          -12.34556740774716       -1.87352580762971        1.13611955680789
H          -12.31437513806472       -1.52845831071895       -1.59732629227030
H          -11.66360636705174       -1.19119433485216       -3.95845248094381
H           -9.30456588062696       -0.99851110025220       -4.58995458720002
H           -7.51964970598134       -1.10418788777182       -2.89279785318262
H           -6.46316208507117       -3.18419053457230        0.94824885341653
H           -4.01568540299588       -3.00103016959462        1.02524055472292
H           -0.64805533411248        0.12030197089899       -1.66058748411080
H            0.24156243089406        2.41025372335405       -1.51316489900752
H            1.95826998368117        2.60692480535619        0.26944264125474
H            4.20803987429406        3.62137501708756        0.36758219720313
H            4.49210061756201        6.04779518465378        0.52392692235983
H            2.52815839539095        7.54599842983741        0.61258060219679
H           -0.01288710593647        8.61005564691748        0.65539762252202
H           -2.46015375511426        8.96089374762410        0.63984860195087
H           -3.99417276809980        7.06084410765253        0.44607919880243
H           -3.14728286663984        4.75197088358577        0.28715746728650
H           -2.18993244661531        3.13314359885497        1.92483251571620
H           -3.11607545273843        0.85960125875937        1.74533625023897
H           -0.06430173123674       -3.66734688997565       -1.61536332718355
H            2.38496555816847       -3.70762611895628       -1.59246587147375
H            4.19793741281380       -0.09678042284440        0.16148461623601
H            6.65294946554321       -0.06357598389214        0.14133965357632
H            7.76208221698756       -4.08099550069104        1.86413282925677
H            9.62539765894964       -5.21057043408583        3.01413141821455
H           11.95498961179721       -4.69947807642673        2.45383670447244
H           12.49655276541835       -3.01194418904267        0.72929768232558
H           12.40392873155494       -1.08814348923909       -1.23312776131961
H           11.70106448450691        0.57165682699977       -2.92578897148497
H            9.32582180356025        0.96491334204833       -3.37958388308162
H            7.57536136186038       -0.25833778337536       -2.15015210342529
H            6.70532831007211       -4.30419034030144       -0.36579655740052
H            4.25153938855532       -4.34628793908579       -0.28144614189279
H            2.39728754794251       -0.79079596036661        1.52982325171392
H           -0.04695094087372       -0.72902243727005        1.48568411912693

          :  Hamiltonian                  GFN2-xTB          :
         :: gradient norm              0.000066371387 Eh/a0 ::
         :: HOMO-LUMO gap              2.374999616993 eV    ::
         :: SCC energy              -165.715939644049 Eh    ::
         :: -> dispersion             -0.150110406959 Eh    ::
         :: -> Gsolv                  -0.067132065140 Eh    ::
         :: repulsion energy           3.118209829184 Eh    ::

    * Orbital Energies and Occupations

         #    Occupation            Energy/Eh            Energy/eV
      -------------------------------------------------------------
         1        2.0000           -0.6757554             -18.3882
       ...           ...                  ...                  ...
       140        2.0000           -0.4078471             -11.0981
       141        2.0000           -0.4049399             -11.0190
       142        2.0000           -0.4049154             -11.0183
       143        2.0000           -0.4045134             -11.0074
       144        2.0000           -0.4041918             -10.9986
       145        2.0000           -0.3986203             -10.8470
       146        2.0000           -0.3783547             -10.2956
       147        2.0000           -0.3782896             -10.2938
       148        2.0000           -0.3779145             -10.2836
       149        2.0000           -0.3760357             -10.2325
       150        2.0000           -0.3620687              -9.8524
       151        2.0000           -0.3615326              -9.8378
       152        2.0000           -0.3581264              -9.7451 (HOMO)
       153                         -0.2708468              -7.3701 (LUMO)
       154                         -0.2466669              -6.7121
       155                         -0.2460976              -6.6967
       156                         -0.2444388              -6.6515
       157                         -0.2396977              -6.5225
       158                         -0.2354523              -6.4070
       159                         -0.2330483              -6.3416
       160                         -0.2300102              -6.2589
       161                         -0.2299509              -6.2573
       162                         -0.2218941              -6.0380
       163                         -0.2217101              -6.0330
       ...                                ...                  ...
       301                          0.7451070              20.2754
      -------------------------------------------------------------
                  HL-Gap            0.0872796 Eh            2.3750 eV

     #   Z          covCN         q      C6AA      α(0)
     1   6 C        2.909    -0.045    29.110     8.847
     2   6 C        2.959     0.003    27.967     8.674
     3   6 C        2.978     0.010    27.800     8.649
     4   6 C        2.925    -0.031    28.779     8.798
     5   6 C        2.920    -0.043    29.059     8.840
     6   6 C        2.912     0.062    26.601     8.457
     7   7 N        2.802    -0.046    22.132     6.987
     8   6 C        3.076     0.047    26.857     8.497
     9   6 C        2.909    -0.052    29.292     8.875
    10   6 C        2.924    -0.035    28.877     8.812
    11   6 C        2.919    -0.043    29.066     8.841
    12   6 C        2.912    -0.035    28.872     8.811
    13   6 C        3.067    -0.019    28.411     8.740
    14   6 C        3.067    -0.019    28.411     8.740
    15   6 C        2.912    -0.035    28.872     8.811
    16   6 C        2.919    -0.043    29.066     8.841
    17   6 C        2.924    -0.035    28.877     8.812
    18   6 C        2.909    -0.052    29.289     8.874
    19   6 C        3.076     0.047    26.856     8.497
    20   6 C        2.920    -0.043    29.057     8.840
    21   6 C        2.924    -0.034    28.849     8.808
    22   6 C        2.977     0.015    27.674     8.629
    23   6 C        2.924    -0.030    28.747     8.793
    24   6 C        2.921    -0.042    29.054     8.839
    25   6 C        2.913     0.062    26.605     8.458
    26   7 N        2.802    -0.046    22.136     6.988
    27   6 C        3.077     0.047    26.855     8.496
    28   6 C        2.910    -0.052    29.283     8.873
    29   6 C        2.924    -0.035    28.872     8.812
    30   6 C        2.920    -0.043    29.069     8.841
    31   6 C        2.912    -0.035    28.872     8.811
    32   6 C        3.067    -0.019    28.412     8.740
    33   6 C        3.068    -0.019    28.413     8.740
    34   6 C        2.912    -0.035    28.872     8.811
    35   6 C        2.919    -0.043    29.067     8.841
    36   6 C        2.924    -0.035    28.878     8.813
    37   6 C        2.909    -0.052    29.292     8.875
    38   6 C        3.076     0.048    26.855     8.497
    39   6 C        2.920    -0.043    29.071     8.842
    40   6 C        2.924    -0.032    28.788     8.799
    41   6 C        2.971     0.016    27.660     8.627
    42   6 C        2.925    -0.037    28.911     8.818
    43   6 C        2.922    -0.035    28.878     8.813
    44   6 C        2.976     0.008    27.842     8.655
    45   6 C        2.975     0.008    27.838     8.655
    46   6 C        2.925    -0.033    28.828     8.805
    47   6 C        2.920    -0.043    29.069     8.841
    48   6 C        2.912     0.062    26.617     8.460
    49   7 N        2.802    -0.047    22.145     6.989
    50   6 C        3.075     0.048    26.853     8.496
    51   6 C        2.909    -0.052    29.293     8.875
    52   6 C        2.924    -0.035    28.880     8.813
    53   6 C        2.920    -0.043    29.069     8.841
    54   6 C        2.912    -0.035    28.875     8.811
    55   6 C        3.067    -0.019    28.414     8.741
    56   6 C        3.067    -0.019    28.414     8.741
    57   6 C        2.912    -0.035    28.875     8.811
    58   6 C        2.919    -0.043    29.068     8.841
    59   6 C        2.924    -0.035    28.880     8.813
    60   6 C        2.909    -0.052    29.291     8.874
    61   6 C        3.076     0.048    26.854     8.496
    62   6 C        2.920    -0.043    29.074     8.842
    63   6 C        2.924    -0.034    28.835     8.806
    64   6 C        2.923    -0.035    28.875     8.812
    65   6 C        2.922    -0.034    28.844     8.807
    66   1 H        0.925     0.042     2.423     2.434
    67   1 H        0.926     0.038     2.474     2.460
    68   1 H        0.926     0.041     2.437     2.441
    69   1 H        0.926     0.030     2.586     2.515
    70   1 H        0.926     0.030     2.592     2.518
    71   1 H        0.926     0.027     2.628     2.535
    72   1 H        0.926     0.029     2.596     2.520
    73   1 H        0.926     0.029     2.595     2.519
    74   1 H        0.926     0.027     2.628     2.535
    75   1 H        0.926     0.029     2.594     2.519
    76   1 H        0.926     0.030     2.589     2.516
    77   1 H        0.926     0.042     2.418     2.432
    78   1 H        0.926     0.043     2.404     2.425
    79   1 H        0.926     0.038     2.469     2.457
    80   1 H        0.926     0.041     2.433     2.439
    81   1 H        0.926     0.030     2.590     2.517
    82   1 H        0.926     0.029     2.596     2.519
    83   1 H        0.926     0.027     2.630     2.536
    84   1 H        0.926     0.029     2.600     2.522
    85   1 H        0.926     0.029     2.598     2.520
    86   1 H        0.926     0.027     2.631     2.536
    87   1 H        0.926     0.029     2.596     2.519
    88   1 H        0.926     0.030     2.590     2.517
    89   1 H        0.926     0.041     2.434     2.439
    90   1 H        0.926     0.038     2.477     2.461
    91   1 H        0.925     0.033     2.542     2.493
    92   1 H        0.926     0.034     2.531     2.488
    93   1 H        0.926     0.040     2.443     2.444
    94   1 H        0.926     0.040     2.444     2.445
    95   1 H        0.926     0.030     2.590     2.516
    96   1 H        0.926     0.029     2.595     2.519
    97   1 H        0.926     0.027     2.629     2.535
    98   1 H        0.926     0.029     2.596     2.520
    99   1 H        0.926     0.029     2.596     2.520
   100   1 H        0.926     0.027     2.629     2.536
   101   1 H        0.926     0.029     2.595     2.519
   102   1 H        0.926     0.030     2.590     2.517
   103   1 H        0.926     0.041     2.439     2.442
   104   1 H        0.926     0.041     2.433     2.439
   105   1 H        0.926     0.032     2.556     2.500
   106   1 H        0.926     0.031     2.567     2.506

molecular dipole:
                 x           y           z       tot (Debye)
 q only:       -0.380      -0.668      -0.031
   full:       -0.391      -0.665      -0.046       1.965

 projected vibrational frequencies (cm⁻¹)
eigval :       -0.00    -0.00     0.00     0.00     0.00     0.00
eigval :        6.05     8.02     8.83    10.57    12.53    14.51
eigval :       22.84    31.52    40.36    43.03    46.41    55.22
eigval :       63.86    66.29    77.30    79.81    84.64    89.64
eigval :      100.10   101.99   103.85   106.74   135.94   141.65
eigval :      143.49   144.87   147.71   155.86   164.50   167.03
eigval :      201.34   207.25   216.48   224.92   244.79   251.76
eigval :      254.02   269.69   272.16   272.52   275.19   297.70
eigval :      319.39   334.77   351.16   366.72   373.58   379.62
eigval :      380.86   383.07   385.80   388.29   393.97   394.43
eigval :      402.05   413.63   416.89   418.76   422.81   425.19
eigval :      427.68   432.60   435.96   438.57   449.52   480.53
eigval :      494.31   505.35   518.23   518.46   519.07   532.63
eigval :      534.36   535.18   539.89   540.30   542.30   543.36
eigval :      568.31   575.29   577.87   582.33   585.26   588.35
eigval :      594.40   596.98   602.25   607.81   617.00   618.05
eigval :      629.20   637.14   668.99   672.68   673.97   675.88
eigval :      677.25   684.24   697.06   700.41   702.46   705.43
eigval :      708.50   710.86   718.42   747.60   753.86   756.13
eigval :      759.44   767.45   767.65   768.08   770.76   778.41
eigval :      779.32   779.48   803.76   815.34   821.51   830.43
eigval :      851.47   856.44   864.20   865.11   865.42   870.81
eigval :      871.07   871.59   872.91   877.83   878.08   879.61
eigval :      897.00   897.08   897.28   900.07   900.41   900.91
eigval :      901.26   901.93   902.31   906.39   916.50   918.09
eigval :      919.21   919.48   920.08   920.60   921.58   924.82
eigval :      925.01   925.71   929.18   930.02   932.51   933.55
eigval :      935.20   936.79   963.75   993.82  1010.99  1011.07
eigval :     1011.35  1015.47  1020.33  1028.90  1068.16  1068.28
eigval :     1068.47  1071.77  1072.28  1072.39  1079.82  1116.00
eigval :     1116.32  1117.28  1134.21  1136.07  1136.28  1144.80
eigval :     1150.07  1150.60  1151.81  1170.02  1174.08  1176.17
eigval :     1176.45  1179.05  1180.61  1181.24  1181.78  1182.42
eigval :     1183.57  1195.77  1200.04  1203.43  1207.03  1221.86
eigval :     1234.82  1234.95  1235.21  1242.01  1243.06  1244.04
eigval :     1265.66  1267.17  1267.44  1270.99  1279.22  1296.70
eigval :     1298.35  1299.24  1300.89  1301.27  1301.78  1306.29
eigval :     1310.22  1312.97  1314.45  1319.59  1335.49  1355.22
eigval :     1355.78  1356.13  1360.28  1360.51  1360.89  1363.88
eigval :     1366.85  1369.50  1393.84  1404.31  1405.13  1412.12
eigval :     1427.01  1427.06  1427.10  1428.57  1429.26  1429.90
eigval :     1473.83  1474.28  1474.32  1476.00  1486.49  1487.13
eigval :     1487.21  1488.93  1491.52  1506.21  1549.99  1556.59
eigval :     1559.02  1563.15  1572.68  1573.11  1573.20  1582.52
eigval :     1586.89  1587.10  1587.37  1590.49  1593.10  1596.76
eigval :     1596.82  1597.27  1600.03  1612.62  1613.12  1613.26
eigval :     1629.99  3046.53  3066.10  3069.60  3069.72  3070.26
eigval :     3070.52  3070.59  3071.52  3073.60  3075.16  3075.35
eigval :     3075.85  3076.08  3076.48  3076.49  3077.11  3078.20
eigval :     3078.98  3081.18  3081.52  3082.28  3082.58  3083.30
eigval :     3083.40  3083.82  3084.23  3084.66  3086.59  3089.73
eigval :     3089.84  3090.04  3090.29  3090.85  3091.19  3091.64
eigval :     3092.10  3092.47  3093.18  3094.21  3095.03  3095.61

   temp. (K)  partition function   enthalpy   heat capacity  entropy
                                   cal/mol     cal/K/mol   cal/K/mol   J/K/mol
 298.15  VIB  0.534E+25            29991.604    191.147    188.672
         ROT  0.335E+09              888.752      2.981     41.988
         INT  0.179E+34            30880.356    194.128    230.659
         TR   0.231E+29             1481.254      4.968     45.998
         TOT                       32361.6102   199.0965   276.6575  1157.5351

       T/K    H(0)-H(T)+PV         H(T)/Eh          T*S/Eh         G(T)/Eh
   ------------------------------------------------------------------------
    298.15    0.515715E-01    0.871173E+00    0.131449E+00    0.739724E+00
   ------------------------------------------------------------------------

         :::::::::::::::::::::::::::::::::::::::::::::::::::::
         ::                  THERMODYNAMIC                  ::
         :::::::::::::::::::::::::::::::::::::::::::::::::::::
         :: total free energy        -161.858006217725 Eh   ::
         ::.................................................::
         :: total energy             -162.597729814082 Eh   ::
         :: zero point energy           0.819601005402 Eh   ::
         :: G(RRHO) w/o ZPVE           -0.079877409045 Eh   ::
         :: G(RRHO) contrib.            0.739723596357 Eh   ::
         :::::::::::::::::::::::::::::::::::::::::::::::::::::

           -------------------------------------------------
          | TOTAL ENERGY             -162.597729814082 Eh   |
          | TOTAL ENTHALPY           -161.726557300205 Eh   |
          | TOTAL FREE ENERGY        -161.858006217725 Eh   |
          | GRADIENT NORM               0.000066369350 Eh/α |
          | HOMO-LUMO GAP               2.374999636275 eV   |
           -------------------------------------------------

 * finished run on 2025/07/16 at 10:09:41.439
