   * xtb version 6.7.1 (edcfbbe) compiled by 'albert@albert-system' on 2024-07-22

   ID    Z sym.   atoms
    1    6 C      1-4, 6-29, 31-36, 38-42, 44-72
    2    7 N      5, 43
    3    5 B      30, 37
    4    1 H      73-144

          program call               : xtb data2507/gas/tBuCzDBA/tBuCzDBA_gas_S0_finalOpt.xtbopt.xyz --gfn 2 --spinpol --tblite --uhf 2 --ohess vtight --parallel 40 --molden --ceasefiles --namespace data2507/gas/tBuCzDBA/tBuCzDBA_gas_T1_preOpt
 * total energy  :  -190.7273347 Eh     change        0.1796019E-07 Eh
 * total energy  :  -190.7295175 Eh     change       -0.2182830E-02 Eh
 * total energy  :  -190.7299798 Eh     change       -0.4622513E-03 Eh
 * total energy  :  -190.7300239 Eh     change       -0.4419098E-04 Eh
 * total energy  :  -190.7300594 Eh     change       -0.3548504E-04 Eh
 * total energy  :  -190.7300711 Eh     change       -0.1171482E-04 Eh
 * total energy  :  -190.7300832 Eh     change       -0.1209905E-04 Eh
 * total energy  :  -190.7300907 Eh     change       -0.7486916E-05 Eh
 * total energy  :  -190.7300942 Eh     change       -0.3488351E-05 Eh
 * total energy  :  -190.7300978 Eh     change       -0.3587135E-05 Eh
 * total energy  :  -190.7301131 Eh     change       -0.1028897E-05 Eh
 * total energy  :  -190.7301140 Eh     change       -0.9359015E-06 Eh
 * total energy  :  -190.7301149 Eh     change       -0.8742157E-06 Eh
 * total energy  :  -190.7301155 Eh     change       -0.6082095E-06 Eh
 * total energy  :  -190.7301160 Eh     change       -0.5472532E-06 Eh
 * total energy  :  -190.7301162 Eh     change       -0.1865669E-06 Eh
 * total energy  :  -190.7301164 Eh     change       -0.2333711E-06 Eh
 * total energy  :  -190.7301170 Eh     change       -0.5235675E-06 Eh
 * total energy  :  -190.7301171 Eh     change       -0.9074620E-07 Eh
   *** GEOMETRY OPTIMIZATION CONVERGED AFTER 24 ITERATIONS ***

 final structure:
================
144
 xtb: 6.7.1 (edcfbbe)
C           -2.97691530141621       -1.49986686207606        1.88616505642366
C           -3.76166656777029       -0.69592350440294        0.89344963156118
C           -5.14408211001580       -0.71616297930074        0.92040059432639
C           -5.87766187086074        0.03605445760340        0.00707968545846
N           -7.27624747049916        0.01116550116315        0.03815499987902
C           -8.06301841023679       -1.12033259508973        0.09982855455647
C           -7.70669794854946       -2.46080848922400        0.08373880950129
C           -8.71674528235517       -3.39987192894571        0.12515862635696
C          -10.07479395508728       -3.05697797580875        0.17229153708544
C          -11.11138130419786       -4.16939453166310        0.22385943325037
C          -10.87290414132670       -5.02118277479537        1.47885165654339
C          -10.97618427070640       -5.04307561833112       -1.03141585441468
C          -12.54555126824983       -3.63577866155789        0.27875743583332
C          -10.41973070321713       -1.71401745169946        0.15858916053314
C           -9.42446470105630       -0.74828240052983        0.11846415210461
C           -9.45272942823263        0.68886033859213        0.07249363941070
C          -10.48447997684212        1.61618944525233        0.08796411231537
C          -10.19182574650228        2.97126311446911        0.05935450699368
C          -11.27118490835252        4.04343832662391        0.06862973884178
C          -12.68493942339036        3.45558609941031        0.08816695937949
C          -11.10178194427990        4.91774070296620        1.31933329235192
C          -11.13333773361054        4.90755854600659       -1.19296268760332
C           -8.84714974206595        3.36531052457720        0.03367995273340
C           -7.80151345978862        2.46514906772003        0.01854185835607
C           -8.10716300222474        1.11215218454057        0.01947299778885
C           -5.20960367741303        0.81143349756589       -0.93654073711357
C           -3.82709356274384        0.83474381384778       -0.97068749323805
C           -3.11192362696540        1.66159686865862       -1.99664637287960
C           -3.07641810913050        0.08044267415775       -0.05493173409949
B           -1.50925933575398        0.09900917738861       -0.08566242442649
C           -0.70183923152608        1.15677320306150        0.68167015617381
C           -1.37777308945307        2.15264701321451        1.41169445566155
C           -0.68757184108935        3.11636075082084        2.10457243116441
C            0.70924812101004        3.11736045929765        2.09647321357078
C            1.39269907213273        2.15378526260166        1.39675740733899
C            0.70965676879832        1.15575739007403        0.67636519855221
B            1.50987565908540        0.09288623553537       -0.09140263659576
C            3.07694060080349        0.06747610501570       -0.06476579376873
C            3.82889649785600        0.75845273153106       -1.02816073769490
C            3.11473481240149        1.52449332918725       -2.10094307338707
C            5.21134185371984        0.72797591479473       -0.99764958304851
C            5.87833047558708        0.01089016667950       -0.00816983427433
N            7.27661348033620       -0.01997148952226        0.02111329280821
C            8.11412252151279        1.07198498232972       -0.07690866363522
C            7.81709970216244        2.42336751564413       -0.17511797164789
C            8.86837231754841        3.31560751346644       -0.22690867181391
C           10.21060557267666        2.91607075969557       -0.17444184567793
C           11.29669669627484        3.97899531114691       -0.24642792045962
C           12.70670487402502        3.38528020935407       -0.18296519988960
C           11.16299951897348        4.74575481480497       -1.56989378099828
C           11.13409000029691        4.94672283495387        0.93440572248874
C           10.49473956353234        1.56490179156814       -0.04684365425684
C            9.45716981841869        0.64553298538426        0.00616632793646
C            9.42046767047009       -0.78423063000987        0.15674129076037
C           10.41026919411506       -1.74985773110382        0.26900077875095
C           10.05778685590045       -3.08623377574896        0.38107218209386
C           11.08790284149584       -4.19735807654532        0.51826295366540
C           12.52482213263002       -3.66876615544453        0.53939677178882
C           10.95215136927470       -5.16056426577407       -0.66960551014196
C           10.84021745470040       -4.95288015468122        1.83178020087196
C            8.69794288147037       -3.42413801381119        0.35558119756402
C            7.69326092957480       -2.48502761047839        0.24391599377012
C            8.05690861042237       -1.14875885519673        0.16423143844973
C            5.14323882235804       -0.67693412185805        0.95358792664539
C            3.76094659382015       -0.65181906805616        0.92844612362478
C            2.97475898470627       -1.38756943122508        1.97159050784868
C            0.70249860685784       -0.95555028381853       -0.87148386323342
C            1.37865011400322       -1.95009768220927       -1.60312584860678
C            0.68856541085861       -2.90270350382034       -2.31131490223521
C           -0.70825915659642       -2.89617116051573       -2.31367602910715
C           -1.39182060577054       -1.93793982622679       -1.60674626522744
C           -0.70897894822186       -0.95091262076050       -0.87114372472423
H           -2.36166111166119       -2.23503867130270        1.36887892212668
H           -3.63446422565614       -2.01657319325854        2.58166423194343
H           -2.30542960758180       -0.85174912579178        2.44720363999679
H           -5.66629604430295       -1.29484345848202        1.66896444765218
H           -6.67304999912874       -2.76660015667336        0.02789668108055
H           -8.43456847223153       -4.44159601736273        0.11562692499968
H          -10.94747081573238       -4.40337572188047        2.37146969609360
H          -11.61798127555346       -5.81155795978826        1.54262740119282
H           -9.88932266326700       -5.48219605134541        1.46544038672880
H          -11.12074284309424       -4.44021941431264       -1.92563073969692
H           -9.99553190991982       -5.50691125288898       -1.08908655960545
H          -11.72557112949366       -5.83188806787617       -1.02150948846939
H          -12.78008161702258       -3.05133016533857       -0.60791992978829
H          -13.24149643188955       -4.47123778037392        0.32307597359549
H          -12.70107881477031       -3.02229463579409        1.16323700592592
H          -11.44845469977540       -1.39484522644764        0.17309727450991
H          -11.49966538936661        1.25822036167998        0.12801719146085
H          -12.84932388791864        2.86064526587726        0.98360214040249
H          -12.86418753809779        2.83858630063159       -0.78935355858633
H          -13.41349676691874        4.26397260725206        0.08470083102932
H          -11.87978244200421        5.67763769596733        1.35365262684014
H          -10.13755213450380        5.41811121908247        1.32676531789774
H          -11.17530325186210        4.30705029737349        2.21689797872317
H          -11.91061080050171        5.66871413933579       -1.21270337445457
H          -11.23195182720741        4.29002377051156       -2.08342651712429
H          -10.16895576815872        5.40628487617961       -1.22991288879459
H           -8.60449279340256        4.41698548199933        0.03040511625562
H           -6.77866534379334        2.80986365526322        0.01925466822895
H           -5.78233770215713        1.37308581098022       -1.66074914957931
H           -2.45016911970894        1.03283015705768       -2.59038639545831
H           -3.81497427998218        2.16128585783971       -2.65930196412610
H           -2.49308245462379        2.41235864147633       -1.50679496376229
H           -2.45956174162844        2.15135042343445        1.42124007293778
H           -1.22424764552968        3.87452693458621        2.65818258307047
H            1.25126167569796        3.87646390018243        2.64355493196159
H            2.47453713476943        2.15370864216302        1.39400650756075
H            3.81859163071358        2.00004058470353       -2.78030030113013
H            2.46795806630894        0.85858075543807       -2.67032165145343
H            2.48067565541399        2.28964192371540       -1.65492754922249
H            5.78449756681203        1.23802783940456       -1.75871708218635
H            6.79660152909031        2.77418473047500       -0.19759390920664
H            8.63217387773103        4.36574615507956       -0.30652202461587
H           12.88160358952267        2.70306576249146       -1.01172807828164
H           13.44036047036902        4.18648137154182       -0.24715249051575
H           12.86776563655246        2.85815927491065        0.75458134249439
H           10.20139127223739        5.24567808494812       -1.64430892462103
H           11.25750413292286        4.06190671903133       -2.41098204950068
H           11.94458632945730        5.49874788787384       -1.64748563664787
H           11.20394912838253        4.40534601976649        1.87567631993752
H           11.91737475455162        5.70158406679125        0.91091545013433
H           10.17342185353048        5.45302126304913        0.90399914108104
H           11.50768309429562        1.20432475144122        0.01849149893825
H           11.44074194318472       -1.43613974503058        0.26165167703872
H           13.21589302772952       -4.50232775622515        0.64842809866807
H           12.68041169997538       -2.99222767695301        1.37662508361682
H           12.76600372849851       -3.15291837081003       -0.38715937199999
H           11.10368068729586       -4.62625362161016       -1.60528750083742
H            9.96893382265543       -5.62175400055131       -0.69693346487496
H           11.69673775504736       -5.95076208508172       -0.59832545175071
H            9.85428937126449       -5.40874441550733        1.84843725138089
H           11.58087625703392       -5.74007150692087        1.95686886588344
H           10.91469387662220       -4.27116523386489        2.67660700346299
H            8.40985124056382       -4.46222769305332        0.42099269477031
H            6.65815936201251       -2.78879338947496        0.20769043604887
H            5.66434583835504       -1.20866085977865        1.73689499132293
H            2.32877502678313       -2.12715666886807        1.50031893336959
H            3.63179633146605       -1.89017343034510        2.67782473429155
H            2.33325190703120       -0.69571106906495        2.51539474358212
H            2.46047799750254       -1.95585618463932       -1.60276201939767
H            1.22536424860013       -3.65795275620951       -2.86878139273757
H           -1.25018346525594       -3.64619373812432       -2.87323902033538
H           -2.47365005824135       -1.93374914268554       -1.60983913056041

 projected vibrational frequencies (cm⁻¹)
eigval :       -0.00    -0.00    -0.00     0.00     0.00     0.00
eigval :        2.31     4.42     5.44    10.84    12.55    19.34
eigval :       26.23    30.81    30.94    32.85    32.86    37.14
eigval :       37.71    37.89    42.64    51.85    52.03    55.55
eigval :       64.67    67.07    74.10    83.19    86.00    86.80
eigval :       86.93    87.31    91.63    95.52    99.32   107.59
eigval :      110.02   111.74   118.02   122.17   136.98   158.94
eigval :      159.00   170.46   172.46   175.92   178.73   180.00
eigval :      193.12   200.78   200.90   203.68   203.89   204.20
eigval :      211.44   218.36   218.95   219.32   221.14   226.36
eigval :      226.61   226.68   228.68   231.43   234.33   259.16
eigval :      259.22   269.81   279.33   280.35   300.37   305.23
eigval :      309.24   317.38   317.71   319.96   321.03   322.30
eigval :      323.04   327.95   337.39   340.04   340.81   341.02
eigval :      355.64   359.37   359.59   362.98   363.09   367.05
eigval :      378.75   379.74   397.61   398.70   399.26   409.15
eigval :      410.09   415.88   418.15   440.78   441.04   442.22
eigval :      442.32   448.79   449.83   453.50   463.71   465.20
eigval :      465.77   466.17   478.37   480.86   495.79   496.00
eigval :      496.06   498.12   512.84   518.88   529.56   539.16
eigval :      541.35   544.46   549.24   563.31   573.26   578.22
eigval :      586.43   586.49   589.52   591.14   597.67   601.26
eigval :      625.84   635.99   638.15   640.52   640.54   649.76
eigval :      671.95   681.26   689.64   689.83   690.81   694.90
eigval :      699.07   700.79   709.08   709.33   719.96   720.20
eigval :      754.17   759.62   805.07   808.52   821.64   821.66
eigval :      824.02   824.07   835.60   836.18   855.07   855.53
eigval :      856.79   863.03   868.85   868.98   872.81   873.35
eigval :      873.47   875.25   878.18   881.71   886.66   890.77
eigval :      891.83   906.92   907.42   908.95   916.38   916.67
eigval :      916.75   916.84   917.79   918.04   924.77   924.87
eigval :      932.75   933.25   960.18   960.20   960.26   960.27
eigval :      962.75   962.75   963.01   963.02   963.04   963.04
eigval :      963.16   963.19   985.07   985.38   998.22   998.25
eigval :     1026.70  1027.13  1031.78  1031.81  1031.88  1032.23
eigval :     1034.32  1034.97  1035.40  1035.40  1035.43  1035.43
eigval :     1040.52  1042.48  1042.51  1046.85  1048.55  1048.68
eigval :     1052.55  1086.56  1088.27  1099.31  1110.58  1118.37
eigval :     1128.20  1129.68  1129.78  1140.82  1148.10  1157.56
eigval :     1161.96  1162.58  1172.37  1172.48  1178.22  1178.37
eigval :     1185.76  1190.49  1218.06  1218.60  1218.74  1227.50
eigval :     1227.50  1227.59  1227.60  1228.67  1230.50  1231.95
eigval :     1231.98  1233.78  1236.04  1236.45  1236.54  1237.74
eigval :     1245.14  1246.36  1254.43  1255.66  1281.23  1282.65
eigval :     1283.73  1283.74  1304.30  1304.46  1311.82  1311.95
eigval :     1312.99  1313.04  1329.75  1333.38  1348.38  1349.37
eigval :     1351.62  1351.69  1352.93  1372.06  1377.45  1378.05
eigval :     1400.50  1402.03  1402.07  1404.17  1404.49  1404.50
eigval :     1404.61  1405.12  1405.70  1405.76  1405.78  1405.81
eigval :     1406.01  1411.43  1411.50  1428.44  1428.45  1428.55
eigval :     1428.70  1430.48  1432.44  1434.45  1435.13  1436.07
eigval :     1461.52  1462.50  1472.12  1472.29  1472.45  1472.74
eigval :     1474.56  1474.61  1483.30  1483.35  1485.79  1487.27
eigval :     1488.14  1488.86  1492.06  1492.07  1492.09  1492.10
eigval :     1494.57  1494.58  1494.61  1494.62  1501.14  1501.19
eigval :     1501.21  1501.22  1505.39  1505.41  1505.41  1505.45
eigval :     1509.18  1514.76  1514.80  1514.98  1515.01  1520.03
eigval :     1520.09  1520.74  1520.92  1521.24  1531.83  1532.31
eigval :     1536.40  1540.98  1566.67  1566.73  1574.88  1576.86
eigval :     1582.28  1583.50  1593.76  1593.77  1610.01  1612.16
eigval :     3007.29  3007.43  3007.60  3007.84  3021.15  3021.17
eigval :     3021.28  3021.30  3022.22  3022.61  3022.74  3022.76
eigval :     3022.77  3022.79  3023.17  3023.54  3026.89  3026.90
eigval :     3026.92  3026.92  3029.46  3029.49  3029.57  3029.89
eigval :     3030.94  3030.95  3030.96  3031.03  3033.84  3033.90
eigval :     3034.24  3034.36  3035.39  3035.40  3035.63  3035.64
eigval :     3037.98  3037.99  3038.14  3038.28  3047.65  3047.66
eigval :     3047.67  3047.69  3049.32  3049.45  3050.88  3050.89
eigval :     3051.00  3051.01  3052.58  3052.68  3061.39  3061.80
eigval :     3070.20  3070.37  3074.54  3074.90  3075.34  3075.71
eigval :     3083.57  3083.68  3083.69  3083.84  3094.92  3095.01
eigval :     3095.37  3095.56  3115.21  3115.27  3118.74  3118.92

   temp. (K)  partition function   enthalpy   heat capacity  entropy
                                   cal/mol     cal/K/mol   cal/K/mol   J/K/mol
 298.15  VIB  0.803E+36            43176.051    257.814    275.033
         ROT  0.449E+09              888.752      2.981     42.571
         INT  0.360E+45            44064.804    260.795    317.604
         TR   0.278E+29             1481.254      4.968     46.373
         TOT                       45546.0576   265.7635   363.9769  1522.8793

       T/K    H(0)-H(T)+PV         H(T)/Eh          T*S/Eh         G(T)/Eh
   ------------------------------------------------------------------------
    298.15    0.725823E-01    0.126704E+01    0.172937E+00    0.109411E+01
   ------------------------------------------------------------------------

         :::::::::::::::::::::::::::::::::::::::::::::::::::::
         ::                  THERMODYNAMIC                  ::
         :::::::::::::::::::::::::::::::::::::::::::::::::::::
         :: total free energy        -189.636010104918 Eh   ::
         ::.................................................::
         :: total energy             -190.730117181934 Eh   ::
         :: zero point energy           1.194461978972 Eh   ::
         :: G(RRHO) w/o ZPVE           -0.100354901956 Eh   ::
         :: G(RRHO) contrib.            1.094107077016 Eh   ::
         :::::::::::::::::::::::::::::::::::::::::::::::::::::

           -------------------------------------------------
          | TOTAL ENERGY             -190.730117181934 Eh   |
          | TOTAL ENTHALPY           -189.463072940181 Eh   |
          | TOTAL FREE ENERGY        -189.636010104918 Eh   |
          | GRADIENT NORM               0.000100439555 Eh/α |
           -------------------------------------------------

 * finished run on 2025/08/23 at 07:18:24.867
