   * xtb version 6.7.1 (edcfbbe) compiled by 'albert@albert-system' on 2024-07-22

   ID    Z sym.   atoms
    1    6 C      1-4, 6-29, 31-36, 38-42, 44-72
    2    7 N      5, 43
    3    5 B      30, 37
    4    1 H      73-144

          program call               : xtb data2507/gas/tBuCzDBA/tBuCzDBA_gas_T1_crest.xyz --gfn 2 --spinpol --tblite --uhf 2 --ohess vtight --parallel 40 --molden --ceasefiles --namespace data2507/gas/tBuCzDBA/tBuCzDBA_gas_T1_finalOpt
 * total energy  :  -190.7301057 Eh     change       -0.1957522E-07 Eh
 * total energy  :  -190.7301128 Eh     change       -0.7092783E-05 Eh
 * total energy  :  -190.7301158 Eh     change       -0.3009075E-05 Eh
 * total energy  :  -190.7301170 Eh     change       -0.1170576E-05 Eh
 * total energy  :  -190.7301181 Eh     change       -0.1139202E-05 Eh
 * total energy  :  -190.7301194 Eh     change       -0.1330804E-05 Eh
 * total energy  :  -190.7301205 Eh     change       -0.1102212E-05 Eh
 * total energy  :  -190.7301210 Eh     change       -0.4784711E-06 Eh
 * total energy  :  -190.7301223 Eh     change       -0.1231094E-05 Eh
 * total energy  :  -190.7301242 Eh     change       -0.1906298E-05 Eh
 * total energy  :  -190.7301391 Eh     change       -0.3054244E-06 Eh
 * total energy  :  -190.7301389 Eh     change        0.1840326E-06 Eh
 * total energy  :  -190.7301391 Eh     change       -0.1529555E-06 Eh
 * total energy  :  -190.7301394 Eh     change       -0.3253480E-06 Eh
 * total energy  :  -190.7301396 Eh     change       -0.2304327E-06 Eh
 * total energy  :  -190.7301400 Eh     change       -0.3400092E-06 Eh
 * total energy  :  -190.7301402 Eh     change       -0.2148063E-06 Eh
 * total energy  :  -190.7301403 Eh     change       -0.1311889E-06 Eh
 * total energy  :  -190.7301404 Eh     change       -0.8027467E-07 Eh
   *** GEOMETRY OPTIMIZATION CONVERGED AFTER 37 ITERATIONS ***

 final structure:
================
144
 xtb: 6.7.1 (edcfbbe)
C           -3.00560176528876       -1.51059084981804        1.92225396184262
C           -3.77614888721151       -0.70945690387354        0.91625381079162
C           -5.15883168080025       -0.72923758707561        0.92297693736903
C           -5.87869227888895        0.01807830543049       -0.00526237022832
N           -7.27746767838283       -0.00956897160717        0.00242146514034
C           -8.06248034085405       -1.14274465320816        0.05758167093725
C           -7.70266458127682       -2.48238667834701        0.05779823135574
C           -8.71096615104905       -3.42377966556786        0.08701144004859
C          -10.07049221306884       -3.08416506002091        0.10629323401778
C          -11.10501540647431       -4.19896563657993        0.14610150184320
C          -10.88702947385794       -5.04278578164835        1.41016300028049
C          -10.94498670213950       -5.07962777202734       -1.10136457487237
C          -12.54126196673806       -3.66877361810792        0.17214719336005
C          -10.41842289134602       -1.74224465376839        0.07605427869716
C           -9.42496670964584       -0.77422599174088        0.04744815126398
C           -9.45601398109303        0.66243426207601       -0.01080972350807
C          -10.49037198287473        1.58689286721871       -0.02372727963160
C          -10.20090153948679        2.94250522460888       -0.05873941678917
C          -11.28309172914762        4.01162850954142       -0.08077303010756
C          -12.69538619790273        3.41996099038999       -0.08173484677502
C          -11.13968466993861        4.89928579759713        1.16376206902237
C          -11.12377383850325        4.86313527217332       -1.34840065404431
C           -8.85704562181982        3.34009327014047       -0.06131102452079
C           -7.80888792330768        2.44282579967446       -0.04774154283649
C           -8.11076410591973        1.08898275602747       -0.04126044819912
C           -5.19652291667863        0.79036721942480       -0.94139482573957
C           -3.81375228653167        0.81475307118024       -0.95394973120176
C           -3.08282358213685        1.63899630543724       -1.97081644256619
C           -3.07691279071538        0.06297317334249       -0.02495896610088
B           -1.50957726204817        0.07833678253012       -0.03870864710896
C           -0.70640711412675        1.12053360925448        0.75376246465821
C           -1.38641075857728        2.09826769158605        1.50423363087494
C           -0.70004440217449        3.04617267949416        2.22227046659906
C            0.69680648016606        3.05038487455871        2.21768805054874
C            1.38412851788221        2.10606073428950        1.49587132856269
C            0.70509563853326        1.12338275752032        0.75097174404213
B            1.50941027651546        0.08180285427237       -0.04110265196360
C            3.07678729708818        0.07008182985376       -0.02914932076650
C            3.81086035859956        0.78255745178448       -0.99072220058326
C            3.07692113424239        1.56031233050635       -2.04148555854641
C            5.19367427495093        0.76174653711368       -0.97884374298749
C            5.87880169355934        0.03381375757759       -0.00983917028312
N            7.27758756261467        0.01205127026675       -0.00129841317322
C            8.10596144884651        1.11102264428939       -0.09808422558751
C            7.79797178705134        2.46165232272355       -0.16915378300167
C            8.84200979387817        3.36186590192529       -0.22786308139090
C           10.18764005320128        2.97083045753884       -0.20867668228466
C           11.26478820135240        4.04242554223409       -0.28649053996339
C           12.67980912084400        3.45781818184834       -0.26261279290089
C           11.09790460800400        4.82949668831356       -1.59418130616576
C           11.12068474482581        4.98985198915277        0.91306913667866
C           10.48328796432615        1.61990036982573       -0.10726617915652
C            9.45312590739553        0.69256596029759       -0.04767513607174
C            9.42859842975117       -0.73962734519974        0.08109073441751
C           10.42655235454206       -1.70029474307180        0.15881569539153
C           10.08490896251721       -3.04064601187099        0.25609324700074
C           11.12452622598530       -4.14700443086819        0.35500787353276
C           12.55824653345657       -3.60939073912203        0.35616151643009
C           10.97120464819772       -5.09198747162801       -0.84531461823772
C           10.90780171659805       -4.92512820796742        1.66077954330534
C            8.72703101782530       -3.38726119616475        0.25161048273588
C            7.71436766904880       -2.45328100581870        0.17441266610181
C            8.06780765822307       -1.11352279830039        0.10888631978319
C            5.16162429889862       -0.67409828639874        0.95083851403113
C            3.77889404847626       -0.65922636706451        0.94380199854271
C            3.01120779633152       -1.41777947915249        1.98440372600002
C            0.70620671954319       -0.95690720658420       -0.83836064559414
C            1.38629429874899       -1.93662765801130       -1.58620319921671
C            0.70003494098258       -2.88051545948783       -2.30958484985345
C           -0.69680093931522       -2.87948313281031       -2.31192504885228
C           -1.38412972670120       -1.93516431288921       -1.59011120388501
C           -0.70519631179762       -0.95726690028183       -0.83886754259872
H           -2.38327292339762       -2.24710812194544        1.41539349688075
H           -3.67273673079739       -2.02546071000908        2.60992194147348
H           -2.34187557380781       -0.86110588919622        2.49084150796724
H           -5.69216207423748       -1.30449647949776        1.66630853205136
H           -6.66747361113059       -2.78604853398626        0.02330523839649
H           -8.42601801025700       -4.46478747426697        0.09007520762820
H          -11.63064372692456       -5.83522695888857        1.46466732779990
H           -9.90193370663538       -5.50067746376518        1.41763537197879
H          -10.98008699601826       -4.42017166954402        2.29768533343838
H          -11.07499000542372       -4.48241659558017       -2.00158306642968
H           -9.96221851876738       -5.54108097029658       -1.13862069233015
H          -11.69236539449036       -5.87040272867594       -1.10028138542482
H          -12.76155748725063       -3.09059381110447       -0.72225339469061
H          -13.23575402242953       -4.50578240010697        0.20946356398156
H          -12.71395521812446       -3.05009352825155        1.04980282385395
H          -11.44803538235005       -1.42570436836897        0.06864020865143
H          -11.50518096418041        1.22637932205502       -0.00052847096889
H          -12.87465860438027        2.83298501927728        0.81609724562663
H          -12.85682206448053        2.79425436487774       -0.95654471868864
H          -13.42587574996769        4.22623293297784       -0.10625867441004
H          -11.92047045460251        5.65700221861457        1.17567569066149
H          -10.17730654230745        5.40283992882581        1.18401819697628
H          -11.22815034884547        4.29763712233780        2.06606634347200
H          -11.90124859376353        5.62323171248886       -1.38947472481766
H          -11.20616882637060        4.23657901839935       -2.23419512975920
H          -10.15929379803043        5.36241908559620       -1.37340126207673
H           -8.61713488075544        4.39237664410085       -0.06928779128325
H           -6.78726410099298        2.79065820189563       -0.02972496568791
H           -5.75826290779812        1.34829018729020       -1.67697743855881
H           -2.41986291716070        1.00691056031341       -2.55971848167821
H           -3.77566706338524        2.14527294460816       -2.63918001661237
H           -2.46337630811523        2.38385467764003       -1.47283047298381
H           -2.46823820423742        2.09504933248879        1.50995212671424
H           -1.23982518794334        3.78955121126048        2.79265752708080
H            1.23585831600625        3.79712104248130        2.78436299968613
H            2.46597487332617        2.10918421587405        1.49465667296477
H            3.76813477349744        2.05463239796731       -2.72040627593719
H            2.43001440509655        0.89812660154684       -2.61505974412776
H            2.44074443579571        2.31112798250552       -1.57463343223405
H            5.75315608531107        1.28767010191787       -1.73927854414815
H            6.77487633530897        2.80554851500001       -0.16591921414996
H            8.59729837889837        4.41144910060254       -0.28622861467041
H           12.84140269450087        2.78996764528411       -1.10565870588214
H           13.40646954764098        4.26512617640072       -0.32978131606253
H           12.86460361410417        2.91718291693154        0.66277383480310
H           10.13094834600242        5.32238683210623       -1.64099953997171
H           11.18091573237752        4.16030995211602       -2.44817236888319
H           11.87155593128469        5.59029446918159       -1.67508573004543
H           11.21394825503401        4.43388916382897        1.84374654438024
H           11.89824942207694        5.75046292659087        0.88544818229880
H           10.15621995090654        5.48980887559256        0.91099964675084
H           11.49975990765414        1.26552765310258       -0.06774721443634
H           11.45467477318769       -1.37961178790724        0.13668407761838
H           13.25655044799933       -4.44004620251138        0.43786833982613
H           12.72632583069718       -2.94542872236633        1.20100808471715
H           12.77761805259549       -3.07710334245696       -0.56650892151107
H           11.10067230985205       -4.54180758962613       -1.77509234345273
H            9.99058318789328       -5.55921850717640       -0.86057558977247
H           11.72204177510231       -5.87826570185354       -0.80155215437242
H            9.92504798129665       -5.38718287960605        1.68985863418385
H           11.65534816257786       -5.70973046034893        1.75808592879847
H           10.99543603570908       -4.25673169409982        2.51492975893746
H            8.44694020164994       -4.42817164609298        0.30602861240607
H            6.68073696060941       -2.76339077630521        0.15333475895249
H            5.69691062585638       -1.21405086274038        1.71881035664033
H            3.68049273762416       -1.92561290105729        2.67521319968631
H            2.37004642805799       -0.74009247906040        2.54614699443419
H            2.36615556979720       -2.15552300134983        1.50893351272184
H            2.46813499226427       -1.93798131862721       -1.58595116106832
H            1.23995206724620       -3.62466479772216       -2.87883204612629
H           -1.23585391571121       -3.62276429095414       -2.88313071914100
H           -2.46596776998352       -1.93518737395622       -1.59323021285377

 projected vibrational frequencies (cm⁻¹)
eigval :       -0.00    -0.00    -0.00     0.00     0.00     0.00
eigval :        2.85     4.49     5.33     9.50    12.53    19.27
eigval :       26.15    30.78    30.90    32.49    32.81    36.59
eigval :       37.19    37.62    42.61    51.93    52.43    55.27
eigval :       63.92    67.34    75.90    83.44    86.40    86.66
eigval :       87.01    87.15    91.26    96.71    99.15   107.69
eigval :      109.99   111.28   118.03   122.10   132.83   158.80
eigval :      158.84   170.38   172.31   175.70   178.72   180.12
eigval :      192.97   200.73   200.82   203.65   203.92   204.20
eigval :      211.68   218.85   219.26   219.71   221.05   226.49
eigval :      226.57   228.59   229.71   232.74   234.17   258.93
eigval :      259.27   269.82   279.35   280.38   300.63   305.23
eigval :      309.23   317.29   317.64   320.00   320.94   322.16
eigval :      323.02   327.61   337.27   339.77   340.02   341.02
eigval :      356.06   359.53   359.63   362.72   363.11   366.83
eigval :      378.71   379.75   397.40   398.70   399.23   409.94
eigval :      410.12   415.81   417.45   440.75   441.00   442.26
eigval :      442.37   448.72   449.81   453.48   463.66   465.23
eigval :      465.90   466.02   478.33   480.95   495.46   495.90
eigval :      496.09   498.03   512.74   518.82   529.37   539.46
eigval :      541.36   544.36   549.19   563.19   573.47   578.17
eigval :      586.26   586.50   589.49   591.09   597.68   601.27
eigval :      626.01   635.99   638.18   640.51   640.53   649.76
eigval :      671.61   681.27   689.65   689.83   690.83   694.85
eigval :      699.06   700.73   708.88   709.10   719.95   720.19
eigval :      753.95   759.40   805.34   808.48   821.50   821.52
eigval :      823.90   824.06   835.45   836.27   855.02   855.43
eigval :      856.62   862.88   868.64   868.76   872.78   873.32
eigval :      873.42   875.14   878.13   881.39   886.54   890.75
eigval :      891.69   906.78   907.28   908.94   916.26   916.61
eigval :      916.63   916.71   917.67   917.86   924.76   924.86
eigval :      932.99   933.07   960.08   960.11   960.16   960.18
eigval :      962.69   962.69   962.91   962.92   962.94   962.95
eigval :      963.11   963.12   985.33   985.59   997.97   998.52
eigval :     1026.72  1027.17  1031.72  1031.78  1031.80  1032.28
eigval :     1034.77  1034.94  1035.22  1035.23  1035.26  1035.26
eigval :     1041.01  1042.54  1042.58  1046.86  1048.57  1048.69
eigval :     1052.38  1086.52  1088.27  1099.34  1111.15  1117.66
eigval :     1127.78  1129.59  1129.62  1140.53  1148.51  1157.56
eigval :     1161.76  1162.66  1172.27  1172.28  1178.01  1178.18
eigval :     1185.88  1190.34  1218.24  1218.39  1220.14  1227.45
eigval :     1227.46  1227.54  1227.55  1228.54  1230.30  1231.86
eigval :     1231.88  1233.82  1236.05  1236.33  1236.37  1237.71
eigval :     1244.11  1246.00  1254.28  1256.27  1281.15  1282.41
eigval :     1283.40  1283.49  1304.37  1304.41  1311.62  1312.33
eigval :     1312.95  1312.97  1329.94  1333.69  1347.91  1349.36
eigval :     1351.51  1351.60  1352.68  1371.49  1377.97  1378.84
eigval :     1400.37  1401.91  1401.95  1404.14  1404.34  1404.40
eigval :     1404.46  1405.13  1405.50  1405.59  1405.60  1405.64
eigval :     1406.03  1411.36  1411.45  1428.04  1428.05  1428.12
eigval :     1428.16  1429.87  1430.99  1434.48  1435.14  1436.99
eigval :     1461.62  1462.73  1472.03  1472.18  1472.41  1472.66
eigval :     1474.31  1474.36  1483.05  1483.27  1485.71  1487.33
eigval :     1487.95  1488.93  1491.83  1491.83  1491.85  1491.86
eigval :     1494.07  1494.09  1494.12  1494.12  1500.81  1500.82
eigval :     1500.85  1500.86  1505.14  1505.15  1505.15  1505.17
eigval :     1509.24  1514.46  1514.50  1514.68  1514.70  1519.90
eigval :     1519.91  1520.61  1520.72  1520.92  1531.85  1532.31
eigval :     1536.37  1541.45  1566.63  1566.66  1575.13  1576.75
eigval :     1581.87  1583.64  1593.73  1593.73  1609.95  1611.81
eigval :     3007.22  3007.45  3007.62  3007.84  3021.17  3021.19
eigval :     3021.30  3021.32  3022.32  3022.59  3022.70  3022.74
eigval :     3022.74  3022.77  3022.77  3023.61  3026.90  3026.91
eigval :     3026.93  3026.93  3029.45  3029.48  3029.62  3029.89
eigval :     3030.94  3030.95  3030.99  3031.04  3033.92  3034.00
eigval :     3034.28  3034.42  3035.39  3035.41  3035.63  3035.65
eigval :     3038.01  3038.03  3038.19  3038.32  3047.53  3047.54
eigval :     3047.55  3047.56  3049.23  3049.43  3050.83  3050.85
eigval :     3050.90  3050.95  3052.55  3052.70  3061.35  3061.44
eigval :     3069.96  3070.37  3074.51  3074.68  3075.19  3075.47
eigval :     3083.67  3083.73  3083.83  3083.89  3095.11  3095.18
eigval :     3095.47  3095.68  3115.32  3115.37  3118.85  3119.08

   temp. (K)  partition function   enthalpy   heat capacity  entropy
                                   cal/mol     cal/K/mol   cal/K/mol   J/K/mol
 298.15  VIB  0.778E+36            43180.457    257.804    274.970
         ROT  0.449E+09              888.752      2.981     42.571
         INT  0.349E+45            44069.209    260.785    317.541
         TR   0.278E+29             1481.254      4.968     46.373
         TOT                       45550.4633   265.7534   363.9139  1522.6156

       T/K    H(0)-H(T)+PV         H(T)/Eh          T*S/Eh         G(T)/Eh
   ------------------------------------------------------------------------
    298.15    0.725893E-01    0.126700E+01    0.172907E+00    0.109409E+01
   ------------------------------------------------------------------------

         :::::::::::::::::::::::::::::::::::::::::::::::::::::
         ::                  THERMODYNAMIC                  ::
         :::::::::::::::::::::::::::::::::::::::::::::::::::::
         :: total free energy        -189.636050435185 Eh   ::
         ::.................................................::
         :: total energy             -190.730140412461 Eh   ::
         :: zero point energy           1.194407914429 Eh   ::
         :: G(RRHO) w/o ZPVE           -0.100317937153 Eh   ::
         :: G(RRHO) contrib.            1.094089977276 Eh   ::
         :::::::::::::::::::::::::::::::::::::::::::::::::::::

           -------------------------------------------------
          | TOTAL ENERGY             -190.730140412461 Eh   |
          | TOTAL ENTHALPY           -189.463143214199 Eh   |
          | TOTAL FREE ENERGY        -189.636050435185 Eh   |
          | GRADIENT NORM               0.000063202727 Eh/α |
           -------------------------------------------------

 * finished run on 2025/08/23 at 07:53:11.850
