   * xtb version 6.7.1 (edcfbbe) compiled by 'albert@albert-system' on 2024-07-22

   ID    Z sym.   atoms
    1    6 C      1-4, 6-29, 31-36, 38-42, 44-72
    2    7 N      5, 43
    3    5 B      30, 37
    4    1 H      73-144

          program call               : xtb data2507/gas/tBuCzDBA/tBuCzDBA_gas_S0_crest.xyz --gfn 2 --ohess vtight --parallel 40 --molden --ceasefiles --namespace data2507/gas/tBuCzDBA/tBuCzDBA_gas_S0_finalOpt
          :  Hamiltonian                  GFN2-xTB          :
 * total energy  :  -190.7887145 Eh     change       -0.4944667E-08 Eh
 * total energy  :  -190.7887160 Eh     change       -0.1468562E-05 Eh
 * total energy  :  -190.7887179 Eh     change       -0.1933705E-05 Eh
 * total energy  :  -190.7887221 Eh     change       -0.4225461E-05 Eh
 * total energy  :  -190.7887237 Eh     change       -0.1533592E-05 Eh
 * total energy  :  -190.7887251 Eh     change       -0.1428528E-05 Eh
 * total energy  :  -190.7887276 Eh     change       -0.2498466E-05 Eh
 * total energy  :  -190.7887308 Eh     change       -0.3230254E-05 Eh
 * total energy  :  -190.7887341 Eh     change       -0.3318829E-05 Eh
 * total energy  :  -190.7887381 Eh     change       -0.3995282E-05 Eh
 * total energy  :  -190.7889945 Eh     change       -0.9420454E-06 Eh
 * total energy  :  -190.7889954 Eh     change       -0.8873877E-06 Eh
 * total energy  :  -190.7889962 Eh     change       -0.8060034E-06 Eh
 * total energy  :  -190.7889970 Eh     change       -0.7826080E-06 Eh
 * total energy  :  -190.7889978 Eh     change       -0.8825833E-06 Eh
 * total energy  :  -190.7889989 Eh     change       -0.1096252E-05 Eh
 * total energy  :  -190.7890003 Eh     change       -0.1386660E-05 Eh
 * total energy  :  -190.7890019 Eh     change       -0.1593667E-05 Eh
 * total energy  :  -190.7890019 Eh     change       -0.6279294E-08 Eh
   *** GEOMETRY OPTIMIZATION CONVERGED AFTER 185 ITERATIONS ***

 final structure:
================
144
 xtb: 6.7.1 (edcfbbe)
C           -2.92950015974898       -1.46399640104948        1.91070259631387
C           -3.72744654896658       -0.67816226420127        0.91147372344311
C           -5.11153923977333       -0.69575517874599        0.94959937383879
C           -5.85022364560751        0.02972515667797        0.02266661362311
N           -7.25185920995281        0.00349601310583        0.05891938630890
C           -8.03951953991843       -1.12746512922427        0.10851530677432
C           -7.68405887596469       -2.46762499603478        0.09257804260697
C           -8.69432280674663       -3.40629015643245        0.12550178137157
C          -10.05284943538176       -3.06290437051915        0.16610606364828
C          -11.08953997391597       -4.17663827549427        0.20689798814275
C          -10.86204857750282       -5.03119666221678        1.46194589800109
C          -10.94471098558079       -5.04818102449661       -1.04871993141718
C          -12.52437334128299       -3.64378632775668        0.25077038599050
C          -10.39663257932705       -1.72157520553620        0.15830861854623
C           -9.40044270723198       -0.75416195854460        0.12579727164737
C           -9.42775279213610        0.68140337067244        0.09036557675295
C          -10.45923368875750        1.61157505559338        0.10385669386774
C          -10.16555237040571        2.96461581212569        0.08263892269582
C          -11.24311478337893        4.03958242888291        0.09055433189275
C          -12.65807124223376        3.45445699386484        0.10094459059572
C          -11.07908936657619        4.90934022329773        1.34503054040014
C          -11.09844269904077        4.90838650767479       -1.16699779719915
C           -8.82009062400166        3.35773948263049        0.06358693255622
C           -7.77565224514453        2.45681899919633        0.04908435668095
C           -8.08213785009478        1.10452980101796        0.04641107119733
C           -5.18885398346645        0.78130663045565       -0.94115442883076
C           -3.80491854651841        0.81495908522242       -0.97679650094939
C           -3.09126062376676        1.62717179565008       -2.01784628850708
C           -3.05438453994625        0.08147823186829       -0.05156098406208
B           -1.48768100156193        0.10575625854303       -0.09161991199250
C           -0.70189620933995        1.20569864682463        0.68114033110359
C           -1.36959990908188        2.20060645907018        1.39772180953761
C           -0.67880250249226        3.18377030078367        2.08555332107818
C            0.70636860373378        3.18717344973899        2.07197084460228
C            1.38827776680556        2.20618681067945        1.37226183961427
C            0.71141990662001        1.20743507037729        0.66979854905452
B            1.48772254708098        0.10357470893803       -0.10689877896140
C            3.05448887358368        0.07273031242496       -0.07435126194924
C            3.80430712020747        0.74614720395960       -1.04459092014122
C            3.08931972919357        1.50633062101007       -2.12339790593708
C            5.18829093698161        0.70541376856475       -1.01483913066227
C            5.85071297473907        0.00956147031734       -0.01067302482685
N            7.25210609500466       -0.02300946739555        0.02227911658892
C            8.09023793929952        1.06887857901862       -0.06687943219791
C            7.79449079021299        2.41988453597084       -0.16744539732381
C            8.84578868280140        3.31160270258874       -0.21735192977267
C           10.18814960122377        2.91143875444174       -0.16275054475408
C           11.27410528080059        3.97542324931762       -0.23551034209524
C           12.68426509894057        3.38243649675468       -0.16895354011050
C           11.14270383519227        4.73932383705365       -1.56081350335234
C           11.11066737727318        4.94618467473127        0.94258700649685
C           10.47115098211361        1.56195569305959       -0.03591630153223
C            9.43256953146322        0.64118948919538        0.01645715950633
C            9.39518443614705       -0.78725385831427        0.16044567956833
C           10.38486211096643       -1.75500091745136        0.27570581195794
C           10.03241191765620       -3.08972790320733        0.38337605308260
C           11.06132714267307       -4.20267045458273        0.52264466990190
C           12.49863804783496       -3.67534193584775        0.54839170332386
C           10.92923585541677       -5.16510320459493       -0.66614504956800
C           10.81023357977342       -4.95954326513284        1.83466823842156
C            8.67217915916946       -3.42736055977663        0.35383847426380
C            7.66834881986960       -2.48802115242901        0.24073170382657
C            8.03197864910676       -1.15223494992869        0.16118913179255
C            5.11242026127764       -0.65397913568726        0.96208104767328
C            3.72836332546064       -0.63206542238459        0.92890840859840
C            2.93147301869243       -1.35604995764184        1.97460895927605
C            0.70186380540720       -0.97684834605212       -0.90661724617796
C            1.36967127895288       -1.96100339583603       -1.63779507606343
C            0.67881139187381       -2.92394173274622       -2.35361558258916
C           -0.70642267548273       -2.92090566823204       -2.34909566230558
C           -1.38832386591626       -1.95544145634641       -1.62812766575080
C           -0.71144883515147       -0.97478055655419       -0.90060266281009
H           -2.29261508111659       -2.18634305665811        1.40069545571502
H           -3.58013252153577       -1.99591690380281        2.60085408337389
H           -2.28002181129161       -0.80058872055747        2.48112273987311
H           -5.62686008917348       -1.26434921649371        1.71010294501541
H           -6.64941366562367       -2.77312666039616        0.04506781879835
H           -8.41249093165002       -4.44843085840458        0.11548467806915
H          -10.94609352236820       -4.41532707288987        2.35508877735923
H          -11.60600179199636       -5.82349504912150        1.51722561189985
H           -9.87716278448040       -5.48978421364147        1.45678120589187
H          -11.08162291378798       -4.44326056031578       -1.94277787125582
H           -9.96348396144834       -5.51179658854960       -1.09926089068699
H          -11.69415192852499       -5.83723072341941       -1.04697672822254
H          -12.75014535493898       -3.05516062202232       -0.63541040153853
H          -13.22091998811243       -4.47941122142121        0.28510736846345
H          -12.68786979995958       -3.03371412842851        1.13614850152486
H          -11.42511148884101       -1.40115489727274        0.17243652603936
H          -11.47487799793242        1.25364955780374        0.13539316749652
H          -12.82714078758387        2.85546206522396        0.99277713876822
H          -12.83371940641688        2.84123261751510       -0.77992740793050
H          -13.38558907524023        4.26398403966580        0.09758817442099
H          -11.85478825883644        5.67188785843361        1.37785405366770
H          -10.11308108870023        5.40627961076022        1.35983020948388
H          -11.15955201364611        4.29550049553786        2.23987296287644
H          -11.87404251255295        5.67144734458377       -1.18794682371121
H          -11.19387804790840        4.29404863444440       -2.06004469219542
H          -10.13269835371688        5.40505854669779       -1.19771019424665
H           -8.57654298620000        4.40952924541779        0.06382194643170
H           -6.75176562303051        2.79995931863130        0.05085946711255
H           -5.76450721850859        1.32964062303975       -1.67273846149392
H           -2.45756270297179        0.98493247729155       -2.62883007388268
H           -3.79732840847272        2.14098827271827       -2.66596781367593
H           -2.44669240280258        2.36683085702598       -1.54374451438648
H           -2.45117099523134        2.19924447925249        1.41314113764161
H           -1.21774566793935        3.94493966395373        2.63183230150769
H            1.25223590592653        3.95128737757089        2.60713407335700
H            2.46994320430005        2.20929385712273        1.36725366245348
H            3.79436691609075        1.97444490217798       -2.80631587157724
H            2.44140465504367        0.83893685953167       -2.69083516486068
H            2.45872628601466        2.27947451819054       -1.68505326289784
H            5.76248280516287        1.20454393220657       -1.78186895171482
H            6.77359008118658        2.77055226703899       -0.19534233133797
H            8.61014733918755        4.36204460190778       -0.29883908928671
H           12.86045349554788        2.69949970574843       -0.99683158832175
H           13.41823639509970        4.18363409789568       -0.23209700728458
H           12.84303240874285        2.85536035791121        0.76899517676936
H           10.18049032539711        5.23783426660915       -1.63800596199754
H           11.23896623750238        4.05332447055687       -2.39998661312469
H           11.92366380102360        5.49310486070902       -1.63930823983781
H           11.18027591538632        4.40692689647079        1.88512053448264
H           11.89317062391376        5.70205892194455        0.91803130891899
H           10.14931306902791        5.45123161516452        0.91039578232554
H           11.48377310957168        1.19983186239523        0.02803259575669
H           11.41517831298402       -1.44024384579710        0.27492236141682
H           13.18931619957003       -4.50939707580032        0.65762395816778
H           12.65207798149648       -3.00008670614753        1.38703168561390
H           12.74192500235135       -3.15745250315007       -0.37646395793003
H           11.08575419330842       -4.63019805956592       -1.60069253469084
H            9.94486221402690       -5.62370815016437       -0.69802720458105
H           11.67165675814023       -5.95736304213023       -0.59260681626551
H            9.82395942016461       -5.41495595793909        1.84790023607689
H           11.55028862781927       -5.74719697096284        1.96185750966247
H           10.88197817768552       -4.27823005397746        2.68008505872817
H            8.38364813608531       -4.46570370820606        0.41851380767777
H            6.63247682201405       -2.79088722929087        0.20509735005691
H            5.62818405470122       -1.17741425275954        1.75400416257232
H            2.28436874008196       -2.09866297049959        1.50841576160790
H            3.58287097758823       -1.85632687365162        2.68734088388927
H            2.29231328613668       -0.65737779431960        2.51370947633444
H            2.45132502527162       -1.96680213802341       -1.64305236359514
H            1.21777973028094       -3.67513031526989       -2.91350281880901
H           -1.25235090509783       -3.66965063389797       -2.90550862707780
H           -2.47000662455393       -1.95664365482199       -1.62600267992509

          :  Hamiltonian                  GFN2-xTB          :
         :: gradient norm              0.000056196700 Eh/a0 ::
         :: HOMO-LUMO gap              1.074642700518 eV    ::
         :: SCC energy              -194.163050927295 Eh    ::
         :: -> dispersion             -0.187000353897 Eh    ::
         :: repulsion energy           3.374049010312 Eh    ::

    * Orbital Energies and Occupations

         #    Occupation            Energy/Eh            Energy/eV
      -------------------------------------------------------------
         1        2.0000           -0.6625927             -18.0301
       ...           ...                  ...                  ...
       168        2.0000           -0.3988318             -10.8528
       169        2.0000           -0.3974814             -10.8160
       170        2.0000           -0.3884996             -10.5716
       171        2.0000           -0.3883672             -10.5680
       172        2.0000           -0.3880597             -10.5596
       173        2.0000           -0.3869899             -10.5305
       174        2.0000           -0.3855604             -10.4916
       175        2.0000           -0.3849710             -10.4756
       176        2.0000           -0.3753282             -10.2132
       177        2.0000           -0.3635773              -9.8934
       178        2.0000           -0.3635353              -9.8923
       179        2.0000           -0.3458624              -9.4114
       180        2.0000           -0.3454175              -9.3993 (HOMO)
       181                         -0.3059252              -8.3246 (LUMO)
       182                         -0.2600300              -7.0758
       183                         -0.2323524              -6.3226
       184                         -0.2322472              -6.3198
       185                         -0.2249111              -6.1201
       186                         -0.2240831              -6.0976
       187                         -0.2189964              -5.9592
       188                         -0.2183564              -5.9418
       189                         -0.2128660              -5.7924
       190                         -0.2127341              -5.7888
       191                         -0.2079380              -5.6583
       ...                                ...                  ...
       360                          0.7533018              20.4984
      -------------------------------------------------------------
                  HL-Gap            0.0394923 Eh            1.0746 eV

     #   Z          covCN         q      C6AA      α(0)
     1   6 C        3.758    -0.110    22.660     6.787
     2   6 C        2.969     0.011    27.769     8.644
     3   6 C        2.924    -0.060    29.488     8.905
     4   6 C        2.911     0.057    26.721     8.476
     5   7 N        2.803    -0.046    22.120     6.985
     6   6 C        3.084     0.043    26.946     8.510
     7   6 C        2.908    -0.054    29.348     8.883
     8   6 C        2.931    -0.041    29.009     8.833
     9   6 C        2.973    -0.004    28.124     8.699
    10   6 C        3.903     0.026    20.089     6.371
    11   6 C        3.762    -0.104    22.542     6.768
    12   6 C        3.761    -0.104    22.542     6.768
    13   6 C        3.761    -0.106    22.574     6.773
    14   6 C        2.918    -0.044    29.105     8.847
    15   6 C        3.068    -0.022    28.478     8.750
    16   6 C        3.068    -0.022    28.479     8.750
    17   6 C        2.918    -0.044    29.104     8.847
    18   6 C        2.973    -0.004    28.124     8.699
    19   6 C        3.903     0.026    20.089     6.371
    20   6 C        3.761    -0.106    22.574     6.773
    21   6 C        3.761    -0.104    22.542     6.768
    22   6 C        3.762    -0.104    22.542     6.768
    23   6 C        2.931    -0.041    29.009     8.833
    24   6 C        2.908    -0.054    29.347     8.883
    25   6 C        3.084     0.043    26.946     8.510
    26   6 C        2.924    -0.060    29.490     8.905
    27   6 C        2.969     0.011    27.768     8.644
    28   6 C        3.758    -0.110    22.662     6.787
    29   6 C        2.895    -0.086    30.143     9.002
    30   5 B        2.714     0.237    17.878     7.089
    31   6 C        2.888    -0.063    29.566     8.915
    32   6 C        2.919    -0.027    28.665     8.780
    33   6 C        2.916    -0.025    28.636     8.775
    34   6 C        2.916    -0.025    28.636     8.775
    35   6 C        2.919    -0.027    28.665     8.780
    36   6 C        2.888    -0.063    29.566     8.915
    37   5 B        2.714     0.237    17.877     7.088
    38   6 C        2.895    -0.086    30.146     9.002
    39   6 C        2.969     0.011    27.770     8.644
    40   6 C        3.758    -0.110    22.661     6.787
    41   6 C        2.924    -0.060    29.495     8.906
    42   6 C        2.911     0.057    26.723     8.477
    43   7 N        2.803    -0.045    22.117     6.985
    44   6 C        3.083     0.043    26.947     8.510
    45   6 C        2.908    -0.054    29.349     8.883
    46   6 C        2.931    -0.041    29.009     8.833
    47   6 C        2.973    -0.004    28.123     8.699
    48   6 C        3.903     0.026    20.089     6.371
    49   6 C        3.761    -0.106    22.574     6.773
    50   6 C        3.762    -0.104    22.542     6.768
    51   6 C        3.761    -0.104    22.542     6.768
    52   6 C        2.918    -0.044    29.105     8.847
    53   6 C        3.068    -0.022    28.477     8.750
    54   6 C        3.068    -0.022    28.478     8.750
    55   6 C        2.918    -0.044    29.105     8.847
    56   6 C        2.973    -0.004    28.123     8.699
    57   6 C        3.903     0.026    20.089     6.371
    58   6 C        3.761    -0.106    22.574     6.773
    59   6 C        3.761    -0.104    22.542     6.768
    60   6 C        3.762    -0.104    22.542     6.768
    61   6 C        2.931    -0.041    29.009     8.833
    62   6 C        2.908    -0.054    29.348     8.883
    63   6 C        3.083     0.043    26.948     8.510
    64   6 C        2.924    -0.060    29.492     8.906
    65   6 C        2.969     0.011    27.770     8.644
    66   6 C        3.758    -0.110    22.659     6.787
    67   6 C        2.888    -0.063    29.566     8.915
    68   6 C        2.919    -0.027    28.665     8.780
    69   6 C        2.916    -0.025    28.636     8.775
    70   6 C        2.916    -0.025    28.636     8.775
    71   6 C        2.919    -0.027    28.665     8.780
    72   6 C        2.888    -0.063    29.566     8.915
    73   1 H        0.925     0.041     2.435     2.440
    74   1 H        0.925     0.041     2.436     2.441
    75   1 H        0.925     0.040     2.446     2.446
    76   1 H        0.926     0.033     2.541     2.493
    77   1 H        0.926     0.024     2.673     2.557
    78   1 H        0.926     0.025     2.652     2.547
    79   1 H        0.925     0.032     2.551     2.498
    80   1 H        0.925     0.034     2.530     2.487
    81   1 H        0.925     0.035     2.520     2.482
    82   1 H        0.925     0.033     2.550     2.497
    83   1 H        0.925     0.035     2.520     2.482
    84   1 H        0.925     0.034     2.528     2.487
    85   1 H        0.925     0.035     2.518     2.482
    86   1 H        0.925     0.033     2.540     2.492
    87   1 H        0.925     0.035     2.518     2.481
    88   1 H        0.926     0.034     2.525     2.485
    89   1 H        0.926     0.034     2.525     2.485
    90   1 H        0.925     0.035     2.518     2.482
    91   1 H        0.925     0.035     2.517     2.481
    92   1 H        0.925     0.033     2.540     2.492
    93   1 H        0.925     0.034     2.528     2.486
    94   1 H        0.925     0.035     2.520     2.482
    95   1 H        0.925     0.033     2.550     2.497
    96   1 H        0.925     0.034     2.530     2.487
    97   1 H        0.925     0.032     2.551     2.498
    98   1 H        0.925     0.035     2.520     2.482
    99   1 H        0.926     0.025     2.652     2.547
   100   1 H        0.926     0.024     2.674     2.557
   101   1 H        0.926     0.033     2.541     2.493
   102   1 H        0.925     0.040     2.443     2.444
   103   1 H        0.925     0.041     2.438     2.442
   104   1 H        0.925     0.041     2.432     2.439
   105   1 H        0.925     0.031     2.571     2.508
   106   1 H        0.926     0.029     2.607     2.525
   107   1 H        0.926     0.029     2.607     2.525
   108   1 H        0.925     0.031     2.571     2.507
   109   1 H        0.925     0.041     2.439     2.442
   110   1 H        0.925     0.041     2.437     2.441
   111   1 H        0.925     0.041     2.439     2.442
   112   1 H        0.926     0.033     2.540     2.492
   113   1 H        0.926     0.024     2.671     2.556
   114   1 H        0.926     0.025     2.652     2.547
   115   1 H        0.925     0.035     2.517     2.481
   116   1 H        0.925     0.033     2.540     2.492
   117   1 H        0.925     0.035     2.518     2.482
   118   1 H        0.925     0.035     2.520     2.482
   119   1 H        0.925     0.032     2.551     2.498
   120   1 H        0.925     0.034     2.530     2.487
   121   1 H        0.925     0.033     2.550     2.497
   122   1 H        0.925     0.034     2.528     2.487
   123   1 H        0.925     0.035     2.520     2.482
   124   1 H        0.926     0.034     2.525     2.485
   125   1 H        0.926     0.034     2.525     2.485
   126   1 H        0.925     0.033     2.540     2.492
   127   1 H        0.925     0.035     2.517     2.481
   128   1 H        0.925     0.035     2.518     2.482
   129   1 H        0.925     0.033     2.550     2.497
   130   1 H        0.925     0.035     2.520     2.482
   131   1 H        0.925     0.034     2.528     2.486
   132   1 H        0.925     0.035     2.520     2.482
   133   1 H        0.925     0.034     2.530     2.487
   134   1 H        0.925     0.032     2.552     2.498
   135   1 H        0.926     0.025     2.652     2.547
   136   1 H        0.926     0.024     2.670     2.555
   137   1 H        0.926     0.033     2.540     2.492
   138   1 H        0.925     0.040     2.443     2.444
   139   1 H        0.925     0.041     2.436     2.441
   140   1 H        0.925     0.041     2.440     2.443
   141   1 H        0.925     0.031     2.570     2.507
   142   1 H        0.926     0.029     2.607     2.525
   143   1 H        0.926     0.029     2.607     2.525
   144   1 H        0.925     0.031     2.572     2.508

molecular dipole:
                 x           y           z       tot (Debye)
 q only:        0.006       0.037      -0.045
   full:        0.006       0.039      -0.048       0.157

 projected vibrational frequencies (cm⁻¹)
eigval :       -0.00    -0.00     0.00     0.00     0.00     0.00
eigval :        2.61     4.33     5.28    12.42    12.84    17.88
eigval :       23.69    31.21    31.29    33.24    33.53    36.31
eigval :       36.89    37.34    38.34    46.11    51.29    53.13
eigval :       63.18    65.08    65.35    67.67    67.88    70.85
eigval :       75.72    85.23    86.95    91.54    96.55   104.85
eigval :      112.30   115.81   117.68   120.86   133.49   158.03
eigval :      159.88   159.95   171.83   173.19   173.50   178.61
eigval :      178.86   202.03   202.10   203.01   203.61   203.90
eigval :      210.83   219.42   219.85   220.02   220.97   226.58
eigval :      226.64   228.43   229.10   232.80   233.72   259.22
eigval :      259.31   268.19   278.74   280.47   299.18   302.35
eigval :      308.34   316.91   317.23   320.26   320.94   321.79
eigval :      323.04   332.99   340.97   341.28   341.65   345.43
eigval :      352.65   357.19   360.18   360.20   370.80   374.67
eigval :      378.86   380.35   383.51   395.64   399.77   399.97
eigval :      411.33   411.80   420.35   430.67   440.58   440.84
eigval :      442.74   442.83   446.52   449.13   463.79   465.70
eigval :      465.78   466.34   480.27   481.24   495.26   495.36
eigval :      499.23   499.73   518.75   518.98   535.82   541.66
eigval :      545.02   554.70   567.66   582.84   583.80   586.00
eigval :      586.09   586.20   590.10   596.26   599.76   604.12
eigval :      629.63   636.59   639.13   639.13   639.58   675.79
eigval :      678.62   686.27   687.19   687.69   687.94   699.48
eigval :      701.32   708.23   708.37   719.24   719.84   722.80
eigval :      756.52   771.08   804.32   807.83   819.71   819.77
eigval :      822.61   822.73   835.34   836.14   852.80   853.40
eigval :      870.05   870.09   873.52   873.57   875.61   875.92
eigval :      885.99   886.78   891.40   892.93   895.39   896.47
eigval :      898.85   914.57   914.93   916.43   916.89   922.50
eigval :      925.00   925.14   928.80   929.13   933.11   933.31
eigval :      936.66   937.05   960.06   960.07   960.13   960.15
eigval :      962.63   962.65   962.67   962.67   962.81   962.82
eigval :      963.29   963.30   985.11   985.44   998.63   998.77
eigval :     1029.67  1030.13  1032.07  1032.25  1035.05  1035.11
eigval :     1035.13  1035.46  1035.81  1035.82  1035.86  1035.87
eigval :     1042.49  1042.52  1046.92  1047.07  1047.16  1048.20
eigval :     1060.60  1096.01  1100.23  1100.36  1113.50  1119.80
eigval :     1130.01  1130.16  1130.20  1141.14  1159.57  1164.99
eigval :     1177.02  1177.19  1183.98  1184.85  1188.11  1192.24
eigval :     1216.81  1217.87  1218.21  1218.27  1228.08  1228.11
eigval :     1228.20  1228.23  1229.45  1231.11  1232.67  1232.72
eigval :     1234.12  1239.03  1239.38  1239.45  1243.16  1251.97
eigval :     1255.76  1256.25  1256.66  1259.20  1285.02  1285.13
eigval :     1285.54  1285.59  1297.68  1306.22  1306.47  1311.96
eigval :     1314.67  1315.01  1315.18  1315.34  1348.88  1348.97
eigval :     1361.38  1361.48  1390.81  1391.64  1402.56  1402.59
eigval :     1404.65  1404.65  1405.81  1405.85  1405.88  1405.89
eigval :     1406.68  1407.45  1407.55  1407.95  1408.70  1412.33
eigval :     1413.80  1413.90  1429.25  1429.26  1429.37  1429.38
eigval :     1432.37  1432.95  1437.73  1440.40  1441.19  1452.62
eigval :     1469.68  1470.48  1478.40  1478.58  1478.64  1479.23
eigval :     1484.15  1484.22  1486.95  1487.04  1489.64  1491.19
eigval :     1491.55  1492.91  1492.91  1492.93  1492.93  1493.84
eigval :     1495.73  1495.74  1495.77  1495.78  1502.27  1502.29
eigval :     1502.58  1502.59  1506.24  1506.26  1506.31  1506.31
eigval :     1515.11  1515.14  1515.31  1515.33  1520.84  1520.85
eigval :     1521.70  1521.71  1547.44  1552.24  1552.74  1554.37
eigval :     1566.41  1569.91  1569.95  1572.77  1582.61  1582.82
eigval :     1594.18  1594.64  1605.07  1605.09  1619.31  1619.41
eigval :     2999.69  3000.00  3000.22  3000.56  3014.47  3014.91
eigval :     3015.52  3015.99  3019.10  3019.13  3019.26  3019.29
eigval :     3020.27  3020.28  3020.30  3020.33  3026.29  3026.31
eigval :     3026.33  3026.33  3027.71  3027.73  3028.23  3028.30
eigval :     3030.38  3030.39  3030.47  3030.47  3035.15  3035.17
eigval :     3035.39  3035.42  3037.48  3037.49  3037.76  3037.77
eigval :     3037.79  3037.84  3038.50  3038.89  3046.40  3046.41
eigval :     3046.42  3046.43  3049.81  3049.83  3050.03  3050.05
eigval :     3060.37  3060.62  3062.31  3062.51  3071.38  3071.63
eigval :     3076.38  3076.64  3076.81  3077.07  3080.20  3080.62
eigval :     3080.95  3081.04  3081.34  3082.25  3089.61  3089.74
eigval :     3090.20  3090.35  3113.09  3113.14  3116.60  3116.66

   temp. (K)  partition function   enthalpy   heat capacity  entropy
                                   cal/mol     cal/K/mol   cal/K/mol   J/K/mol
 298.15  VIB  0.262E+37            43253.118    256.149    276.461
         ROT  0.448E+09              888.752      2.981     42.566
         INT  0.117E+46            44141.871    259.130    319.027
         TR   0.278E+29             1481.254      4.968     46.373
         TOT                       45623.1246   264.0983   365.3997  1528.8324

       T/K    H(0)-H(T)+PV         H(T)/Eh          T*S/Eh         G(T)/Eh
   ------------------------------------------------------------------------
    298.15    0.727051E-01    0.126947E+01    0.173613E+00    0.109585E+01
   ------------------------------------------------------------------------

         :::::::::::::::::::::::::::::::::::::::::::::::::::::
         ::                  THERMODYNAMIC                  ::
         :::::::::::::::::::::::::::::::::::::::::::::::::::::
         :: total free energy        -189.693147122159 Eh   ::
         ::.................................................::
         :: total energy             -190.789001916983 Eh   ::
         :: zero point energy           1.196762915261 Eh   ::
         :: G(RRHO) w/o ZPVE           -0.100908120437 Eh   ::
         :: G(RRHO) contrib.            1.095854794824 Eh   ::
         :::::::::::::::::::::::::::::::::::::::::::::::::::::

           -------------------------------------------------
          | TOTAL ENERGY             -190.789001916983 Eh   |
          | TOTAL ENTHALPY           -189.519533924742 Eh   |
          | TOTAL FREE ENERGY        -189.693147122159 Eh   |
          | GRADIENT NORM               0.000056199662 Eh/α |
          | HOMO-LUMO GAP               1.074639616367 eV   |
           -------------------------------------------------

 * finished run on 2025/08/23 at 07:17:56.797
