   * xtb version 6.7.1 (edcfbbe) compiled by 'albert@albert-system' on 2024-07-22

   ID    Z sym.   atoms
    1    6 C      1-4, 6-29, 31-36, 38-42, 44-72
    2    7 N      5, 43
    3    5 B      30, 37
    4    1 H      73-144

          program call               : xtb data2507/gas/tBuCzDBA/tBuCzDBA.xyz --gfn 2 --ohess vtight --parallel 40 --molden --ceasefiles --namespace data2507/gas/tBuCzDBA/tBuCzDBA_gas_S0_preOpt
          :  Hamiltonian                  GFN2-xTB          :
 * total energy  :  -190.6870216 Eh     change       -0.6191101E-08 Eh
 * total energy  :  -190.7435835 Eh     change       -0.5656190E-01 Eh
 * total energy  :  -190.7613200 Eh     change       -0.1773642E-01 Eh
 * total energy  :  -190.7672685 Eh     change       -0.5948550E-02 Eh
 * total energy  :  -190.7709642 Eh     change       -0.3695686E-02 Eh
 * total energy  :  -190.7738803 Eh     change       -0.2916067E-02 Eh
 * total energy  :  -190.7764349 Eh     change       -0.2554654E-02 Eh
 * total energy  :  -190.7786414 Eh     change       -0.2206498E-02 Eh
 * total energy  :  -190.7802945 Eh     change       -0.1653110E-02 Eh
 * total energy  :  -190.7814052 Eh     change       -0.1110692E-02 Eh
 * total energy  :  -190.7876308 Eh     change       -0.1321467E-05 Eh
 * total energy  :  -190.7876322 Eh     change       -0.1389329E-05 Eh
 * total energy  :  -190.7876337 Eh     change       -0.1458904E-05 Eh
 * total energy  :  -190.7876352 Eh     change       -0.1496556E-05 Eh
 * total energy  :  -190.7876365 Eh     change       -0.1350688E-05 Eh
 * total energy  :  -190.7876379 Eh     change       -0.1373324E-05 Eh
 * total energy  :  -190.7876395 Eh     change       -0.1596057E-05 Eh
 * total energy  :  -190.7876414 Eh     change       -0.1869559E-05 Eh
 * total energy  :  -190.7876414 Eh     change       -0.6123031E-08 Eh
   *** GEOMETRY OPTIMIZATION CONVERGED AFTER 185 ITERATIONS ***

 final structure:
================
144
 xtb: 6.7.1 (edcfbbe)
C           -2.98726497314826       -2.40648000366090        0.26007295228668
C           -3.75570967915982       -1.12394810167948        0.12761211985646
C           -5.14034537970928       -1.13463321915714        0.12544981090776
C           -5.85429206254071        0.04962177665254       -0.01513489234048
N           -7.25600333335469        0.03176435176497       -0.03131904033999
C           -8.04487887986019       -0.80729189607539       -0.79188298859837
C           -7.69193048282896       -1.76366659862157       -1.72928918156828
C           -8.70122315611491       -2.45845698302445       -2.37003550126825
C          -10.05580826763931       -2.22684861666279       -2.11524934878749
C          -11.16368680573761       -3.00307453681446       -2.81409473605106
C          -10.63107837927408       -4.05905332102002       -3.78659097517265
C          -12.03856494417537       -2.02328656642455       -3.60888956131698
C          -12.01601320706128       -3.71990300422087       -1.75705329546164
C          -10.39771408900732       -1.24399429523850       -1.19592445708450
C           -9.40707019352080       -0.53259583800783       -0.53851306982584
C           -9.43379558308305        0.53012084008994        0.42822564756927
C          -10.45998402955619        1.21105239712536        1.06287959805565
C          -10.16876064001211        2.20525162511702        1.98744123769602
C          -11.31527891950685        2.94736825495774        2.66058204715143
C          -10.83723875800349        4.02280558257838        3.64007148376278
C          -12.16852642641148        3.63336724158797        1.58400235665399
C          -12.17422507077521        1.94186710365101        3.44054228763119
C           -8.82782847555293        2.47898468118334        2.27106451561491
C           -7.78379046705740        1.81463346835715        1.65402723338944
C           -8.08643715428818        0.84656069131980        0.71105511749460
C           -5.16550702138556        1.25021352753463       -0.14100641967260
C           -3.78096067547614        1.27120451315361       -0.11840931470988
C           -3.03993190906805        2.57134036422733       -0.23480057068415
C           -3.05558594431213        0.08173513891738        0.00991339453285
B           -1.48814118994027        0.09548447346809        0.01927722087776
C           -0.71398423901614        0.12968093635243        1.36994417805186
C           -1.39304107678114        0.17347877302371        2.58904287866109
C           -0.71370777631548        0.18948409808573        3.79532899989272
C            0.67117575530084        0.15901735851622        3.80392780337609
C            1.36424495090371        0.11821082205369        2.60605724021733
C            0.69920661888836        0.10685695942264        1.37851228779890
B            1.48833145671835        0.07545386248840        0.03647317519530
C            3.05564758614631        0.05023789425140        0.04298613453004
C            3.78825918904938        1.23945680458929        0.12424193666591
C            3.05524057251333        2.54695998184263        0.20237891123963
C            5.17272584487254        1.21156819476120        0.13499437792455
C            5.85424163042589        0.00366358683295        0.04384131171663
N            7.25597713474742       -0.01905520181449        0.04207008700048
C            8.05413193029081       -0.83087885066354        0.82213304522506
C            7.71291840448239       -1.75368136717736        1.79678312522336
C            8.73014762822899       -2.42627145553160        2.44861388969748
C           10.08144924376244       -2.20441427332381        2.16891254766022
C           11.19802542189623       -2.95656137004892        2.88015238903703
C           12.03925848599432       -3.70686399808724        1.83752263212306
C           12.08071102756211       -1.95068546080176        3.63257688129468
C           10.67760710720221       -3.98075693000473        3.89242767058286
C           10.41185881513100       -1.25436774507660        1.21166817931405
C            9.41311778288359       -0.56612253435388        0.54202369785986
C            9.42793091846653        0.46102748102653       -0.46269415480477
C           10.44599935289032        1.11787239014666       -1.13479623979040
C           10.14301790559733        2.07715293690594       -2.09190723138807
C           11.28072903906805        2.79381414525070       -2.80630012947405
C           10.78997743354999        3.83002484575391       -3.82115974082691
C           12.13241499713040        1.76000736348862       -3.55663739961091
C           12.14488711651654        3.52179536400172       -1.76663313584797
C            8.79860780965303        2.34058177813928       -2.36873925644315
C            7.76252878579639        1.70006885706379       -1.71429695258058
C            8.07718889857093        0.76760229720337       -0.73990732439261
C            5.13308837700959       -1.18107577396423       -0.04628198565413
C            3.74846666212968       -1.16275458615857       -0.03644755522619
C            2.97212245486264       -2.44495333383415       -0.11550573623171
C            0.71433086752388        0.06777702148592       -1.31481632487616
C            1.39360229322993        0.05446939759931       -2.53453789300241
C            0.71425629663723        0.03521447545021       -3.74075473190536
C           -0.67093430954532        0.02666288104490       -3.74859600636926
C           -1.36416226420810        0.04216484173311       -2.55023797351008
C           -0.69900677106758        0.06659531589328       -1.32292415282722
H           -3.65808044326309       -3.25878568331948        0.33877880884739
H           -2.35129287179626       -2.37764754989490        1.14424996124921
H           -2.33924203410769       -2.54813067942915       -0.60456786128828
H           -5.67527627438546       -2.06541322079340        0.24585445872463
H           -6.65739439339680       -1.96061757560270       -1.96775505925442
H           -8.40959761950922       -3.20180701430269       -3.09360375220956
H          -10.01687491911519       -4.79301862477610       -3.26987644909821
H          -11.46757680110186       -4.58399172094110       -4.24421031277741
H          -10.04779793665087       -3.60114752328616       -4.58216361501574
H          -12.49793698551930       -1.28502317054439       -2.95759353284447
H          -11.43695051672288       -1.49749283897360       -4.34755596930076
H          -12.83047888924990       -2.56069770976043       -4.12690200402636
H          -12.47602360512927       -3.01270903112770       -1.07264340319977
H          -12.80688377285852       -4.29324940155945       -2.23671163673605
H          -11.39816858620859       -4.40201162699474       -1.17648067294236
H          -11.43114656343729       -1.01747344040618       -0.98226894741929
H          -11.48100463415859        0.95220061739627        0.82738312194543
H          -10.23578468796434        4.77426284689134        3.13359084929284
H          -10.25678565283311        3.58626328073549        4.44958605041816
H          -11.69952085572063        4.52233520330893        4.07785063218690
H          -12.98828760852005        4.18047562067423        2.04545952081550
H          -12.58987130266585        2.91007273853766        0.89158546634300
H          -11.56179590042275        4.33499665496573        1.01509747327914
H          -12.99275661553779        2.45489208954885        3.94163174950881
H          -11.57095810209421        1.43670638467386        4.19214458688098
H          -12.59712932868981        1.18826652527904        2.78213037050459
H           -8.57518576565755        3.23226305461935        2.99903461415243
H           -6.76128480347891        2.04385309365397        1.91452696543212
H           -5.71929873798092        2.16858808185259       -0.27106286925358
H           -2.37462048597893        2.55305462077248       -1.09731624982691
H           -3.72830206404282        3.40656163511424       -0.34051281578801
H           -2.42431852339098        2.73394411636146        0.64966464901080
H           -2.47453269733021        0.19409485839096        2.58616189507363
H           -1.26138936609555        0.22367738683602        4.72653351510013
H            1.20817227816115        0.16805578987530        4.74191335973227
H            2.44564881454174        0.09560761653675        2.61661416597443
H            3.74916066805390        3.38191773450002        0.26517596629475
H            2.42602613621689        2.67884196463392       -0.67758541370015
H            2.40406968450083        2.56518613261845        1.07564457146781
H            5.73256435000492        2.13085605104663        0.22722708508672
H            6.68142716347797       -1.94171567445669        2.05483508217662
H            8.44760260941406       -3.14389223798150        3.20118805470982
H           12.49303679278568       -3.02188536170618        1.12687081674871
H           12.83447020623894       -4.26578439599874        2.32692822120943
H           11.41516858819198       -4.40610602333763        1.28467975449277
H           11.48744193150135       -1.40327335293414        4.36223109419814
H           12.52978364319981       -1.23217872026180        2.95261278468473
H           12.88053131700979       -2.47007797095921        4.15678543069966
H           10.05766979109676       -4.73101121645824        3.40689076799242
H           11.51977597669468       -4.49056610941178        4.35670195499979
H           10.10361690736375       -3.49763824993027        4.67980039713939
H           11.44254531569569       -1.03587891909781        0.97736996894519
H           11.46995647269019        0.86777511302567       -0.90261580209185
H           11.64648324333432        4.31232990145769       -4.28858752413512
H           10.19413536138831        4.60054403206403       -3.33719213087405
H           10.20006854675970        3.36196024531453       -4.60585250603542
H           11.52145324086746        1.22544544223189       -4.28120222393781
H           12.56416085137612        1.03294347802127       -2.87456860674441
H           12.94428698534084        2.25434157043674       -4.08652086143232
H           12.57507461577112        2.82612231559221       -1.05170433263334
H           12.95851264203365        4.05173994273618       -2.25800595222227
H           11.54340966486387        4.24406159228596       -1.21833825597163
H            8.53670828137128        3.06621018491677       -3.12110083129933
H            6.73677628792469        1.91972452324828       -1.97024553157442
H            5.66200088165252       -2.11851638670543       -0.13829008088071
H            2.33419325888949       -2.55343659407910        0.76136184921958
H            2.32533664208360       -2.44304836209781       -0.99226290584350
H            3.63766105805316       -3.30307525055422       -0.17294760946150
H            2.47527508110156        0.05827223746433       -2.53222050161212
H            1.26216115550503        0.02510281483032       -4.67239689281962
H           -1.20804994207383        0.00872556525832       -4.68638091992745
H           -2.44578041951486        0.03642274427374       -2.56031510675031

          :  Hamiltonian                  GFN2-xTB          :
         :: gradient norm              0.000059998586 Eh/a0 ::
         :: HOMO-LUMO gap              1.063709647680 eV    ::
         :: SCC energy              -194.161071780219 Eh    ::
         :: -> dispersion             -0.187034770342 Eh    ::
         :: repulsion energy           3.373430403772 Eh    ::

    * Orbital Energies and Occupations

         #    Occupation            Energy/Eh            Energy/eV
      -------------------------------------------------------------
         1        2.0000           -0.6627100             -18.0333
       ...           ...                  ...                  ...
       168        2.0000           -0.3988545             -10.8534
       169        2.0000           -0.3975638             -10.8183
       170        2.0000           -0.3879123             -10.5556
       171        2.0000           -0.3878609             -10.5542
       172        2.0000           -0.3872733             -10.5382
       173        2.0000           -0.3859212             -10.5015
       174        2.0000           -0.3849979             -10.4763
       175        2.0000           -0.3847195             -10.4688
       176        2.0000           -0.3750664             -10.2061
       177        2.0000           -0.3651804              -9.9371
       178        2.0000           -0.3651775              -9.9370
       179        2.0000           -0.3452078              -9.3936
       180        2.0000           -0.3447478              -9.3811 (HOMO)
       181                         -0.3056573              -8.3174 (LUMO)
       182                         -0.2598069              -7.0697
       183                         -0.2325928              -6.3292
       184                         -0.2325293              -6.3274
       185                         -0.2246068              -6.1119
       186                         -0.2237835              -6.0895
       187                         -0.2191422              -5.9632
       188                         -0.2185102              -5.9460
       189                         -0.2124945              -5.7823
       190                         -0.2124233              -5.7803
       191                         -0.2091859              -5.6922
       ...                                ...                  ...
       360                          0.7576739              20.6174
      -------------------------------------------------------------
                  HL-Gap            0.0390905 Eh            1.0637 eV

     #   Z          covCN         q      C6AA      α(0)
     1   6 C        3.758    -0.110    22.661     6.787
     2   6 C        2.969     0.011    27.770     8.644
     3   6 C        2.924    -0.060    29.501     8.907
     4   6 C        2.910     0.057    26.724     8.477
     5   7 N        2.802    -0.046    22.126     6.986
     6   6 C        3.080     0.043    26.940     8.509
     7   6 C        2.909    -0.055    29.367     8.886
     8   6 C        2.928    -0.045    29.114     8.849
     9   6 C        2.972    -0.004    28.122     8.699
    10   6 C        3.903     0.026    20.088     6.371
    11   6 C        3.761    -0.106    22.571     6.773
    12   6 C        3.762    -0.104    22.541     6.768
    13   6 C        3.762    -0.104    22.541     6.768
    14   6 C        2.920    -0.040    28.993     8.830
    15   6 C        3.066    -0.021    28.459     8.748
    16   6 C        3.066    -0.021    28.459     8.748
    17   6 C        2.920    -0.040    28.993     8.830
    18   6 C        2.972    -0.004    28.123     8.699
    19   6 C        3.903     0.026    20.088     6.371
    20   6 C        3.761    -0.106    22.571     6.772
    21   6 C        3.762    -0.104    22.542     6.768
    22   6 C        3.762    -0.104    22.540     6.768
    23   6 C        2.928    -0.045    29.114     8.849
    24   6 C        2.909    -0.055    29.367     8.886
    25   6 C        3.080     0.044    26.940     8.509
    26   6 C        2.924    -0.060    29.502     8.907
    27   6 C        2.969     0.011    27.769     8.644
    28   6 C        3.758    -0.110    22.662     6.787
    29   6 C        2.895    -0.086    30.149     9.003
    30   5 B        2.714     0.237    17.879     7.089
    31   6 C        2.888    -0.063    29.564     8.914
    32   6 C        2.919    -0.027    28.666     8.780
    33   6 C        2.916    -0.025    28.637     8.775
    34   6 C        2.916    -0.025    28.637     8.775
    35   6 C        2.919    -0.027    28.666     8.780
    36   6 C        2.888    -0.063    29.565     8.914
    37   5 B        2.714     0.237    17.879     7.089
    38   6 C        2.895    -0.086    30.149     9.003
    39   6 C        2.969     0.011    27.769     8.644
    40   6 C        3.758    -0.110    22.662     6.787
    41   6 C        2.924    -0.060    29.502     8.907
    42   6 C        2.910     0.057    26.724     8.477
    43   7 N        2.802    -0.046    22.126     6.986
    44   6 C        3.080     0.044    26.940     8.509
    45   6 C        2.909    -0.055    29.367     8.886
    46   6 C        2.928    -0.045    29.114     8.849
    47   6 C        2.972    -0.004    28.123     8.699
    48   6 C        3.903     0.026    20.088     6.371
    49   6 C        3.762    -0.104    22.541     6.768
    50   6 C        3.762    -0.104    22.540     6.768
    51   6 C        3.761    -0.106    22.571     6.773
    52   6 C        2.920    -0.040    28.993     8.830
    53   6 C        3.066    -0.021    28.459     8.748
    54   6 C        3.066    -0.021    28.459     8.748
    55   6 C        2.920    -0.040    28.993     8.830
    56   6 C        2.972    -0.004    28.122     8.699
    57   6 C        3.903     0.026    20.088     6.371
    58   6 C        3.761    -0.106    22.571     6.773
    59   6 C        3.762    -0.104    22.540     6.768
    60   6 C        3.762    -0.104    22.541     6.768
    61   6 C        2.928    -0.045    29.114     8.849
    62   6 C        2.909    -0.055    29.367     8.886
    63   6 C        3.080     0.043    26.940     8.509
    64   6 C        2.924    -0.060    29.501     8.907
    65   6 C        2.969     0.011    27.769     8.644
    66   6 C        3.758    -0.110    22.661     6.787
    67   6 C        2.888    -0.063    29.566     8.915
    68   6 C        2.919    -0.027    28.667     8.780
    69   6 C        2.916    -0.025    28.637     8.775
    70   6 C        2.916    -0.025    28.637     8.775
    71   6 C        2.919    -0.027    28.667     8.780
    72   6 C        2.888    -0.063    29.567     8.915
    73   1 H        0.925     0.041     2.439     2.442
    74   1 H        0.925     0.041     2.432     2.439
    75   1 H        0.925     0.040     2.449     2.447
    76   1 H        0.926     0.033     2.541     2.493
    77   1 H        0.926     0.025     2.665     2.553
    78   1 H        0.926     0.032     2.551     2.498
    79   1 H        0.925     0.034     2.527     2.486
    80   1 H        0.925     0.034     2.536     2.490
    81   1 H        0.925     0.034     2.527     2.486
    82   1 H        0.925     0.035     2.510     2.478
    83   1 H        0.925     0.032     2.554     2.499
    84   1 H        0.925     0.034     2.529     2.487
    85   1 H        0.925     0.036     2.509     2.477
    86   1 H        0.925     0.034     2.531     2.488
    87   1 H        0.925     0.032     2.555     2.500
    88   1 H        0.926     0.027     2.631     2.536
    89   1 H        0.926     0.027     2.631     2.536
    90   1 H        0.925     0.034     2.527     2.486
    91   1 H        0.925     0.034     2.527     2.486
    92   1 H        0.925     0.034     2.536     2.490
    93   1 H        0.925     0.034     2.531     2.488
    94   1 H        0.925     0.036     2.509     2.477
    95   1 H        0.925     0.032     2.555     2.500
    96   1 H        0.925     0.034     2.529     2.487
    97   1 H        0.925     0.032     2.554     2.499
    98   1 H        0.925     0.035     2.511     2.478
    99   1 H        0.926     0.032     2.551     2.498
   100   1 H        0.926     0.025     2.665     2.553
   101   1 H        0.926     0.033     2.541     2.493
   102   1 H        0.925     0.041     2.432     2.439
   103   1 H        0.925     0.041     2.440     2.443
   104   1 H        0.925     0.040     2.447     2.446
   105   1 H        0.925     0.031     2.570     2.507
   106   1 H        0.926     0.028     2.609     2.526
   107   1 H        0.926     0.028     2.609     2.526
   108   1 H        0.925     0.031     2.570     2.507
   109   1 H        0.925     0.041     2.440     2.443
   110   1 H        0.925     0.040     2.448     2.447
   111   1 H        0.925     0.041     2.430     2.438
   112   1 H        0.926     0.033     2.541     2.493
   113   1 H        0.926     0.025     2.665     2.553
   114   1 H        0.926     0.032     2.551     2.498
   115   1 H        0.925     0.036     2.509     2.477
   116   1 H        0.925     0.034     2.531     2.488
   117   1 H        0.925     0.032     2.555     2.500
   118   1 H        0.925     0.032     2.554     2.499
   119   1 H        0.925     0.035     2.511     2.478
   120   1 H        0.925     0.034     2.529     2.487
   121   1 H        0.925     0.034     2.526     2.486
   122   1 H        0.925     0.034     2.536     2.490
   123   1 H        0.925     0.034     2.527     2.486
   124   1 H        0.926     0.027     2.631     2.536
   125   1 H        0.926     0.027     2.631     2.536
   126   1 H        0.925     0.034     2.536     2.490
   127   1 H        0.925     0.034     2.527     2.486
   128   1 H        0.925     0.034     2.527     2.486
   129   1 H        0.925     0.032     2.554     2.499
   130   1 H        0.925     0.035     2.510     2.478
   131   1 H        0.925     0.034     2.529     2.487
   132   1 H        0.925     0.036     2.509     2.477
   133   1 H        0.925     0.034     2.531     2.488
   134   1 H        0.925     0.032     2.555     2.500
   135   1 H        0.926     0.032     2.551     2.498
   136   1 H        0.926     0.025     2.665     2.553
   137   1 H        0.926     0.033     2.541     2.493
   138   1 H        0.925     0.040     2.449     2.447
   139   1 H        0.925     0.041     2.432     2.439
   140   1 H        0.925     0.041     2.439     2.442
   141   1 H        0.925     0.031     2.570     2.507
   142   1 H        0.926     0.028     2.609     2.526
   143   1 H        0.926     0.028     2.609     2.526
   144   1 H        0.925     0.031     2.569     2.507

molecular dipole:
                 x           y           z       tot (Debye)
 q only:       -0.000       0.025       0.008
   full:       -0.000       0.026       0.008       0.069

 projected vibrational frequencies (cm⁻¹)
eigval :       -0.00    -0.00     0.00     0.00     0.00     0.00
eigval :        2.97     4.93     5.35    13.17    13.33    17.69
eigval :       23.77    30.13    30.26    30.65    32.10    34.45
eigval :       38.96    40.91    42.61    43.55    52.82    53.51
eigval :       64.56    66.02    66.41    67.96    69.51    72.85
eigval :       76.53    78.09    78.25    92.40    95.15   105.17
eigval :      112.72   116.97   124.11   127.41   131.48   154.48
eigval :      154.49   158.75   171.71   174.53   174.85   177.59
eigval :      177.66   187.29   187.30   198.23   199.10   199.41
eigval :      207.17   217.17   217.18   218.53   218.77   223.03
eigval :      223.03   231.54   231.64   260.60   260.61   268.73
eigval :      274.19   274.21   285.91   290.80   295.87   298.14
eigval :      310.99   311.04   319.22   320.51   321.63   322.43
eigval :      328.07   328.09   331.27   335.95   343.09   345.69
eigval :      352.57   355.87   355.88   356.53   371.44   374.27
eigval :      379.09   379.43   382.19   397.56   401.21   401.59
eigval :      412.30   412.54   421.84   430.62   442.64   443.75
eigval :      444.26   444.27   447.08   449.26   461.20   461.80
eigval :      470.94   472.16   479.06   483.42   495.37   495.51
eigval :      499.45   500.00   518.11   518.92   535.24   541.76
eigval :      544.37   554.81   567.11   581.22   582.83   585.43
eigval :      586.64   586.73   588.96   596.02   599.27   603.69
eigval :      629.69   634.51   637.85   638.20   638.20   675.90
eigval :      678.25   686.45   686.85   687.80   687.95   698.05
eigval :      699.99   708.55   708.64   718.72   719.57   722.91
eigval :      756.77   771.30   803.73   807.30   816.42   816.45
eigval :      818.88   818.90   836.57   837.24   854.27   854.59
eigval :      873.71   873.74   877.87   877.87   882.46   882.82
eigval :      886.11   886.72   891.02   892.08   895.72   896.81
eigval :      898.55   908.84   909.07   912.38   912.41   922.21
eigval :      924.91   925.32   929.05   929.37   931.17   931.30
eigval :      936.80   937.18   959.80   959.81   959.84   959.84
eigval :      962.24   962.25   962.33   962.33   962.38   962.38
eigval :      962.46   962.46   985.01   985.28   999.02   999.23
eigval :     1029.94  1030.48  1034.68  1034.70  1035.08  1035.38
eigval :     1035.58  1035.59  1035.87  1035.87  1035.95  1035.96
eigval :     1038.27  1038.28  1046.86  1047.07  1047.35  1048.53
eigval :     1060.64  1096.24  1100.15  1100.49  1114.12  1120.64
eigval :     1130.66  1131.71  1131.72  1142.18  1160.86  1165.20
eigval :     1181.46  1181.47  1183.97  1184.71  1191.08  1195.01
eigval :     1216.58  1217.44  1218.50  1218.81  1224.67  1227.03
eigval :     1227.77  1227.79  1227.93  1227.93  1233.04  1233.04
eigval :     1236.31  1236.87  1236.88  1245.26  1247.39  1251.99
eigval :     1256.19  1256.46  1256.71  1258.99  1286.37  1286.37
eigval :     1286.67  1286.70  1297.52  1306.38  1306.56  1309.13
eigval :     1309.22  1310.02  1310.05  1311.91  1349.98  1350.04
eigval :     1367.56  1367.57  1389.73  1390.57  1402.02  1402.02
eigval :     1404.44  1404.45  1405.74  1405.76  1405.84  1405.84
eigval :     1406.92  1407.38  1407.66  1407.98  1408.83  1412.22
eigval :     1413.53  1413.56  1429.34  1429.37  1429.37  1429.38
eigval :     1432.58  1433.16  1437.69  1439.08  1439.89  1452.27
eigval :     1469.27  1470.03  1476.19  1476.19  1477.00  1477.01
eigval :     1478.40  1478.61  1478.62  1479.24  1489.72  1491.24
eigval :     1491.54  1492.77  1492.77  1492.81  1492.81  1493.85
eigval :     1495.45  1495.45  1495.95  1495.95  1502.73  1502.73
eigval :     1503.60  1503.60  1506.23  1506.24  1506.54  1506.54
eigval :     1515.84  1515.85  1515.86  1515.86  1521.22  1521.22
eigval :     1521.39  1521.41  1547.38  1552.07  1552.56  1554.32
eigval :     1566.41  1572.05  1572.07  1572.72  1586.16  1586.34
eigval :     1594.27  1594.66  1605.61  1605.62  1621.95  1622.05
eigval :     3000.09  3000.31  3000.39  3000.66  3015.26  3015.63
eigval :     3016.20  3016.64  3018.71  3018.71  3018.77  3018.77
eigval :     3020.11  3020.11  3020.18  3020.19  3026.00  3026.00
eigval :     3026.02  3026.03  3027.46  3027.46  3027.94  3028.04
eigval :     3030.11  3030.12  3030.29  3030.30  3034.73  3034.75
eigval :     3034.86  3034.87  3037.04  3037.05  3037.38  3037.40
eigval :     3037.69  3037.73  3038.11  3038.42  3046.95  3046.97
eigval :     3047.06  3047.07  3050.54  3050.55  3050.74  3050.76
eigval :     3060.32  3060.60  3062.24  3062.49  3071.27  3071.50
eigval :     3079.64  3079.66  3080.61  3080.66  3081.03  3081.81
eigval :     3082.51  3082.55  3082.99  3083.05  3084.16  3084.16
eigval :     3087.96  3088.00  3116.07  3116.10  3116.63  3116.65

   temp. (K)  partition function   enthalpy   heat capacity  entropy
                                   cal/mol     cal/K/mol   cal/K/mol   J/K/mol
 298.15  VIB  0.190E+37            43237.210    256.175    276.174
         ROT  0.446E+09              888.752      2.981     42.561
         INT  0.850E+45            44125.963    259.156    318.735
         TR   0.278E+29             1481.254      4.968     46.373
         TOT                       45607.2166   264.1242   365.1078  1527.6110

       T/K    H(0)-H(T)+PV         H(T)/Eh          T*S/Eh         G(T)/Eh
   ------------------------------------------------------------------------
    298.15    0.726797E-01    0.126948E+01    0.173474E+00    0.109601E+01
   ------------------------------------------------------------------------

         :::::::::::::::::::::::::::::::::::::::::::::::::::::
         ::                  THERMODYNAMIC                  ::
         :::::::::::::::::::::::::::::::::::::::::::::::::::::
         :: total free energy        -189.691632725342 Eh   ::
         ::.................................................::
         :: total energy             -190.787641376446 Eh   ::
         :: zero point energy           1.196803414607 Eh   ::
         :: G(RRHO) w/o ZPVE           -0.100794763503 Eh   ::
         :: G(RRHO) contrib.            1.096008651104 Eh   ::
         :::::::::::::::::::::::::::::::::::::::::::::::::::::

           -------------------------------------------------
          | TOTAL ENERGY             -190.787641376446 Eh   |
          | TOTAL ENTHALPY           -189.518158235930 Eh   |
          | TOTAL FREE ENERGY        -189.691632725342 Eh   |
          | GRADIENT NORM               0.000059993582 Eh/α |
          | HOMO-LUMO GAP               1.063707844085 eV   |
           -------------------------------------------------

 * finished run on 2025/08/23 at 06:46:15.305
