   * xtb version 6.7.1 (edcfbbe) compiled by 'albert@albert-system' on 2024-07-22

   ID    Z sym.   atoms
    1    6 C      1-6, 8-12, 14, 17-23, 25-38
    2    5 B      7
    3    7 N      13, 16, 24
    4   17 Cl     15
    5    1 H      39-69

          program call               : xtb data2507/gas/PX-TRZ/PX-TRZ_gas_T1_crest.xyz --gfn 2 --spinpol --tblite --uhf 2 --ohess vtight --parallel 40 --molden --ceasefiles --namespace data2507/gas/PX-TRZ/PX-TRZ_gas_T1_finalOpt
 * total energy  :  -100.9769470 Eh     change        0.1235932E-08 Eh
 * total energy  :  -100.9769686 Eh     change       -0.2167397E-04 Eh
 * total energy  :  -100.9769790 Eh     change       -0.1032071E-04 Eh
 * total energy  :  -100.9769804 Eh     change       -0.1470733E-05 Eh
 * total energy  :  -100.9769819 Eh     change       -0.1438781E-05 Eh
 * total energy  :  -100.9769830 Eh     change       -0.1080708E-05 Eh
 * total energy  :  -100.9769843 Eh     change       -0.1322968E-05 Eh
 * total energy  :  -100.9769854 Eh     change       -0.1116149E-05 Eh
 * total energy  :  -100.9769862 Eh     change       -0.7643361E-06 Eh
 * total energy  :  -100.9769869 Eh     change       -0.7683160E-06 Eh
 * total energy  :  -100.9769892 Eh     change       -0.6131596E-06 Eh
 * total energy  :  -100.9769897 Eh     change       -0.4842789E-06 Eh
 * total energy  :  -100.9769903 Eh     change       -0.5614073E-06 Eh
 * total energy  :  -100.9769906 Eh     change       -0.3511906E-06 Eh
 * total energy  :  -100.9769906 Eh     change        0.4357091E-08 Eh
 * total energy  :  -100.9769909 Eh     change       -0.2792026E-06 Eh
 * total energy  :  -100.9769911 Eh     change       -0.2590472E-06 Eh
 * total energy  :  -100.9769916 Eh     change       -0.4345158E-06 Eh
 * total energy  :  -100.9769917 Eh     change       -0.9853160E-07 Eh
   *** GEOMETRY OPTIMIZATION CONVERGED AFTER 22 ITERATIONS ***

 final structure:
================
69
 xtb: 6.7.1 (edcfbbe)
C           -6.50856856100713       -4.46114133006997        0.62853268383953
C           -5.56026932488205       -3.31768356915877        0.45172076042806
C           -5.66194461259139       -2.46052671354756       -0.63666727903285
C           -4.78840640914935       -1.40079930550745       -0.80666920454643
C           -4.92486278014533       -0.52623799664619       -2.01476721656930
C           -3.77728701854505       -1.14908639640059        0.14360775183867
B           -2.82459355820242        0.08990805812496       -0.00442724406129
C           -1.30457951442321       -0.14215359699221       -0.05028354981661
C           -0.76114446645873       -1.40854889551510       -0.36361534076669
C            0.58773093519038       -1.62016781286163       -0.41260411379090
C            1.49306015769571       -0.57394261350113       -0.13356176969938
C            2.88882288851612       -0.79360042607143       -0.17653375411711
N            3.36956000475320       -2.04318499784048       -0.49133817753960
C            4.65911769003176       -2.17346319393674       -0.51525868968798
Cl           5.27226378104431       -3.72491855307016       -0.90995789895527
N            5.55855588167223       -1.24375421560571       -0.26874457722641
C            5.04169018386270       -0.02035050475779        0.04193384128176
C            5.97172557441040        1.05581159007040        0.32838382338759
C            7.34805045171337        0.82347247982483        0.28472557907773
C            8.23110475610995        1.84854194374872        0.55798639910696
C            7.75677666929330        3.11218714105299        0.87657846596981
C            6.39030261137909        3.34895848612664        0.92135064076827
C            5.49981737927408        2.33093634589552        0.64995630844095
N            3.75379709486233        0.19685090727602        0.08494591867375
C            0.96327252558947        0.69445056604555        0.18797784056921
C           -0.38725588762013        0.89864320977416        0.21817353791371
C           -3.36727223498161        1.56034007693869       -0.10972108824547
C           -3.06107424613711        2.37282868470316       -1.21754984199288
C           -2.16457637533118        1.89904614341292       -2.32383399625937
C           -3.60563567405877        3.64348262533111       -1.32312843289654
C           -4.43511132886757        4.16428620499804       -0.34066560492627
C           -5.01269404374400        5.53962167956726       -0.45737950231258
C           -4.72399712015632        3.36916200099113        0.76319622927703
C           -4.19940403403097        2.09666920383548        0.89509699740066
C           -4.52079158539987        1.29456251276905        2.11855369108019
C           -3.66517957930918       -2.02924900356007        1.23811746014955
C           -2.60398778582998       -1.85639185535775        2.28498857258202
C           -4.55631512531226       -3.07938525689089        1.38214171955543
H           -5.99285376527312       -5.33378108490902        1.02417431980636
H           -7.29100168795866       -4.18694000571104        1.33761953056852
H           -6.98267215891786       -4.72519627940720       -0.31366053529875
H           -6.43626123404727       -2.63101907376901       -1.37202122451086
H           -5.78250756644197       -0.82348872665544       -2.61348933408208
H           -5.04530351765389        0.51485006902906       -1.71921954429208
H           -4.03135722086391       -0.59098231027628       -2.63398637958697
H           -1.43662334311704       -2.22194447364134       -0.58914780433288
H            0.99216369372764       -2.58878016192754       -0.66532677514157
H            7.69848565340410       -0.16573618192889        0.03499573368585
H            9.29513242570472        1.66558686131418        0.52346952904957
H            8.45048245061499        3.91214513638289        1.08993580148390
H            6.02248413266045        4.33394053129112        1.16975268728312
H            4.43446623770424        2.49937231854952        0.68085106673247
H            1.65197850482229        1.49636828707341        0.40834581161008
H           -0.77165368848385        1.87629010298179        0.47403739062347
H           -2.09951337567490        0.81563429149824       -2.34944319488906
H           -1.15626390637269        2.28665865960799       -2.17699101411661
H           -2.52461220106321        2.26114043665855       -3.28531086465427
H           -3.37047912564714        4.24415481527797       -2.19117031839915
H           -6.07367748153348        5.47789473626184       -0.70229720864753
H           -4.51381561681574        6.10861048195295       -1.23790223192865
H           -4.92179255483046        6.07639727735479        0.48531046460809
H           -5.36831154789551        3.76066058296413        1.53846337112331
H           -4.95987455499723        0.33746048241278        1.84149977590651
H           -5.21755366893892        1.82882982904775        2.76002165145400
H           -3.61508059551964        1.08893914683476        2.68729306308003
H           -1.75732883105695       -2.50751187067857        2.06678299438033
H           -2.23402624194923       -0.83605759654501        2.31418656912182
H           -2.99026645516449       -2.12790240890141        3.26583088880374
H           -4.46366943243467       -3.73508670673680        2.23714648266259

 projected vibrational frequencies (cm⁻¹)
eigval :       -0.00    -0.00     0.00     0.00     0.00     0.00
eigval :       10.86    13.50    15.83    17.17    19.80    26.31
eigval :       33.00    37.96    38.88    42.57    57.46    67.20
eigval :       83.86    85.59    92.11   105.57   110.01   113.56
eigval :      140.01   145.71   147.60   155.44   160.99   164.60
eigval :      183.13   185.76   192.44   199.96   206.28   208.63
eigval :      242.00   255.16   273.84   276.07   277.98   295.54
eigval :      307.81   313.55   322.65   330.90   363.68   367.07
eigval :      380.43   397.45   402.69   431.73   461.08   479.06
eigval :      482.44   485.59   487.45   501.27   506.65   513.67
eigval :      523.00   528.86   542.33   556.67   574.72   575.56
eigval :      587.36   588.80   590.71   598.48   599.37   623.69
eigval :      652.53   661.19   674.99   678.80   686.36   759.71
eigval :      763.62   796.25   807.18   837.01   840.19   840.64
eigval :      862.38   871.43   881.07   881.78   887.30   902.10
eigval :      915.98   925.89   927.00   929.68   948.89   963.09
eigval :      963.82   974.59   974.96   983.23   993.87  1014.60
eigval :     1017.83  1024.18  1024.78  1026.97  1027.43  1029.14
eigval :     1029.52  1034.85  1037.16  1044.48  1044.85  1064.28
eigval :     1074.86  1092.22  1102.93  1107.31  1112.00  1121.76
eigval :     1127.62  1180.21  1183.72  1190.16  1191.47  1192.83
eigval :     1212.49  1230.83  1231.47  1235.75  1263.26  1268.59
eigval :     1277.96  1299.39  1308.55  1312.14  1315.92  1326.73
eigval :     1330.77  1368.92  1400.58  1401.39  1401.44  1402.37
eigval :     1402.83  1404.56  1405.24  1418.86  1426.02  1426.79
eigval :     1429.07  1434.36  1436.90  1439.79  1464.22  1469.68
eigval :     1470.69  1471.85  1472.37  1473.79  1477.03  1477.40
eigval :     1478.22  1478.64  1481.33  1481.73  1490.90  1491.61
eigval :     1492.31  1515.92  1519.29  1564.70  1567.45  1571.30
eigval :     1584.63  1588.09  2990.77  2994.46  2999.92  3000.74
eigval :     3008.16  3008.62  3021.38  3021.92  3022.49  3023.64
eigval :     3023.95  3030.05  3039.08  3039.22  3040.52  3042.89
eigval :     3054.91  3055.77  3064.34  3064.78  3065.24  3066.23
eigval :     3066.55  3067.34  3073.99  3079.47  3084.96  3088.18
eigval :     3089.55  3100.49  3105.82

   temp. (K)  partition function   enthalpy   heat capacity  entropy
                                   cal/mol     cal/K/mol   cal/K/mol   J/K/mol
 298.15  VIB  0.159E+20            22238.565    126.722    142.952
         ROT  0.598E+08              888.752      2.981     38.565
         INT  0.951E+27            23127.317    129.703    181.517
         TR   0.113E+29             1481.254      4.968     44.588
         TOT                       24608.5712   134.6711   226.1051   946.0238

       T/K    H(0)-H(T)+PV         H(T)/Eh          T*S/Eh         G(T)/Eh
   ------------------------------------------------------------------------
    298.15    0.392163E-01    0.577596E+00    0.107430E+00    0.470166E+00
   ------------------------------------------------------------------------

         :::::::::::::::::::::::::::::::::::::::::::::::::::::
         ::                  THERMODYNAMIC                  ::
         :::::::::::::::::::::::::::::::::::::::::::::::::::::
         :: total free energy        -100.506825569449 Eh   ::
         ::.................................................::
         :: total energy             -100.976991691836 Eh   ::
         :: zero point energy           0.538379707126 Eh   ::
         :: G(RRHO) w/o ZPVE           -0.068213584739 Eh   ::
         :: G(RRHO) contrib.            0.470166122387 Eh   ::
         :::::::::::::::::::::::::::::::::::::::::::::::::::::

           -------------------------------------------------
          | TOTAL ENERGY             -100.976991691836 Eh   |
          | TOTAL ENTHALPY           -100.399395730348 Eh   |
          | TOTAL FREE ENERGY        -100.506825569449 Eh   |
          | GRADIENT NORM               0.000119109418 Eh/α |
           -------------------------------------------------

 * finished run on 2025/08/29 at 20:30:49.397
