   * xtb version 6.7.1 (edcfbbe) compiled by 'albert@albert-system' on 2024-07-22

   ID    Z sym.   atoms
    1    6 C      1-6, 8-12, 14, 17-23, 25-38
    2    5 B      7
    3    7 N      13, 16, 24
    4   17 Cl     15
    5    1 H      39-69

          program call               : xtb data2507/gas/PX-TRZ/PX-TRZ_gas_S0_crest.xyz --gfn 2 --ohess vtight --parallel 40 --molden --ceasefiles --namespace data2507/gas/PX-TRZ/PX-TRZ_gas_S0_finalOpt
          :  Hamiltonian                  GFN2-xTB          :
 * total energy  :  -101.0521624 Eh     change       -0.1450243E-07 Eh
 * total energy  :  -101.0521634 Eh     change       -0.9881493E-06 Eh
 * total energy  :  -101.0521641 Eh     change       -0.6726215E-06 Eh
 * total energy  :  -101.0521658 Eh     change       -0.1735239E-05 Eh
 * total energy  :  -101.0521659 Eh     change       -0.7910380E-07 Eh
 * total energy  :  -101.0521665 Eh     change       -0.6174661E-06 Eh
 * total energy  :  -101.0521669 Eh     change       -0.3614219E-06 Eh
 * total energy  :  -101.0521669 Eh     change       -0.1498577E-08 Eh
 * total energy  :  -101.0521673 Eh     change       -0.3929031E-06 Eh
 * total energy  :  -101.0521678 Eh     change       -0.4961523E-06 Eh
 * total energy  :  -101.0521683 Eh     change       -0.5519968E-06 Eh
 * total energy  :  -101.0521689 Eh     change       -0.5660690E-06 Eh
 * total energy  :  -101.0521694 Eh     change       -0.4821815E-06 Eh
 * total energy  :  -101.0521697 Eh     change       -0.3245522E-06 Eh
 * total energy  :  -101.0521700 Eh     change       -0.2851601E-06 Eh
 * total energy  :  -101.0521703 Eh     change       -0.3278955E-06 Eh
 * total energy  :  -101.0521706 Eh     change       -0.2996859E-06 Eh
 * total energy  :  -101.0521706 Eh     change       -0.5739182E-08 Eh
   *** GEOMETRY OPTIMIZATION CONVERGED AFTER 18 ITERATIONS ***

 final structure:
================
69
 xtb: 6.7.1 (edcfbbe)
C           -6.23230851507111       -4.62481649318877        1.05118992280278
C           -5.38291057283797       -3.41593770713325        0.80299519404607
C           -5.63387005318490       -2.59295871844461       -0.28719886441363
C           -4.86916814406099       -1.46667329374116       -0.53778828271214
C           -5.18392121912488       -0.62769635208160       -1.74208841466894
C           -3.79520285425166       -1.13329127154968        0.30796300130307
B           -2.87776635224179        0.09838237804047        0.00015879151086
C           -1.32988671479950       -0.13444179596212       -0.07678990424181
C           -0.79921557813460       -1.34160655738957       -0.54793402656473
C            0.56064930923540       -1.55052364205472       -0.62629286735001
C            1.44429585713364       -0.55171670523450       -0.21369292699116
C            2.88120846774865       -0.76875415229865       -0.28362252625610
N            3.31515169339452       -1.94177777049320       -0.76196041025352
C            4.62066894782625       -2.07203428798650       -0.79760565836714
Cl           5.22626542342659       -3.55105393012427       -1.40044207703938
N            5.51130252042571       -1.18411808902308       -0.41786485370766
C            4.99658971272696       -0.03996693756227        0.04817474907706
C            5.92623616836813        0.99337136459326        0.49074196842370
C            7.30146607664938        0.77350256335005        0.41919094058240
C            8.17857243215540        1.75373396588760        0.84033469926087
C            7.69428199618935        2.95558784679664        1.33410454408791
C            6.32755845411386        3.17840998036952        1.40678653915978
C            5.44355826187094        2.20370272033241        0.98771929051837
N            3.69392585794159        0.19895473661742        0.12785307610312
C            0.93628137828542        0.65645794387642        0.26703031089928
C           -0.42563959119424        0.85731914732538        0.32306230094293
C           -3.41839400868741        1.55009829799134       -0.23367350513500
C           -3.04493401000721        2.28771173561395       -1.36706869711412
C           -2.17294874406056        1.69481200241264       -2.43842528089170
C           -3.49192002563389        3.58983751620071       -1.53923728257564
C           -4.30526082422150        4.20587627903423       -0.60277952102595
C           -4.79300654316301        5.60948873856252       -0.79403703732140
C           -4.67783083540200        3.47710234189958        0.51881096215825
C           -4.25714021694964        2.17182621232941        0.70914317351114
C           -4.68336234671853        1.44483240805511        1.95137798247390
C           -3.54511108666991       -1.96478381869904        1.40961258316612
C           -2.43684527878878       -1.67103076394507        2.38178785482179
C           -4.33615960816424       -3.08040126009004        1.64483614572583
H           -7.27692601495194       -4.33769082628529        1.16691396995892
H           -6.16895248944949       -5.31162592611503        0.20769166518688
H           -5.91361583226214       -5.14792294496295        1.94933652557451
H           -6.45034996742416       -2.83838211597806       -0.95277734585178
H           -6.07687642832624       -0.99497572462679       -2.24266423938732
H           -5.34394669234846        0.40965146480032       -1.45645219151373
H           -4.35900458384223       -0.65128314326876       -2.45275292543184
H           -1.47830380939424       -2.12215536676332       -0.86177418652773
H            0.96485140357719       -2.48050451289964       -0.99476206381575
H            7.65733672308072       -0.16817620392290        0.03215663827367
H            9.24359137531768        1.58362239786779        0.78516072169944
H            8.38302783762996        3.72002642543830        1.66289650250785
H            5.95379500071338        4.11564814608348        1.79204674248477
H            4.37734784528024        2.35797690657901        1.03668414160843
H            1.62798658814350        1.42228998415328        0.58168531770780
H           -0.81256638861762        1.79827834198475        0.68918706383424
H           -2.46260852700040        2.07650724730856       -3.41592067589770
H           -2.23398834669685        0.61067287619563       -2.45261997757064
H           -1.13191531187535        1.97036752124091       -2.26734442495983
H           -3.19593641454460        4.13402363045442       -2.42594363083276
H           -4.66264096128924        6.18875573488498        0.11851514855461
H           -5.85586087549141        5.60723040550542       -1.03724469582917
H           -4.25774536873563        6.10148609523491       -1.60247616013268
H           -5.31579632834269        3.94142686709475        1.25858808349288
H           -5.17303538582774        0.50706455678455        1.69831089135633
H           -5.37111006674510        2.05272975295729        2.53470969364281
H           -3.82135433054335        1.20970006422031        2.57401829931983
H           -1.54901847269440       -2.24752169426070        2.12029874938917
H           -2.16629070532851       -0.61929679996380        2.37839657245857
H           -2.73356019639852       -1.95492277269213        3.39006069376483
H           -4.12677490223356       -3.70009704703301        2.50625432398946

          :  Hamiltonian                  GFN2-xTB          :
         :: gradient norm              0.000138915340 Eh/a0 ::
         :: HOMO-LUMO gap              1.900941951455 eV    ::
         :: SCC energy              -102.755168278399 Eh    ::
         :: -> dispersion             -0.087231874417 Eh    ::
         :: repulsion energy           1.702997640605 Eh    ::

    * Orbital Energies and Occupations

         #    Occupation            Energy/Eh            Energy/eV
      -------------------------------------------------------------
         1        2.0000           -1.0604922             -28.8575
       ...           ...                  ...                  ...
        82        2.0000           -0.4170265             -11.3479
        83        2.0000           -0.4157025             -11.3118
        84        2.0000           -0.4147328             -11.2855
        85        2.0000           -0.4111947             -11.1892
        86        2.0000           -0.4090717             -11.1314
        87        2.0000           -0.4029364             -10.9645
        88        2.0000           -0.3947523             -10.7418
        89        2.0000           -0.3882878             -10.5658
        90        2.0000           -0.3857149             -10.4958
        91        2.0000           -0.3832847             -10.4297
        92        2.0000           -0.3827471             -10.4151
        93        2.0000           -0.3765518             -10.2465
        94        2.0000           -0.3710161             -10.0959 (HOMO)
        95                         -0.3011579              -8.1949 (LUMO)
        96                         -0.2869545              -7.8084
        97                         -0.2630632              -7.1583
        98                         -0.2339855              -6.3671
        99                         -0.2277494              -6.1974
       100                         -0.2267951              -6.1714
       101                         -0.2134923              -5.8094
       102                         -0.2091658              -5.6917
       103                         -0.2085362              -5.6746
       104                         -0.2046586              -5.5690
       105                         -0.1715557              -4.6683
       ...                                ...                  ...
       188                          0.6757904              18.3892
      -------------------------------------------------------------
                  HL-Gap            0.0698582 Eh            1.9009 eV

     #   Z          covCN         q      C6AA      α(0)
     1   6 C        3.758    -0.108    22.609     6.779
     2   6 C        2.963     0.015    27.684     8.630
     3   6 C        2.929    -0.056    29.402     8.892
     4   6 C        2.966     0.012    27.738     8.639
     5   6 C        3.758    -0.113    22.704     6.793
     6   6 C        2.890    -0.084    30.105     8.996
     7   5 B        2.710     0.248    17.731     7.061
     8   6 C        2.885    -0.049    29.220     8.862
     9   6 C        2.922    -0.026    28.644     8.777
    10   6 C        2.919    -0.024    28.607     8.771
    11   6 C        2.985     0.001    27.986     8.678
    12   6 C        2.998     0.204    23.680     7.982
    13   7 N        1.907    -0.286    28.252     7.881
    14   6 C        2.924     0.286    22.170     7.722
    15  17 Cl       1.031    -0.121   102.938    15.522
    16   7 N        1.907    -0.287    28.276     7.884
    17   6 C        2.998     0.204    23.667     7.980
    18   6 C        2.984     0.003    27.960     8.674
    19   6 C        2.923    -0.021    28.543     8.761
    20   6 C        2.918    -0.026    28.641     8.776
    21   6 C        2.920    -0.021    28.530     8.759
    22   6 C        2.918    -0.026    28.659     8.779
    23   6 C        2.923    -0.022    28.554     8.763
    24   7 N        1.844    -0.285    28.237     7.875
    25   6 C        2.919    -0.025    28.618     8.773
    26   6 C        2.922    -0.026    28.662     8.780
    27   6 C        2.890    -0.084    30.103     8.995
    28   6 C        2.967     0.012    27.735     8.638
    29   6 C        3.759    -0.110    22.651     6.785
    30   6 C        2.929    -0.056    29.389     8.891
    31   6 C        2.963     0.014    27.692     8.632
    32   6 C        3.758    -0.108    22.607     6.779
    33   6 C        2.929    -0.056    29.404     8.893
    34   6 C        2.966     0.012    27.740     8.639
    35   6 C        3.758    -0.113    22.705     6.793
    36   6 C        2.967     0.013    27.732     8.638
    37   6 C        3.759    -0.110    22.650     6.785
    38   6 C        2.929    -0.056    29.383     8.890
    39   1 H        0.925     0.043     2.403     2.424
    40   1 H        0.925     0.044     2.395     2.420
    41   1 H        0.925     0.039     2.465     2.455
    42   1 H        0.925     0.025     2.657     2.549
    43   1 H        0.925     0.038     2.469     2.457
    44   1 H        0.925     0.050     2.323     2.384
    45   1 H        0.925     0.039     2.468     2.457
    46   1 H        0.926     0.036     2.499     2.472
    47   1 H        0.926     0.058     2.224     2.332
    48   1 H        0.926     0.064     2.150     2.293
    49   1 H        0.926     0.042     2.422     2.434
    50   1 H        0.926     0.041     2.438     2.442
    51   1 H        0.926     0.041     2.441     2.443
    52   1 H        0.926     0.058     2.224     2.332
    53   1 H        0.926     0.051     2.306     2.375
    54   1 H        0.925     0.035     2.518     2.482
    55   1 H        0.925     0.041     2.429     2.437
    56   1 H        0.925     0.036     2.496     2.471
    57   1 H        0.924     0.043     2.405     2.425
    58   1 H        0.925     0.024     2.667     2.554
    59   1 H        0.925     0.042     2.418     2.432
    60   1 H        0.924     0.045     2.390     2.417
    61   1 H        0.925     0.039     2.463     2.454
    62   1 H        0.925     0.025     2.661     2.551
    63   1 H        0.925     0.050     2.319     2.381
    64   1 H        0.925     0.038     2.470     2.458
    65   1 H        0.925     0.038     2.470     2.458
    66   1 H        0.924     0.044     2.397     2.421
    67   1 H        0.925     0.036     2.505     2.475
    68   1 H        0.925     0.041     2.430     2.438
    69   1 H        0.925     0.025     2.663     2.552

molecular dipole:
                 x           y           z       tot (Debye)
 q only:       -1.037       1.351       0.551
   full:       -0.846       1.214       0.490       3.962

 projected vibrational frequencies (cm⁻¹)
eigval :       -0.00    -0.00    -0.00     0.00     0.00     0.00
eigval :       -6.20     7.24     8.49    15.72    19.51    26.26
eigval :       27.30    29.69    35.04    44.53    45.67    57.55
eigval :       80.91    83.63    87.40    90.53   102.82   112.71
eigval :      122.97   125.93   140.61   146.20   152.97   163.54
eigval :      181.63   182.72   190.55   198.83   202.69   206.11
eigval :      240.55   269.43   273.45   276.94   284.69   310.07
eigval :      322.50   323.88   329.33   338.18   358.56   364.56
eigval :      385.32   413.66   440.98   446.49   466.10   481.87
eigval :      492.29   496.94   497.51   505.82   510.46   521.92
eigval :      528.97   536.41   561.58   587.68   589.11   598.89
eigval :      600.06   603.62   607.97   619.51   633.64   652.23
eigval :      667.10   679.73   683.00   699.15   752.01   785.04
eigval :      820.43   824.09   836.42   841.27   843.49   875.61
eigval :      877.76   881.42   890.20   890.35   900.78   913.24
eigval :      928.90   931.32   934.57   935.85   964.31   964.72
eigval :      976.94   977.11   981.70  1011.05  1019.90  1021.56
eigval :     1027.23  1028.63  1030.01  1030.59  1032.34  1032.94
eigval :     1039.90  1041.41  1042.30  1045.51  1045.70  1075.12
eigval :     1095.60  1103.84  1110.21  1127.65  1162.79  1166.79
eigval :     1180.49  1189.23  1191.14  1199.44  1213.97  1224.68
eigval :     1224.93  1235.27  1235.94  1256.14  1267.13  1277.43
eigval :     1305.45  1306.71  1317.98  1330.50  1335.22  1338.00
eigval :     1375.79  1380.87  1392.00  1403.35  1403.64  1403.92
eigval :     1404.05  1405.41  1409.05  1428.81  1429.66  1430.93
eigval :     1452.03  1454.44  1466.15  1473.45  1478.37  1480.70
eigval :     1481.72  1482.45  1482.68  1485.16  1485.65  1487.04
eigval :     1487.49  1488.23  1488.90  1494.86  1496.71  1542.40
eigval :     1554.18  1560.82  1561.05  1582.35  1587.52  1594.52
eigval :     1600.77  1602.96  2997.05  2997.40  2998.16  3003.36
eigval :     3010.10  3010.54  3016.05  3022.20  3022.57  3023.38
eigval :     3033.60  3033.95  3037.89  3038.57  3040.88  3042.57
eigval :     3052.25  3052.71  3062.33  3062.69  3063.54  3064.17
eigval :     3069.52  3071.57  3077.21  3084.29  3092.57  3102.34
eigval :     3104.40  3110.44  3111.20

   temp. (K)  partition function   enthalpy   heat capacity  entropy
                                   cal/mol     cal/K/mol   cal/K/mol   J/K/mol
 298.15  VIB  0.308E+21            22116.240    123.895    144.967
         ROT  0.595E+08              888.752      2.981     38.557
         INT  0.183E+29            23004.992    126.876    183.523
         TR   0.113E+29             1481.254      4.968     44.588
         TOT                       24486.2463   131.8439   228.1117   954.4194

       T/K    H(0)-H(T)+PV         H(T)/Eh          T*S/Eh         G(T)/Eh
   ------------------------------------------------------------------------
    298.15    0.390213E-01    0.581849E+00    0.108383E+00    0.473466E+00
   ------------------------------------------------------------------------

         :::::::::::::::::::::::::::::::::::::::::::::::::::::
         ::                  THERMODYNAMIC                  ::
         :::::::::::::::::::::::::::::::::::::::::::::::::::::
         :: total free energy        -100.578704679883 Eh   ::
         ::.................................................::
         :: total energy             -101.052170637790 Eh   ::
         :: zero point energy           0.542827874187 Eh   ::
         :: G(RRHO) w/o ZPVE           -0.069361916279 Eh   ::
         :: G(RRHO) contrib.            0.473465957907 Eh   ::
         :::::::::::::::::::::::::::::::::::::::::::::::::::::

           -------------------------------------------------
          | TOTAL ENERGY             -101.052170637790 Eh   |
          | TOTAL ENTHALPY           -100.470321446316 Eh   |
          | TOTAL FREE ENERGY        -100.578704679883 Eh   |
          | GRADIENT NORM               0.000138929470 Eh/α |
          | HOMO-LUMO GAP               1.900938352027 eV   |
           -------------------------------------------------

 * finished run on 2025/08/29 at 20:25:56.967
