   * xtb version 6.7.1 (edcfbbe) compiled by 'albert@albert-system' on 2024-07-22

   ID    Z sym.   atoms
    1    6 C      1-6, 8-12, 14, 17-23, 25-38
    2    5 B      7
    3    7 N      13, 16, 24
    4   17 Cl     15
    5    1 H      39-69

          program call               : xtb data2507/gas/PX-TRZ/PX-TRZ_gas_S0_finalOpt.xtbopt.xyz --gfn 2 --spinpol --tblite --uhf 2 --ohess vtight --parallel 40 --molden --ceasefiles --namespace data2507/gas/PX-TRZ/PX-TRZ_gas_T1_preOpt
 * total energy  :  -100.9710305 Eh     change        0.8707883E-07 Eh
 * total energy  :  -100.9743514 Eh     change       -0.3320843E-02 Eh
 * total energy  :  -100.9757132 Eh     change       -0.1361849E-02 Eh
 * total energy  :  -100.9758769 Eh     change       -0.1636621E-03 Eh
 * total energy  :  -100.9760629 Eh     change       -0.1860853E-03 Eh
 * total energy  :  -100.9761550 Eh     change       -0.9208570E-04 Eh
 * total energy  :  -100.9762559 Eh     change       -0.1008364E-03 Eh
 * total energy  :  -100.9763467 Eh     change       -0.9084512E-04 Eh
 * total energy  :  -100.9764218 Eh     change       -0.7508951E-04 Eh
 * total energy  :  -100.9764795 Eh     change       -0.5774087E-04 Eh
 * total energy  :  -100.9769954 Eh     change       -0.1898449E-06 Eh
 * total energy  :  -100.9769955 Eh     change       -0.1454065E-06 Eh
 * total energy  :  -100.9769958 Eh     change       -0.3071558E-06 Eh
 * total energy  :  -100.9769961 Eh     change       -0.2997536E-06 Eh
 * total energy  :  -100.9769965 Eh     change       -0.3766659E-06 Eh
 * total energy  :  -100.9769967 Eh     change       -0.1804599E-06 Eh
 * total energy  :  -100.9769969 Eh     change       -0.1901540E-06 Eh
 * total energy  :  -100.9769970 Eh     change       -0.1545514E-06 Eh
 * total energy  :  -100.9769971 Eh     change       -0.9149393E-07 Eh
   *** GEOMETRY OPTIMIZATION CONVERGED AFTER 81 ITERATIONS ***

 final structure:
================
69
 xtb: 6.7.1 (edcfbbe)
C           -6.50363879002129       -4.42966078336774        0.95130249650973
C           -5.54865726438377       -3.30176304996493        0.71912861233860
C           -5.64749579032586       -2.51822808201621       -0.42594290640155
C           -4.77476452676214       -1.47294594178834       -0.66455120096155
C           -4.90899020486544       -0.67968247121964       -1.92794274074624
C           -3.76495123907139       -1.15847759797201        0.26950762635536
B           -2.81212794567671        0.06830335734764        0.04264225284045
C           -1.29176359511968       -0.16523701904876        0.01797777179640
C           -0.74678395954181       -1.44850229793558       -0.21304337429620
C            0.60234873269840       -1.66251822793112       -0.24035275096934
C            1.50616442123889       -0.60111922306371       -0.01998603240597
C            2.90214950930218       -0.82331472996331       -0.03882936259277
N            3.38406985896703       -2.08994552870272       -0.27372897787889
C            4.67369267873346       -2.22177102559413       -0.27966246810044
Cl           5.28869997143330       -3.79450059516244       -0.57522276029971
N            5.57186444727912       -1.27936746405064       -0.08201102761043
C            5.05379220946502       -0.03911889521970        0.15002910139731
C            5.98263984729936        1.05171908553971        0.37874702077325
C            7.35897486119487        0.81583146506182        0.36222814865640
C            8.24104722587752        1.85480412244471        0.58057676909808
C            7.76574737341741        3.13604153448127        0.81681968116278
C            6.39927975406196        3.37643137679216        0.83425040238570
C            5.50976138109856        2.34459011243919        0.61735332905159
N            3.76575694758045        0.18087043757851        0.16903804814080
C            0.97472129827145        0.68473536186101        0.21869767843696
C           -0.37595711573436        0.89037325111327        0.22678809744114
C           -3.35483585191785        1.52846986414744       -0.16011803908906
C           -3.04534240344146        2.26657971112878       -1.31819773369846
C           -2.14285273141854        1.72181982437182       -2.38627435342772
C           -3.59156482093899        3.52600951876254       -1.50937040164033
C           -4.42598275793579        4.10931409014049       -0.56617702701754
C           -5.00815551114274        5.47040401899779       -0.78340049779976
C           -4.71708078951204        3.38900690668203        0.58667884945622
C           -4.19050539345198        2.12871911823266        0.80437629675063
C           -4.51372592292540        1.40937462657222        2.07772816864779
C           -3.65532764857654       -1.96376405573306        1.41956485521451
C           -2.59626676167855       -1.72318895696485        2.45494622836848
C           -4.54778588747832       -3.00281966230684        1.63237363660442
H           -7.48444937145805       -4.03698481965672        1.22217184887163
H           -6.62395884061976       -5.02388598838551        0.04712440000527
H           -6.15907007890643       -5.07507297094707        1.75536083240249
H           -6.42161117828391       -2.73904551406825       -1.14803941300830
H           -5.76494721472612       -1.01674523838924       -2.50770608534852
H           -5.03120561873059        0.37843500119914       -1.70195132457480
H           -4.01402012153081       -0.78432597493732       -2.53951038325631
H           -1.42104371151615       -2.27445423294270       -0.39171747900599
H            1.00801601071067       -2.64487572331427       -0.43023885329561
H            7.71018994260928       -0.18715157488978        0.17681529961128
H            9.30506174986304        1.66901086929608        0.56737295912235
H            8.45868225023157        3.94688031552786        0.98729370951461
H            6.03072637762321        4.37515064369524        1.01839459843290
H            4.44443189247793        2.51565340666251        0.62791732952917
H            1.66214164574961        1.49880140480981        0.39389423657991
H           -0.76167125496371        1.88201403312824        0.41899133240042
H           -2.49117945178316        2.02915687473328       -3.37079313940039
H           -2.08635596996107        0.63829183584270       -2.34724964414740
H           -1.13269705867249        2.10944286169142       -2.25276005981358
H           -3.35462690187786        4.06907035006932       -2.41411197889682
H           -5.05406227083297        6.02591922031667        0.15106262326124
H           -6.02514344720939        5.38061540804639       -1.16796770364858
H           -4.42228541584175        6.03531612648574       -1.50446307361099
H           -5.36425421007207        3.82934853294204        1.33280765566568
H           -4.95282290119454        0.43615555030723        1.86390953414282
H           -5.21112903593945        1.98499503035605        2.68162626749826
H           -3.60883956310437        1.24130581955284        2.65995055157989
H           -1.75215502815155       -2.39182520594295        2.28497257038342
H           -2.22153798635379       -0.70499555977199        2.41443949955923
H           -2.98641269055610       -1.92435645260527        3.45111993354026
H           -4.45480448296571       -3.59862037023860        2.53008628153004

 projected vibrational frequencies (cm⁻¹)
eigval :       -0.00    -0.00    -0.00    -0.00     0.00     0.00
eigval :       10.84    14.83    16.90    19.43    20.69    26.94
eigval :       33.02    37.72    39.23    42.50    57.16    67.59
eigval :       83.72    85.82    92.50   105.75   109.58   113.48
eigval :      139.93   145.67   148.17   156.00   161.01   164.42
eigval :      182.23   185.56   192.39   200.04   206.45   208.62
eigval :      241.82   255.39   273.85   276.14   277.96   295.38
eigval :      307.83   313.65   322.79   331.13   363.43   367.07
eigval :      380.33   397.04   402.69   431.89   461.18   479.99
eigval :      481.52   485.39   487.30   501.17   506.71   513.50
eigval :      522.88   528.63   543.24   556.77   574.66   575.15
eigval :      587.39   588.83   590.72   598.52   599.43   623.48
eigval :      652.52   661.21   675.00   678.94   686.37   759.51
eigval :      763.61   795.87   807.12   836.98   840.25   840.78
eigval :      862.50   871.43   880.99   881.55   887.24   902.10
eigval :      915.96   925.94   927.02   929.66   947.18   963.20
eigval :      963.88   974.71   974.93   982.96   995.58  1015.08
eigval :     1017.86  1023.91  1024.83  1027.21  1027.26  1028.90
eigval :     1029.76  1034.68  1037.03  1044.44  1044.79  1064.16
eigval :     1075.19  1092.23  1102.82  1107.13  1111.82  1122.25
eigval :     1127.77  1180.31  1184.14  1190.09  1191.65  1193.03
eigval :     1212.39  1230.87  1231.45  1235.84  1263.31  1268.55
eigval :     1278.02  1299.04  1307.26  1311.60  1316.85  1327.77
eigval :     1330.87  1368.61  1400.72  1401.33  1401.45  1402.84
eigval :     1403.07  1404.62  1405.32  1419.33  1425.94  1426.56
eigval :     1429.34  1434.20  1436.99  1439.51  1464.34  1469.54
eigval :     1470.81  1471.80  1472.54  1473.80  1476.56  1477.44
eigval :     1478.35  1480.04  1480.98  1481.19  1490.66  1491.50
eigval :     1492.33  1515.46  1519.31  1564.40  1567.74  1571.28
eigval :     1584.48  1588.05  2990.81  2994.22  3000.12  3000.34
eigval :     3008.23  3009.04  3021.68  3022.40  3023.32  3023.48
eigval :     3023.99  3030.53  3039.30  3039.53  3040.30  3043.60
eigval :     3055.28  3055.68  3064.19  3065.33  3065.79  3066.50
eigval :     3066.70  3067.07  3074.31  3079.84  3085.27  3088.33
eigval :     3089.98  3100.74  3106.03

   temp. (K)  partition function   enthalpy   heat capacity  entropy
                                   cal/mol     cal/K/mol   cal/K/mol   J/K/mol
 298.15  VIB  0.114E+20            22229.896    126.749    142.647
         ROT  0.598E+08              888.752      2.981     38.565
         INT  0.679E+27            23118.648    129.730    181.212
         TR   0.113E+29             1481.254      4.968     44.588
         TOT                       24599.9019   134.6984   225.8005   944.7492

       T/K    H(0)-H(T)+PV         H(T)/Eh          T*S/Eh         G(T)/Eh
   ------------------------------------------------------------------------
    298.15    0.392024E-01    0.577612E+00    0.107285E+00    0.470327E+00
   ------------------------------------------------------------------------

         :::::::::::::::::::::::::::::::::::::::::::::::::::::
         ::                  THERMODYNAMIC                  ::
         :::::::::::::::::::::::::::::::::::::::::::::::::::::
         :: total free energy        -100.506669957818 Eh   ::
         ::.................................................::
         :: total energy             -100.976997147824 Eh   ::
         :: zero point energy           0.538409845797 Eh   ::
         :: G(RRHO) w/o ZPVE           -0.068082655792 Eh   ::
         :: G(RRHO) contrib.            0.470327190005 Eh   ::
         :::::::::::::::::::::::::::::::::::::::::::::::::::::

           -------------------------------------------------
          | TOTAL ENERGY             -100.976997147824 Eh   |
          | TOTAL ENTHALPY           -100.399384863036 Eh   |
          | TOTAL FREE ENERGY        -100.506669957818 Eh   |
          | GRADIENT NORM               0.000076001277 Eh/α |
           -------------------------------------------------

 * finished run on 2025/08/29 at 20:26:10.870
