   * xtb version 6.7.1 (edcfbbe) compiled by 'albert@albert-system' on 2024-07-22

   ID    Z sym.   atoms
    1    6 C      1-6, 8-12, 14, 17-23, 25-38
    2    5 B      7
    3    7 N      13, 16, 24
    4   17 Cl     15
    5    1 H      39-69

          program call               : xtb data2507/gas/PX-TRZ/PX-TRZ.xyz --gfn 2 --ohess vtight --parallel 40 --molden --ceasefiles --namespace data2507/gas/PX-TRZ/PX-TRZ_gas_S0_preOpt
          :  Hamiltonian                  GFN2-xTB          :
 * total energy  :  -101.0153088 Eh     change       -0.3985946E-08 Eh
 * total energy  :  -101.0434318 Eh     change       -0.2812298E-01 Eh
 * total energy  :  -101.0498948 Eh     change       -0.6462997E-02 Eh
 * total energy  :  -101.0504774 Eh     change       -0.5825960E-03 Eh
 * total energy  :  -101.0507150 Eh     change       -0.2375675E-03 Eh
 * total energy  :  -101.0508293 Eh     change       -0.1143038E-03 Eh
 * total energy  :  -101.0509541 Eh     change       -0.1247622E-03 Eh
 * total energy  :  -101.0510903 Eh     change       -0.1362702E-03 Eh
 * total energy  :  -101.0512044 Eh     change       -0.1140930E-03 Eh
 * total energy  :  -101.0512942 Eh     change       -0.8974526E-04 Eh
 * total energy  :  -101.0521591 Eh     change       -0.1207640E-06 Eh
 * total energy  :  -101.0521594 Eh     change       -0.2315760E-06 Eh
 * total energy  :  -101.0521598 Eh     change       -0.4163495E-06 Eh
 * total energy  :  -101.0521603 Eh     change       -0.5531234E-06 Eh
 * total energy  :  -101.0521611 Eh     change       -0.7240155E-06 Eh
 * total energy  :  -101.0521614 Eh     change       -0.3637691E-06 Eh
 * total energy  :  -101.0521619 Eh     change       -0.4956315E-06 Eh
 * total energy  :  -101.0521622 Eh     change       -0.2776575E-06 Eh
 * total energy  :  -101.0521622 Eh     change       -0.5672092E-08 Eh
   *** GEOMETRY OPTIMIZATION CONVERGED AFTER 122 ITERATIONS ***

 final structure:
================
69
 xtb: 6.7.1 (edcfbbe)
C           -5.79495667029362       -4.37365949190599        0.67897359569184
C           -4.81057661907382       -3.25868289443441        0.49960185629807
C           -5.01422412184776       -2.26842275178869       -0.44989796095634
C           -4.12431163272391       -1.21769930210906       -0.60569025745837
C           -4.39611792184645       -0.18804529457360       -1.66361975867616
C           -2.97080485712125       -1.13779921700907        0.19400546076540
B           -1.92074126820036        0.00560474945594       -0.01429019007392
C           -0.42166116715582       -0.39533724171011       -0.23380987839742
C           -0.07621534635702       -1.57722976985967       -0.90067316270728
C            1.23940395526878       -1.93130280143383       -1.10745671449075
C            2.26498192152165       -1.11232589197880       -0.63175618747976
C            3.65616317001150       -1.48474272013225       -0.83859312073767
N            3.90805596202516       -2.62033142631506       -1.50205625294915
C            5.18184389812666       -2.89777061677145       -1.65380934989592
Cl           5.55702918922062       -4.33732373104055       -2.49320675952178
N            6.19925492215950       -2.18419566309949       -1.22782590853028
C            5.86311107052011       -1.06526548195162       -0.57500364409395
C            6.94191784501555       -0.22208825777247       -0.07179520117498
C            8.27099688812047       -0.59102490554859       -0.27728122307018
C            9.28993746247816        0.20905268113386        0.20144308307821
C            8.99380804276536        1.37814615409974        0.88576694589985
C            7.67362413023259        1.74887340136454        1.09203012933699
C            6.64868507100100        0.95469494446423        0.61671957753760
N            4.60850476195742       -0.68845257734066       -0.36394751613770
C            1.94265523675955        0.06622700302161        0.04347041883801
C            0.62259643845263        0.41586503632235        0.22719319359025
C           -2.28376551572365        1.52972508917743       -0.01473576408710
C           -1.88574032540105        2.36763628576373       -1.06688858772154
C           -1.16179290001613        1.82929473079230       -2.26932076188007
C           -2.17121583831267        3.72516020355554       -1.03359526676384
C           -2.84240120689423        4.29755360404380        0.03375548201272
C           -3.15120096123600        5.76315796869038        0.07010567255074
C           -3.23966638941576        3.46952883318796        1.07538282984863
C           -2.97988334944001        2.10982096388113        1.06143172139715
C           -3.42376590049429        1.27313119015313        2.22599435540122
C           -2.76795290987320       -2.14003868647316        1.15601235304533
C           -1.57567988393168       -2.11994738066609        2.07138587818565
C           -3.68155633951957       -3.17252432437257        1.29970560961636
H           -5.28775534142221       -5.29774822502509        0.94828922009166
H           -6.49311783865632       -4.12876176663907        1.48049380580361
H           -6.36864574945076       -4.53660380963496       -0.23041047408564
H           -5.89075110657929       -2.31606026207441       -1.08173882889087
H           -5.35549245031058       -0.37281178445303       -2.14134915647895
H           -4.40575008050919        0.81105117120869       -1.23357548952160
H           -3.62245101696056       -0.21059055050658       -2.42971993132560
H           -0.86567402442362       -2.21975675694832       -1.26519055376656
H            1.50043417642985       -2.84023670659253       -1.62679840192782
H            8.47980125183217       -1.50413912943922       -0.81190265966651
H           10.31919419419739       -0.07660732413709        0.04242412493930
H            9.79310751778185        2.00152012219795        1.25910438922247
H            7.44659622545993        2.66020645470696        1.62539075577904
H            5.61581773312790        1.22582755641283        0.76729362801268
H            2.74272711396548        0.69278066636006        0.40585164860848
H            0.38003551147002        1.33395952320806        0.74433536808121
H           -1.35924931652801        0.77178010960704       -2.41756751938686
H           -0.08592069663745        1.95597380388032       -2.14504058038506
H           -1.46028841064742        2.37195159128202       -3.16461745885456
H           -1.86042160093703        4.34762842735896       -1.86179956805691
H           -2.79276257087277        6.20555544348140        0.99855802026683
H           -4.22828147191302        5.92288205649288        0.02082666642841
H           -2.68704395407570        6.28048033731469       -0.76590052413735
H           -3.76899328987990        3.89957336363647        1.91488469504139
H           -4.03541937218746        0.43932595777489        1.88871257961050
H           -4.00107493608553        1.86939797049767        2.92882509715674
H           -2.56419183805249        0.86059859544622        2.75239230161817
H           -0.77741982381180       -2.73703815068804        1.65810356013481
H           -1.18694271316025       -1.11448331495863        2.20331869801817
H           -1.84052827040300       -2.52580505806169        3.04615528876515
H           -3.50787969151756       -3.92910972247349        2.05292660254549

          :  Hamiltonian                  GFN2-xTB          :
         :: gradient norm              0.000045304329 Eh/a0 ::
         :: HOMO-LUMO gap              1.898397902881 eV    ::
         :: SCC energy              -102.755111344569 Eh    ::
         :: -> dispersion             -0.087228238128 Eh    ::
         :: repulsion energy           1.702949133139 Eh    ::

    * Orbital Energies and Occupations

         #    Occupation            Energy/Eh            Energy/eV
      -------------------------------------------------------------
         1        2.0000           -1.0605006             -28.8577
       ...           ...                  ...                  ...
        82        2.0000           -0.4170423             -11.3483
        83        2.0000           -0.4156494             -11.3104
        84        2.0000           -0.4147414             -11.2857
        85        2.0000           -0.4112014             -11.1894
        86        2.0000           -0.4090351             -11.1304
        87        2.0000           -0.4030812             -10.9684
        88        2.0000           -0.3947023             -10.7404
        89        2.0000           -0.3882944             -10.5660
        90        2.0000           -0.3857286             -10.4962
        91        2.0000           -0.3833240             -10.4308
        92        2.0000           -0.3827048             -10.4139
        93        2.0000           -0.3766603             -10.2494
        94        2.0000           -0.3709290             -10.0935 (HOMO)
        95                         -0.3011641              -8.1951 (LUMO)
        96                         -0.2869666              -7.8088
        97                         -0.2630628              -7.1583
        98                         -0.2339935              -6.3673
        99                         -0.2277650              -6.1978
       100                         -0.2268146              -6.1719
       101                         -0.2135986              -5.8123
       102                         -0.2091619              -5.6916
       103                         -0.2085364              -5.6746
       104                         -0.2046198              -5.5680
       105                         -0.1715982              -4.6694
       ...                                ...                  ...
       188                          0.6757117              18.3871
      -------------------------------------------------------------
                  HL-Gap            0.0697649 Eh            1.8984 eV

     #   Z          covCN         q      C6AA      α(0)
     1   6 C        3.758    -0.108    22.608     6.779
     2   6 C        2.963     0.015    27.683     8.630
     3   6 C        2.928    -0.056    29.389     8.890
     4   6 C        2.967     0.012    27.736     8.638
     5   6 C        3.759    -0.113    22.704     6.793
     6   6 C        2.890    -0.084    30.107     8.996
     7   5 B        2.710     0.248    17.730     7.061
     8   6 C        2.885    -0.049    29.218     8.862
     9   6 C        2.922    -0.026    28.646     8.777
    10   6 C        2.919    -0.024    28.609     8.771
    11   6 C        2.985     0.001    27.986     8.678
    12   6 C        2.998     0.204    23.680     7.982
    13   7 N        1.907    -0.286    28.253     7.881
    14   6 C        2.924     0.286    22.170     7.722
    15  17 Cl       1.030    -0.121   102.938    15.522
    16   7 N        1.907    -0.286    28.275     7.884
    17   6 C        2.998     0.204    23.667     7.980
    18   6 C        2.984     0.003    27.960     8.674
    19   6 C        2.923    -0.021    28.543     8.761
    20   6 C        2.918    -0.026    28.641     8.776
    21   6 C        2.920    -0.021    28.530     8.759
    22   6 C        2.918    -0.026    28.659     8.779
    23   6 C        2.923    -0.022    28.554     8.763
    24   7 N        1.844    -0.285    28.236     7.875
    25   6 C        2.919    -0.025    28.617     8.772
    26   6 C        2.922    -0.026    28.661     8.779
    27   6 C        2.890    -0.084    30.103     8.995
    28   6 C        2.967     0.012    27.736     8.638
    29   6 C        3.759    -0.110    22.650     6.785
    30   6 C        2.929    -0.056    29.387     8.890
    31   6 C        2.963     0.014    27.693     8.632
    32   6 C        3.758    -0.108    22.607     6.779
    33   6 C        2.929    -0.057    29.405     8.893
    34   6 C        2.966     0.012    27.742     8.639
    35   6 C        3.758    -0.113    22.704     6.793
    36   6 C        2.967     0.012    27.733     8.638
    37   6 C        3.759    -0.110    22.653     6.785
    38   6 C        2.929    -0.056    29.395     8.891
    39   1 H        0.925     0.041     2.429     2.437
    40   1 H        0.924     0.045     2.386     2.415
    41   1 H        0.925     0.040     2.448     2.447
    42   1 H        0.925     0.025     2.664     2.553
    43   1 H        0.925     0.039     2.469     2.457
    44   1 H        0.925     0.050     2.323     2.383
    45   1 H        0.925     0.039     2.467     2.456
    46   1 H        0.926     0.036     2.499     2.472
    47   1 H        0.926     0.058     2.223     2.332
    48   1 H        0.926     0.064     2.150     2.293
    49   1 H        0.926     0.042     2.422     2.434
    50   1 H        0.926     0.041     2.438     2.442
    51   1 H        0.926     0.041     2.441     2.443
    52   1 H        0.926     0.058     2.224     2.332
    53   1 H        0.926     0.051     2.307     2.375
    54   1 H        0.925     0.035     2.519     2.482
    55   1 H        0.925     0.036     2.496     2.471
    56   1 H        0.924     0.043     2.406     2.426
    57   1 H        0.925     0.042     2.429     2.437
    58   1 H        0.925     0.024     2.668     2.554
    59   1 H        0.925     0.043     2.411     2.428
    60   1 H        0.925     0.044     2.395     2.420
    61   1 H        0.925     0.039     2.467     2.456
    62   1 H        0.925     0.025     2.661     2.551
    63   1 H        0.925     0.050     2.320     2.382
    64   1 H        0.925     0.038     2.470     2.458
    65   1 H        0.925     0.038     2.473     2.459
    66   1 H        0.924     0.044     2.397     2.421
    67   1 H        0.925     0.036     2.504     2.475
    68   1 H        0.925     0.041     2.432     2.439
    69   1 H        0.925     0.025     2.656     2.548

molecular dipole:
                 x           y           z       tot (Debye)
 q only:       -0.817       1.370       0.823
   full:       -0.646       1.225       0.749       4.001

 projected vibrational frequencies (cm⁻¹)
eigval :       -0.00    -0.00    -0.00    -0.00    -0.00     0.00
eigval :        5.86     6.87     8.19    15.58    19.46    26.08
eigval :       27.20    29.61    35.23    44.13    45.20    57.50
eigval :       79.84    84.30    87.14    90.09   102.40   112.67
eigval :      122.81   125.58   140.52   146.05   152.95   163.14
eigval :      181.67   182.56   190.44   198.69   202.60   205.86
eigval :      240.63   268.94   274.47   276.76   285.02   310.02
eigval :      322.49   323.75   329.12   338.13   358.44   364.54
eigval :      385.58   413.65   440.78   446.49   466.33   482.24
eigval :      490.78   496.97   497.38   506.08   510.44   522.41
eigval :      529.25   537.29   560.45   587.68   589.22   598.99
eigval :      599.87   603.66   608.00   619.61   633.65   652.51
eigval :      667.10   679.54   682.96   699.17   752.00   785.04
eigval :      820.46   824.17   836.34   841.08   843.34   875.62
eigval :      877.74   881.14   890.24   890.31   900.96   913.24
eigval :      928.87   931.32   934.58   935.96   964.40   964.71
eigval :      976.93   977.13   981.69  1011.08  1019.66  1021.48
eigval :     1027.14  1028.27  1030.12  1030.60  1032.20  1033.15
eigval :     1039.91  1041.29  1042.32  1045.53  1045.90  1075.13
eigval :     1095.57  1103.85  1110.22  1127.67  1162.85  1166.57
eigval :     1180.50  1189.24  1191.24  1199.40  1213.65  1224.56
eigval :     1225.01  1235.53  1235.98  1256.12  1267.14  1277.41
eigval :     1305.96  1308.66  1317.83  1330.48  1333.48  1337.09
eigval :     1375.61  1380.80  1391.89  1403.41  1403.62  1403.94
eigval :     1404.08  1405.39  1409.01  1428.81  1429.81  1430.92
eigval :     1452.04  1454.53  1466.19  1473.37  1478.41  1480.60
eigval :     1482.05  1482.57  1483.52  1484.45  1485.59  1486.98
eigval :     1487.40  1488.06  1489.01  1494.87  1496.95  1542.29
eigval :     1554.12  1560.28  1561.12  1582.32  1587.42  1594.50
eigval :     1600.57  1602.84  2992.89  2996.97  2997.95  3001.41
eigval :     3009.68  3010.73  3017.97  3023.09  3023.74  3031.08
eigval :     3033.91  3034.34  3037.57  3038.24  3038.89  3041.93
eigval :     3051.45  3052.66  3062.29  3062.55  3063.64  3064.38
eigval :     3069.41  3071.33  3077.15  3084.23  3092.52  3102.14
eigval :     3104.38  3110.44  3111.16

   temp. (K)  partition function   enthalpy   heat capacity  entropy
                                   cal/mol     cal/K/mol   cal/K/mol   J/K/mol
 298.15  VIB  0.377E+21            22123.131    123.872    145.177
         ROT  0.595E+08              888.752      2.981     38.557
         INT  0.224E+29            23011.883    126.853    183.734
         TR   0.113E+29             1481.254      4.968     44.588
         TOT                       24493.1371   131.8208   228.3224   955.3010

       T/K    H(0)-H(T)+PV         H(T)/Eh          T*S/Eh         G(T)/Eh
   ------------------------------------------------------------------------
    298.15    0.390323E-01    0.581845E+00    0.108483E+00    0.473361E+00
   ------------------------------------------------------------------------

         :::::::::::::::::::::::::::::::::::::::::::::::::::::
         ::                  THERMODYNAMIC                  ::
         :::::::::::::::::::::::::::::::::::::::::::::::::::::
         :: total free energy        -100.578800841622 Eh   ::
         ::.................................................::
         :: total energy             -101.052162211429 Eh   ::
         :: zero point energy           0.542812422939 Eh   ::
         :: G(RRHO) w/o ZPVE           -0.069451053132 Eh   ::
         :: G(RRHO) contrib.            0.473361369807 Eh   ::
         :::::::::::::::::::::::::::::::::::::::::::::::::::::

           -------------------------------------------------
          | TOTAL ENERGY             -101.052162211429 Eh   |
          | TOTAL ENTHALPY           -100.470317489965 Eh   |
          | TOTAL FREE ENERGY        -100.578800841622 Eh   |
          | GRADIENT NORM               0.000045287709 Eh/α |
          | HOMO-LUMO GAP               1.898398484346 eV   |
           -------------------------------------------------

 * finished run on 2025/08/29 at 20:22:41.675
