   * xtb version 6.7.1 (edcfbbe) compiled by 'albert@albert-system' on 2024-07-22

   ID    Z sym.   atoms
    1    6 C      1-8, 10-16, 18, 20-25, 27-40, 42-54, 56, 58, 59, 61-76
    2    7 N      9, 26, 41, 60
    3    9 F      17, 19, 55, 57
    4    1 H      77-126

          program call               : xtb data2507/toluene/4FBTPI/4FBTPI_toluene_S0_finalOpt.xtbopt.xyz --gfn 2 --uhf 2 --gbsa toluene --ohess vtight --parallel 40 --molden --ceasefiles --namespace data2507/toluene/4FBTPI/4FBTPI_toluene_T1_preOpt
      * Solvation model:               GBSA
        Solvent                        toluene
        Solvent mass                       9.2140E+01 g/mol
          :  Hamiltonian                  GFN2-xTB          :
 * total energy  :  -201.8669460 Eh     change       -0.4753502E-07 Eh
 * total energy  :  -201.8715164 Eh     change       -0.4570397E-02 Eh
 * total energy  :  -201.8737704 Eh     change       -0.2254052E-02 Eh
 * total energy  :  -201.8743799 Eh     change       -0.6095135E-03 Eh
 * total energy  :  -201.8751806 Eh     change       -0.8007022E-03 Eh
 * total energy  :  -201.8756397 Eh     change       -0.4590685E-03 Eh
 * total energy  :  -201.8758987 Eh     change       -0.2590486E-03 Eh
 * total energy  :  -201.8759971 Eh     change       -0.9830325E-04 Eh
 * total energy  :  -201.8760522 Eh     change       -0.5518392E-04 Eh
 * total energy  :  -201.8760953 Eh     change       -0.4311217E-04 Eh
 * total energy  :  -201.8765057 Eh     change       -0.2664985E-05 Eh
 * total energy  :  -201.8765080 Eh     change       -0.2287083E-05 Eh
 * total energy  :  -201.8765100 Eh     change       -0.2027864E-05 Eh
 * total energy  :  -201.8765119 Eh     change       -0.1902882E-05 Eh
 * total energy  :  -201.8765139 Eh     change       -0.1962422E-05 Eh
 * total energy  :  -201.8765161 Eh     change       -0.2244062E-05 Eh
 * total energy  :  -201.8765189 Eh     change       -0.2742569E-05 Eh
 * total energy  :  -201.8765222 Eh     change       -0.3355096E-05 Eh
 * total energy  :  -201.8765222 Eh     change       -0.2497984E-08 Eh
   *** GEOMETRY OPTIMIZATION CONVERGED AFTER 94 ITERATIONS ***

 final structure:
================
126
 xtb: 6.7.1 (edcfbbe)
C           -6.16561732093189        5.89879380139926       -1.67834099085957
C           -7.16880954031325        5.09591676249921       -2.52025881797733
C           -6.59919097948415        4.95275671184038       -3.93477540657582
C           -8.50043757341824        5.85611778852590       -2.61297415742202
C           -7.41299055694008        3.75420229610040       -1.84834072036119
C           -7.14742925817034        2.53876845874946       -2.46907934755198
C           -7.38080155699408        1.33490251050352       -1.82684856649052
C           -7.88917065347049        1.32461862379145       -0.53665773558711
N           -8.11376417140027        0.09234291262492        0.12227474265659
C           -7.13006592464572       -0.76537746439564        0.59482744339725
C           -5.71983706677102       -0.52873063058166        0.60076569568385
C           -5.11704045333014        0.74093490919965        0.52551315363508
C           -3.75522579825173        0.87765520032321        0.55976109295095
C           -2.89966194067775       -0.24264762874635        0.64485088072794
C           -1.47046916059217       -0.09583932019763        0.64744901296135
C           -0.79220986968770        1.01168309792385        1.21826392633965
F           -1.50581992615292        1.95777222366891        1.87849046882772
C            0.56916400653141        1.14904764795667        1.21983956062322
F            1.07122380430791        2.21644218516020        1.88910964448392
C            1.45776886840269        0.20447140573139        0.63787933265916
C            2.88384576525571        0.34768213297317        0.62438851133971
C            3.73789311801463       -0.78136961173394        0.61028834592008
C            5.09820851966517       -0.65795868591398        0.55911798481190
C            5.71286396414303        0.61003559081770        0.52091009107440
C            7.12024114186362        0.83106534718171        0.45729268098556
N            7.67713799995920        1.97364222443096        0.84291311355112
C            9.00087629781728        1.82584488274883        0.67698405430896
C           10.02959670614552        2.75643787075124        0.99190400385986
C            9.72779659215329        3.99751106045379        1.56469481022936
C           10.73432290836908        4.87555627566879        1.88968692029624
C           12.05694068052708        4.51602622791669        1.64543173474261
C           12.36470233763275        3.29756358074274        1.07766486822530
C           11.36685160868736        2.37817664760945        0.72712902005608
C           11.65753249929800        1.09369529472756        0.10712574558958
C           12.96487319209763        0.71946135862051       -0.22401251804277
C           13.25014541786213       -0.48211002342388       -0.83538351490159
C           12.22338343218081       -1.36589271161762       -1.15473727827106
C           10.92651134274963       -1.04066679499590       -0.84318745658726
C           10.61419927476397        0.17155077062863       -0.20250533608594
C            9.29181009752070        0.55301096738919        0.13894977412996
N            8.08051808857426       -0.07174892042014        0.01499672636895
C            7.81556659789825       -1.34871205132135       -0.53331372002649
C            8.13138452875639       -2.50197991585847        0.17794400740481
C            7.84233413613208       -3.73906208155018       -0.36196649344124
C            7.23566612211433       -3.86923559651528       -1.61141272641829
C            6.92862159063416       -5.25642957806497       -2.15180043665703
C            6.27715996585332       -5.21854400005866       -3.53734954268725
C            5.96260169345429       -5.95943578601951       -1.18608324082285
C            8.23670954167455       -6.05484868374082       -2.25746491500206
C            6.93190811348469       -2.70373259619991       -2.30598334609210
C            7.21553674256552       -1.45561783389117       -1.77931506892806
C            4.86887552247766        1.74193731108326        0.58965613387449
C            3.51010944549928        1.61869173824991        0.63159076202283
C            0.77451529010480       -0.90114876505115        0.06103719486415
F            1.47809633429405       -1.84146971320341       -0.61885886758097
C           -0.58590457357202       -1.04428349965249        0.07313454950681
F           -1.09680503163112       -2.11417909355498       -0.58577002899139
C           -3.51024368781701       -1.51452351992363        0.73373068525298
C           -4.86990112611018       -1.64844028452316        0.73187891812773
N           -7.65823063573266       -1.88349957799410        1.07580847322248
C           -8.98922496826171       -1.76627295247512        0.93573142419279
C           -9.99376767921384       -2.69159543099507        1.33345737978038
C           -9.65721115004354       -3.89228115247794        1.96945121104184
C          -10.64017834678588       -4.76680332225540        2.36715048785611
C          -11.97412239672048       -4.44532727779842        2.13105809693443
C          -12.31607303637427       -3.26748392532826        1.50113505220730
C          -11.34294495175230       -2.35190632213439        1.07789757138807
C          -11.67048697577150       -1.10876141644981        0.39525991857252
C          -12.99315452407013       -0.76984384584377        0.08665689906580
C          -13.31506376410796        0.39204330619225       -0.58016893901246
C          -12.31183327062424        1.26998472037342       -0.97955613099242
C          -11.00114131300792        0.97889794479762       -0.69251262031821
C          -10.65090853804959       -0.19282141258835        0.00103035305261
C           -9.31279106507080       -0.53839983337468        0.32183717422555
C           -8.16199370866253        2.52886316825232        0.10411188740735
C           -7.92550805011566        3.72057674241096       -0.55123267508136
H           -5.95683795549659        6.85252754150071       -2.15791477329931
H           -6.54899573308020        6.09748464098968       -0.68143323252180
H           -5.23046801028846        5.35033803437771       -1.58131218084957
H           -7.28630412338372        4.41346251272279       -4.58283519724584
H           -5.64047483843800        4.43921800062699       -3.92169166304292
H           -6.44288048396068        5.94123506130565       -4.36167773797924
H           -9.22227560312124        5.28188771501964       -3.19057666732390
H           -8.34800075365782        6.81351971714630       -3.10613117262674
H           -8.92095263158697        6.04406671541846       -1.62907266601285
H           -6.75115320072834        2.50665543914697       -3.46986837590789
H           -7.16582676753697        0.39948715538266       -2.32266648030856
H           -5.72384139860922        1.62918331785663        0.46219301273567
H           -3.33179184393222        1.86684296784773        0.48881153952978
H            3.31409737484027       -1.76976951883796        0.68395690792510
H            5.69936225333792       -1.55165524050379        0.59403320287058
H            8.68953732160720        4.23084710975471        1.74412917070405
H           10.50485264328033        5.83269180398554        2.33333578592686
H           12.85374755383137        5.19815332573180        1.90369536420757
H           13.40397713972928        3.06499319609847        0.91117781331314
H           13.78437608562772        1.38463289230679       -0.00709177026093
H           14.27276442545097       -0.73327977956492       -1.07432353745801
H           12.44297501645077       -2.30093636474255       -1.64762933620788
H           10.13094531949277       -1.71958734651830       -1.10179609258507
H            8.59702957457429       -2.41993026068706        1.14966038255110
H            8.09344709372292       -4.61661433887606        0.21278086892989
H            6.08402138166294       -6.23546622128092       -3.87253612002724
H            6.93057851209793       -4.74416394612746       -4.26613914853842
H            5.32680388713155       -4.69017476026421       -3.50970569092771
H            5.04425271044084       -5.38361450130590       -1.08635813704741
H            6.40076342866944       -6.07730025484851       -0.19882250947914
H            5.70967153264221       -6.94678100193732       -1.56602001527272
H            8.71011319012735       -6.17537332291245       -1.28714388356192
H            8.03574398285150       -7.04416633717869       -2.66229116297276
H            8.93539755786997       -5.54699640050078       -2.91947177475966
H            6.46303724310739       -2.74715143123590       -3.27435625695533
H            6.96539775070417       -0.56056678061957       -2.32988938016413
H            5.33102736583152        2.71655715480582        0.57744023946982
H            2.90711628742131        2.51180432633749        0.63192880372869
H           -2.89547792735552       -2.39393289201136        0.84125158227537
H           -5.32633194761733       -2.62132463916537        0.82511775350600
H           -8.61120632850592       -4.09797982517439        2.13726349347778
H          -10.38369401916420       -5.69252471034950        2.86000788265545
H          -12.75252982996096       -5.12562815042344        2.44449944781790
H          -13.36264886896764       -3.06381291223305        1.34272693699696
H          -13.79596157244106       -1.43113394960424        0.36824108316724
H          -14.34824322641069        0.61665472087255       -0.79934823663014
H          -12.56038402891586        2.17443720248528       -1.51408654131246
H          -10.22490289220636        1.65456601813049       -1.01102504701235
H           -8.55618353860380        2.52197604496516        1.11023127896783
H           -8.14458943012195        4.63969591481697       -0.03091653414715

          :  Hamiltonian                  GFN2-xTB          :
         :: gradient norm              0.000062918446 Eh/a0 ::
         :: HOMO-LUMO gap              0.588144783259 eV    ::
         :: SCC energy              -205.216507698976 Eh    ::
         :: -> dispersion             -0.175701721694 Eh    ::
         :: -> Gsolv                  -0.084112858901 Eh    ::
         :: repulsion energy           3.339985459339 Eh    ::

    * Orbital Energies and Occupations

         #    Occupation            Energy/Eh            Energy/eV
      -------------------------------------------------------------
         1        2.0000           -0.8334406             -22.6791
       ...           ...                  ...                  ...
       174        2.0000           -0.4124609             -11.2236
       175        2.0000           -0.4112029             -11.1894
       176        2.0000           -0.4072716             -11.0824
       177        2.0000           -0.4042978             -11.0015
       178        2.0000           -0.4036047             -10.9826
       179        2.0000           -0.3942702             -10.7286
       180        2.0000           -0.3920431             -10.6680
       181        2.0000           -0.3915217             -10.6538
       182        2.0000           -0.3867385             -10.5237
       183        2.0000           -0.3864434             -10.5157
       184        1.9480           -0.3735914             -10.1659
       185        1.0520           -0.3680736             -10.0158
       186        1.0000           -0.2949980              -8.0273 (HOMO)
       187        0.0000           -0.2733840              -7.4392 (LUMO)
       188                         -0.2625825              -7.1452
       189                         -0.2597893              -7.0692
       190                         -0.2588116              -7.0426
       191                         -0.2526484              -6.8749
       192                         -0.2456238              -6.6838
       193                         -0.2414422              -6.5700
       194                         -0.2393730              -6.5137
       195                         -0.2376961              -6.4680
       196                         -0.2372029              -6.4546
       197                         -0.2363372              -6.4311
       ...                                ...                  ...
       354                          0.7161048              19.4862
      -------------------------------------------------------------
                  HL-Gap            0.0216139 Eh            0.5881 eV

     #   Z          covCN         q      C6AA      α(0)
     1   6 C        3.761    -0.107    22.597     6.776
     2   6 C        3.903     0.027    20.064     6.367
     3   6 C        3.761    -0.111    22.663     6.786
     4   6 C        3.761    -0.108    22.609     6.778
     5   6 C        2.972     0.015    27.666     8.628
     6   6 C        2.925    -0.035    28.877     8.813
     7   6 C        2.920    -0.040    28.994     8.830
     8   6 C        2.912     0.059    26.686     8.471
     9   7 N        2.831    -0.049    22.186     6.996
    10   6 C        3.173     0.139    24.631     8.106
    11   6 C        2.971    -0.007    28.201     8.711
    12   6 C        2.915    -0.037    28.908     8.817
    13   6 C        2.919    -0.034    28.856     8.809
    14   6 C        2.969     0.025    27.447     8.593
    15   6 C        2.966    -0.043    29.076     8.845
    16   6 C        2.784     0.128    25.177     8.219
    17   9 F        0.787    -0.224    11.485     4.003
    18   6 C        2.783     0.128    25.191     8.221
    19   9 F        0.787    -0.223    11.474     4.001
    20   6 C        2.964    -0.043    29.065     8.843
    21   6 C        2.968     0.024    27.465     8.596
    22   6 C        2.919    -0.035    28.873     8.811
    23   6 C        2.915    -0.036    28.906     8.816
    24   6 C        2.971    -0.009    28.230     8.715
    25   6 C        3.172     0.139    24.635     8.108
    26   7 N        1.890    -0.309    28.856     7.964
    27   6 C        3.189     0.074    25.877     8.298
    28   6 C        2.984    -0.002    28.068     8.690
    29   6 C        2.922    -0.026    28.659     8.779
    30   6 C        2.916    -0.028    28.708     8.786
    31   6 C        2.917    -0.027    28.677     8.781
    32   6 C        2.921    -0.032    28.803     8.801
    33   6 C        2.978     0.001    28.006     8.681
    34   6 C        2.978     0.004    27.928     8.669
    35   6 C        2.921    -0.031    28.785     8.798
    36   6 C        2.916    -0.027    28.675     8.781
    37   6 C        2.915    -0.029    28.726     8.789
    38   6 C        2.919    -0.035    28.873     8.811
    39   6 C        2.976    -0.003    28.105     8.696
    40   6 C        3.062     0.036    27.137     8.543
    41   7 N        2.830    -0.049    22.186     6.996
    42   6 C        2.912     0.059    26.688     8.471
    43   6 C        2.918    -0.041    29.011     8.832
    44   6 C        2.927    -0.032    28.805     8.802
    45   6 C        2.973     0.016    27.661     8.627
    46   6 C        3.903     0.027    20.064     6.367
    47   6 C        3.761    -0.111    22.663     6.786
    48   6 C        3.761    -0.107    22.597     6.776
    49   6 C        3.761    -0.108    22.611     6.779
    50   6 C        2.925    -0.035    28.867     8.811
    51   6 C        2.920    -0.040    28.986     8.829
    52   6 C        2.923    -0.028    28.711     8.787
    53   6 C        2.917    -0.035    28.875     8.812
    54   6 C        2.784     0.127    25.205     8.223
    55   9 F        0.787    -0.223    11.480     4.002
    56   6 C        2.784     0.128    25.171     8.218
    57   9 F        0.787    -0.223    11.478     4.002
    58   6 C        2.918    -0.033    28.833     8.805
    59   6 C        2.924    -0.028    28.708     8.787
    60   7 N        1.891    -0.309    28.861     7.964
    61   6 C        3.190     0.073    25.901     8.301
    62   6 C        2.984    -0.002    28.065     8.690
    63   6 C        2.922    -0.027    28.670     8.781
    64   6 C        2.916    -0.028    28.711     8.787
    65   6 C        2.917    -0.027    28.687     8.783
    66   6 C        2.921    -0.032    28.808     8.802
    67   6 C        2.978     0.000    28.013     8.682
    68   6 C        2.978     0.004    27.931     8.669
    69   6 C        2.921    -0.032    28.789     8.799
    70   6 C        2.916    -0.027    28.681     8.782
    71   6 C        2.915    -0.029    28.729     8.789
    72   6 C        2.919    -0.036    28.884     8.813
    73   6 C        2.976    -0.003    28.101     8.695
    74   6 C        3.064     0.035    27.154     8.545
    75   6 C        2.918    -0.040    29.002     8.831
    76   6 C        2.927    -0.032    28.802     8.801
    77   1 H        0.925     0.044     2.401     2.423
    78   1 H        0.925     0.040     2.453     2.449
    79   1 H        0.925     0.034     2.530     2.488
    80   1 H        0.925     0.039     2.457     2.451
    81   1 H        0.925     0.038     2.479     2.462
    82   1 H        0.925     0.042     2.420     2.432
    83   1 H        0.925     0.036     2.496     2.471
    84   1 H        0.925     0.044     2.398     2.422
    85   1 H        0.925     0.040     2.444     2.445
    86   1 H        0.926     0.055     2.261     2.351
    87   1 H        0.926     0.036     2.496     2.471
    88   1 H        0.926     0.039     2.467     2.456
    89   1 H        0.926     0.045     2.384     2.414
    90   1 H        0.926     0.045     2.381     2.413
    91   1 H        0.926     0.038     2.478     2.462
    92   1 H        0.926     0.051     2.304     2.374
    93   1 H        0.926     0.042     2.428     2.437
    94   1 H        0.926     0.043     2.414     2.430
    95   1 H        0.926     0.045     2.380     2.412
    96   1 H        0.926     0.047     2.360     2.402
    97   1 H        0.926     0.043     2.410     2.428
    98   1 H        0.926     0.041     2.434     2.440
    99   1 H        0.926     0.039     2.456     2.451
   100   1 H        0.926     0.040     2.443     2.444
   101   1 H        0.926     0.049     2.330     2.387
   102   1 H        0.925     0.042     2.421     2.433
   103   1 H        0.925     0.039     2.459     2.452
   104   1 H        0.925     0.038     2.478     2.462
   105   1 H        0.925     0.034     2.526     2.486
   106   1 H        0.925     0.040     2.454     2.450
   107   1 H        0.925     0.044     2.402     2.423
   108   1 H        0.925     0.041     2.442     2.444
   109   1 H        0.925     0.044     2.399     2.422
   110   1 H        0.925     0.037     2.495     2.470
   111   1 H        0.926     0.055     2.264     2.353
   112   1 H        0.926     0.036     2.499     2.472
   113   1 H        0.926     0.054     2.267     2.354
   114   1 H        0.926     0.048     2.347     2.395
   115   1 H        0.926     0.046     2.366     2.405
   116   1 H        0.926     0.055     2.254     2.348
   117   1 H        0.926     0.051     2.310     2.377
   118   1 H        0.926     0.041     2.434     2.440
   119   1 H        0.926     0.042     2.421     2.433
   120   1 H        0.926     0.045     2.386     2.416
   121   1 H        0.926     0.046     2.365     2.405
   122   1 H        0.926     0.043     2.415     2.430
   123   1 H        0.926     0.041     2.438     2.442
   124   1 H        0.926     0.039     2.460     2.453
   125   1 H        0.926     0.041     2.442     2.444
   126   1 H        0.926     0.049     2.330     2.387

molecular dipole:
                 x           y           z       tot (Debye)
 q only:        0.081      -0.069      -1.683
   full:        0.068      -0.075      -1.876       4.775

 projected vibrational frequencies (cm⁻¹)
eigval :       -0.00    -0.00    -0.00    -0.00     0.00     0.00
eigval :        4.56     5.38     7.45    14.85    15.71    18.92
eigval :       19.28    22.49    24.08    26.34    31.90    32.90
eigval :       36.85    48.44    57.37    60.94    63.48    65.95
eigval :       68.11    73.43    80.67    83.85    86.10    93.57
eigval :       95.81   101.30   108.40   111.79   123.81   126.66
eigval :      132.94   139.67   144.62   162.88   168.37   176.09
eigval :      178.21   179.43   182.65   186.94   201.91   212.97
eigval :      214.79   220.18   228.89   230.20   238.04   244.80
eigval :      247.60   258.51   261.61   262.59   268.85   278.31
eigval :      281.69   288.76   293.92   308.85   310.23   315.18
eigval :      318.99   321.05   331.66   334.75   337.15   345.72
eigval :      358.76   360.24   365.87   371.16   374.02   381.04
eigval :      381.53   382.33   383.56   391.84   393.82   394.51
eigval :      395.76   397.66   404.03   404.88   412.59   417.42
eigval :      420.35   425.71   441.85   443.09   443.69   453.42
eigval :      457.82   463.24   463.62   473.25   478.01   487.81
eigval :      493.44   508.88   510.28   518.66   520.21   528.53
eigval :      528.64   543.30   546.37   547.06   574.05   582.72
eigval :      582.83   588.44   590.11   597.09   600.18   604.75
eigval :      606.05   608.47   638.96   641.57   644.29   646.98
eigval :      648.25   657.61   664.24   666.29   666.53   668.58
eigval :      677.13   678.27   681.74   686.11   695.48   699.09
eigval :      719.69   723.04   726.99   735.09   735.59   752.65
eigval :      754.69   760.97   762.10   776.76   777.49   779.06
eigval :      785.99   805.13   811.25   815.45   823.04   825.23
eigval :      834.57   842.26   858.13   858.22   868.50   869.87
eigval :      870.50   871.10   881.27   881.99   905.03   907.21
eigval :      907.43   911.36   912.11   913.47   915.27   915.47
eigval :      915.94   917.93   921.11   922.06   922.46   922.79
eigval :      924.12   924.22   926.82   927.56   928.60   933.43
eigval :      940.47   959.28   960.64   961.18   962.20   962.88
eigval :      963.96   965.49   983.32   994.73  1000.69  1002.92
eigval :     1010.34  1023.34  1023.61  1035.03  1035.31  1035.52
eigval :     1035.93  1071.52  1071.81  1079.78  1083.60  1083.91
eigval :     1104.78  1105.27  1118.32  1120.91  1136.74  1137.62
eigval :     1142.54  1142.87  1144.57  1146.01  1150.59  1154.91
eigval :     1158.95  1163.10  1164.49  1178.94  1179.29  1182.67
eigval :     1183.21  1195.10  1195.26  1208.57  1209.75  1215.49
eigval :     1225.25  1225.74  1225.94  1230.96  1231.41  1236.09
eigval :     1244.00  1247.19  1251.67  1252.51  1262.12  1269.95
eigval :     1271.11  1273.47  1274.62  1277.55  1280.95  1282.69
eigval :     1283.10  1288.56  1289.02  1303.82  1310.66  1311.43
eigval :     1317.73  1324.10  1331.88  1332.25  1332.51  1335.35
eigval :     1336.02  1347.03  1353.74  1377.07  1377.67  1378.86
eigval :     1393.14  1393.69  1395.26  1395.97  1397.35  1403.37
eigval :     1403.47  1406.97  1407.09  1413.80  1420.68  1427.17
eigval :     1427.26  1427.75  1428.14  1428.58  1439.81  1443.15
eigval :     1446.92  1450.98  1452.83  1460.73  1473.81  1479.75
eigval :     1483.24  1484.60  1486.65  1488.10  1488.39  1489.60
eigval :     1490.06  1496.72  1497.15  1499.52  1499.98  1502.95
eigval :     1503.28  1510.29  1510.90  1515.41  1516.23  1525.35
eigval :     1528.79  1541.28  1543.73  1546.07  1547.31  1558.26
eigval :     1566.04  1566.56  1567.20  1575.42  1580.32  1586.25
eigval :     1587.33  1587.83  1594.84  1595.33  3023.11  3023.14
eigval :     3023.87  3023.96  3027.02  3027.13  3027.77  3027.85
eigval :     3032.53  3032.64  3033.36  3033.52  3038.90  3038.98
eigval :     3045.40  3045.98  3049.28  3049.40  3076.82  3076.95
eigval :     3078.82  3080.10  3080.64  3081.39  3083.09  3084.11
eigval :     3087.38  3087.80  3090.79  3091.49  3099.46  3099.89
eigval :     3100.12  3101.60  3102.06  3102.21  3103.74  3103.99
eigval :     3105.03  3107.66  3111.29  3114.82  3115.04  3118.16
eigval :     3120.42  3121.14  3124.93  3125.62  3127.15  3127.71

   temp. (K)  partition function   enthalpy   heat capacity  entropy
                                   cal/mol     cal/K/mol   cal/K/mol   J/K/mol
 298.15  VIB  0.222E+33            39306.493    239.709    247.758
         ROT  0.542E+09              888.752      2.981     42.947
         INT  0.120E+42            40195.246    242.690    290.705
         TR   0.306E+29             1481.254      4.968     46.558
         TOT                       41676.4996   247.6581   337.2630  1411.1085

       T/K    H(0)-H(T)+PV         H(T)/Eh          T*S/Eh         G(T)/Eh
   ------------------------------------------------------------------------
    298.15    0.664157E-01    0.103318E+01    0.160245E+00    0.872934E+00
   ------------------------------------------------------------------------

         :::::::::::::::::::::::::::::::::::::::::::::::::::::
         ::                  THERMODYNAMIC                  ::
         :::::::::::::::::::::::::::::::::::::::::::::::::::::
         :: total free energy        -201.003588281187 Eh   ::
         ::.................................................::
         :: total energy             -201.876522238047 Eh   ::
         :: zero point energy           0.966762771887 Eh   ::
         :: G(RRHO) w/o ZPVE           -0.093828815027 Eh   ::
         :: G(RRHO) contrib.            0.872933956860 Eh   ::
         :::::::::::::::::::::::::::::::::::::::::::::::::::::

           -------------------------------------------------
          | TOTAL ENERGY             -201.876522238047 Eh   |
          | TOTAL ENTHALPY           -200.843343736427 Eh   |
          | TOTAL FREE ENERGY        -201.003588281187 Eh   |
          | GRADIENT NORM               0.000062851251 Eh/α |
          | HOMO-LUMO GAP               0.588144746862 eV   |
           -------------------------------------------------

 * finished run on 2025/07/19 at 02:51:09.336
