   * xtb version 6.7.1 (edcfbbe) compiled by 'albert@albert-system' on 2024-07-22

   ID    Z sym.   atoms
    1    6 C      1-8, 10-16, 18, 20-25, 27-40, 42-54, 56, 58, 59, 61-76
    2    7 N      9, 26, 41, 60
    3    9 F      17, 19, 55, 57
    4    1 H      77-126

          program call               : xtb data2507/toluene/4FBTPI/4FBTPI.xyz --gfn 2 --gbsa toluene --ohess vtight --parallel 40 --molden --ceasefiles --namespace data2507/toluene/4FBTPI/4FBTPI_toluene_S0_preOpt
      * Solvation model:               GBSA
        Solvent                        toluene
        Solvent mass                       9.2140E+01 g/mol
          :  Hamiltonian                  GFN2-xTB          :
 * total energy  :  -201.9200179 Eh     change       -0.4203343E-08 Eh
 * total energy  :  -201.9375789 Eh     change       -0.1756102E-01 Eh
 * total energy  :  -201.9425381 Eh     change       -0.4959225E-02 Eh
 * total energy  :  -201.9441558 Eh     change       -0.1617675E-02 Eh
 * total energy  :  -201.9453242 Eh     change       -0.1168371E-02 Eh
 * total energy  :  -201.9460492 Eh     change       -0.7250543E-03 Eh
 * total energy  :  -201.9466309 Eh     change       -0.5817047E-03 Eh
 * total energy  :  -201.9471022 Eh     change       -0.4712753E-03 Eh
 * total energy  :  -201.9474768 Eh     change       -0.3746343E-03 Eh
 * total energy  :  -201.9477834 Eh     change       -0.3065531E-03 Eh
 * total energy  :  -201.9514624 Eh     change       -0.3515623E-06 Eh
 * total energy  :  -201.9514627 Eh     change       -0.3121374E-06 Eh
 * total energy  :  -201.9514629 Eh     change       -0.2786074E-06 Eh
 * total energy  :  -201.9514632 Eh     change       -0.2596188E-06 Eh
 * total energy  :  -201.9514635 Eh     change       -0.2614170E-06 Eh
 * total energy  :  -201.9514638 Eh     change       -0.2913100E-06 Eh
 * total energy  :  -201.9514641 Eh     change       -0.3332692E-06 Eh
 * total energy  :  -201.9514644 Eh     change       -0.3596682E-06 Eh
 * total energy  :  -201.9514645 Eh     change       -0.7836434E-08 Eh
   *** GEOMETRY OPTIMIZATION CONVERGED AFTER 94 ITERATIONS ***

 final structure:
================
126
 xtb: 6.7.1 (edcfbbe)
C           -6.53371471637031        5.53044607462936       -1.57282252176187
C           -7.26548161092467        5.08647525771490       -0.30276135556625
C           -8.63394333985171        5.78332711467815       -0.26758017244690
C           -6.42753533697848        5.51995931189985        0.90961798058272
C           -7.47611960328280        3.58175808153973       -0.24413053280286
C           -7.05361090002119        2.71871251080407       -1.24876851337571
C           -7.25957444420963        1.35261003732944       -1.16049686635389
C           -7.89861248049160        0.81696420156656       -0.05256467916807
N           -8.07416690660632       -0.58081293200278        0.05791804642879
C           -7.05513394879230       -1.49764988365748        0.17393045774544
C           -5.63867894767012       -1.17154253789093        0.20586103212547
C           -5.13462556168832       -0.02862712150807        0.82560634249505
C           -3.77830847837523        0.22626582287883        0.82417871441479
C           -2.89230255963732       -0.65124346501189        0.20271256940375
C           -1.44879811346324       -0.36674328781080        0.18570453893667
C           -0.75489055139666        0.02047905355919        1.33246825452177
F           -1.40654198882503        0.11227380850855        2.50618109365519
C            0.60511416595357        0.28943783945375        1.31359831822150
F            1.20208567449802        0.62181001501963        2.47285426440179
C            1.36397800104157        0.19564855740039        0.14536368579342
C            2.80295828705238        0.49851952120541        0.12466066924025
C            3.69673092911808       -0.33173743804868       -0.54891879378088
C            5.04788784238188       -0.04979804923951       -0.56421872735223
C            5.54454693972438        1.07073925956542        0.10159218962136
C            6.94874891779103        1.43988643188245        0.13551614086201
N            7.33833363116150        2.68899661490854        0.26186861771026
C            8.69431828118311        2.66099721029970        0.26600033086317
C            9.59024968117733        3.76411362731443        0.35303495653049
C            9.11833782058610        5.07905534912938        0.42911043319224
C            9.99889874593563        6.13069097440401        0.48961429753716
C           11.36898374440205        5.87667255508260        0.47131738164888
C           11.84401669521228        4.58742399827551        0.40172609627354
C           10.97623866015335        3.48561041415437        0.34526190559641
C           11.44771981269498        2.11114064631582        0.29709407347053
C           12.81455071863477        1.80181281545115        0.35322750744535
C           13.27124754976739        0.50471310875233        0.34098975793620
C           12.36855927829026       -0.55237347962068        0.28332346859796
C           11.02134136220259       -0.29261530533738        0.22223456070520
C           10.53550031693246        1.02288416590428        0.21282610263778
C            9.14943101361912        1.34668353324749        0.15540335745737
N            8.01576855834430        0.57404008448486        0.05845764976621
C            7.92981619796699       -0.83100331970698       -0.07480274332676
C            7.44154297798803       -1.60353850131761        0.97103120163880
C            7.33511526182243       -2.97227971242053        0.81981842321860
C            7.70742033828813       -3.61034972351772       -0.36228261297013
C            7.55968401422832       -5.11932043718918       -0.47679255221832
C            8.03748294121398       -5.65900269609087       -1.82831445447783
C            6.07671045130498       -5.48367168843608       -0.31016437642544
C            8.38979869106545       -5.79101367614711        0.62734103746203
C            8.19607031208422       -2.81867940947768       -1.39669922506644
C            8.30492707288629       -1.44594318023106       -1.26255591969206
C            4.64172639542601        1.91593217982471        0.75382716731612
C            3.29390292587723        1.63452068959367        0.76996878663010
C            0.66898107224167       -0.19319645762199       -1.00119385649905
F            1.31575738606899       -0.27922802297311       -2.17815857924596
C           -0.69007561912591       -0.46700933057078       -0.98095948121741
F           -1.28894321240028       -0.80683073769474       -2.13711748604898
C           -3.39169309420133       -1.80703607373414       -0.39716963445863
C           -4.74509906740640       -2.06639943075178       -0.38639725925201
N           -7.50397765602709       -2.72890989024155        0.25144405338597
C           -8.85781205271315       -2.63635507183108        0.19185719262184
C           -9.81061965333463       -3.69044390562291        0.28042050420902
C           -9.41079925912744       -5.01779606098399        0.47005246789365
C          -10.34692551160817       -6.01520352751017        0.58757198812089
C          -11.70123228986673       -5.69298277729008        0.52249227548349
C          -12.10567661161715       -4.39233081023547        0.32945211364416
C          -11.17935141728353       -3.34650030218766        0.19343197715193
C          -11.57509453410135       -1.96827438888181       -0.04582962128704
C          -12.91864555522053       -1.61137341054691       -0.23182161939731
C          -13.30032020189778       -0.31713126933261       -0.49728689296874
C          -12.34189684501013        0.68619821324071       -0.60111336084860
C          -11.01534920825482        0.37981535617477       -0.42056153511546
C          -10.60694683947232       -0.92979497209242       -0.12938371725973
C           -9.24452270043449       -1.30336360041530        0.05240168437972
C           -8.32783516366963        1.66257224569013        0.96523132444251
C           -8.11912703000599        3.02279421025137        0.86017010446105
H           -6.40813371940293        6.61112900590477       -1.55750216799212
H           -5.54588621041717        5.07942693180635       -1.63461728411532
H           -7.10159265873190        5.27273445064562       -2.46389070007927
H           -9.17493539408028        5.55279179415592        0.64599287250979
H           -9.24050578632081        5.46588045787128       -1.11365293129315
H           -8.50381159540730        6.86188875095250       -0.32269975611356
H           -6.93477620411983        5.29968634301521        1.84474165327918
H           -6.24098245350491        6.59085725611700        0.86914157444712
H           -5.46978142057886        5.00311825517033        0.90966518184297
H           -6.55378004263620        3.09668557511461       -2.12461948511086
H           -6.92239264841672        0.69755644340822       -1.95078319312683
H           -5.79735597829010        0.65890973160406        1.32665762396979
H           -3.40580790094984        1.12036081576950        1.30024203086571
H            3.33619779480505       -1.21266747161000       -1.05733120941333
H            5.70897817567682       -0.70084873071547       -1.11245778704931
H            8.04994844189536        5.23288118395997        0.43315111759526
H            9.63738364447646        7.14691513481029        0.54681420739253
H           12.06686926054607        6.70065529361354        0.51248266055171
H           12.91218015503889        4.44062310805718        0.38758795594971
H           13.54128345058642        2.59540280305483        0.41579251616872
H           14.33227175659350        0.30706906550049        0.38568794172100
H           12.72321457137056       -1.57247178386179        0.29074739550206
H           10.32392141038661       -1.11380388043706        0.19192569129101
H            7.14512878450579       -1.12691571531279        1.89405354666288
H            6.95083828847272       -3.54702888808432        1.64773517506942
H            7.91463691648738       -6.73990597865993       -1.84820358205197
H            9.09051671537743       -5.43886583242819       -1.98852160979767
H            7.45498144974903       -5.24206173122689       -2.64668794584956
H            5.48094300725665       -5.00059084128547       -1.08229814478732
H            5.69676208949792       -5.17159271897943        0.65873868029427
H            5.94583347670000       -6.56003616483593       -0.39725590755061
H            8.04413323107552       -5.50523637488659        1.61678103992777
H            8.31577993251581       -6.87290499559943        0.54183799838314
H            9.43708065741205       -5.50932410530064        0.53626112221271
H            8.49782367317511       -3.25933313161458       -2.33200970386651
H            8.68462475291484       -0.84479765334581       -2.07651077308962
H            5.02586569865752        2.79626896158541        1.24452258811173
H            2.61455787398004        2.30490265333535        1.27344165559081
H           -2.71498171308300       -2.50867465214117       -0.86034914158807
H           -5.13654381909606       -2.96394823643458       -0.83911513493565
H           -8.35258489099732       -5.22324491307473        0.52655523978541
H          -10.04092794946491       -7.04051509189636        0.73540716694128
H          -12.44234476381175       -6.47281941297935        0.62420649616844
H          -13.16424326950230       -4.19036676084174        0.29023702696697
H          -13.68581384030480       -2.36671629456538       -0.17856624490765
H          -14.34543947196264       -0.08206264810983       -0.63629604559382
H          -12.63735088270710        1.70001770666860       -0.82769947489764
H          -10.27340840640627        1.15579896579333       -0.51866714621676
H           -8.82471754487909        1.24714842815428        1.83044683016124
H           -8.46415729917941        3.65414888522797        1.66397437250372

          :  Hamiltonian                  GFN2-xTB          :
         :: gradient norm              0.000058651809 Eh/a0 ::
         :: HOMO-LUMO gap              1.927009067429 eV    ::
         :: SCC energy              -205.313253922118 Eh    ::
         :: -> dispersion             -0.175869497133 Eh    ::
         :: -> Gsolv                  -0.078699278146 Eh    ::
         :: repulsion energy           3.361789466129 Eh    ::

    * Orbital Energies and Occupations

         #    Occupation            Energy/Eh            Energy/eV
      -------------------------------------------------------------
         1        2.0000           -0.8526533             -23.2019
       ...           ...                  ...                  ...
       173        2.0000           -0.4151457             -11.2967
       174        2.0000           -0.4122780             -11.2187
       175        2.0000           -0.4091622             -11.1339
       176        2.0000           -0.4051419             -11.0245
       177        2.0000           -0.4041731             -10.9981
       178        2.0000           -0.3989320             -10.8555
       179        2.0000           -0.3983732             -10.8403
       180        2.0000           -0.3839961             -10.4491
       181        2.0000           -0.3837246             -10.4417
       182        2.0000           -0.3815243             -10.3818
       183        2.0000           -0.3813772             -10.3778
       184        2.0000           -0.3681269             -10.0172
       185        2.0000           -0.3671781              -9.9914 (HOMO)
       186                         -0.2963618              -8.0644 (LUMO)
       187                         -0.2724338              -7.4133
       188                         -0.2679191              -7.2904
       189                         -0.2575810              -7.0091
       190                         -0.2516694              -6.8483
       191                         -0.2514315              -6.8418
       192                         -0.2469702              -6.7204
       193                         -0.2405043              -6.5445
       194                         -0.2397936              -6.5251
       195                         -0.2393936              -6.5142
       196                         -0.2367553              -6.4424
       ...                                ...                  ...
       354                          0.7237673              19.6947
      -------------------------------------------------------------
                  HL-Gap            0.0708163 Eh            1.9270 eV

     #   Z          covCN         q      C6AA      α(0)
     1   6 C        3.761    -0.110    22.657     6.786
     2   6 C        3.903     0.027    20.068     6.368
     3   6 C        3.761    -0.107    22.596     6.776
     4   6 C        3.761    -0.108    22.601     6.777
     5   6 C        2.972     0.014    27.699     8.633
     6   6 C        2.925    -0.036    28.902     8.816
     7   6 C        2.920    -0.042    29.038     8.837
     8   6 C        2.912     0.059    26.685     8.471
     9   7 N        2.839    -0.049    22.191     6.997
    10   6 C        3.194     0.133    24.634     8.093
    11   6 C        2.973     0.005    27.895     8.663
    12   6 C        2.921    -0.033    28.812     8.802
    13   6 C        2.922    -0.026    28.663     8.780
    14   6 C        2.976     0.025    27.441     8.593
    15   6 C        2.972    -0.015    28.383     8.739
    16   6 C        2.786     0.145    24.838     8.163
    17   9 F        0.787    -0.198    11.218     3.956
    18   6 C        2.786     0.145    24.842     8.164
    19   9 F        0.787    -0.198    11.214     3.956
    20   6 C        2.971    -0.015    28.376     8.738
    21   6 C        2.975     0.024    27.456     8.595
    22   6 C        2.922    -0.027    28.670     8.781
    23   6 C        2.920    -0.034    28.850     8.808
    24   6 C        2.973     0.005    27.903     8.665
    25   6 C        3.190     0.131    24.686     8.105
    26   7 N        1.896    -0.314    28.978     7.981
    27   6 C        3.202     0.060    26.110     8.325
    28   6 C        2.985    -0.003    28.087     8.693
    29   6 C        2.921    -0.033    28.829     8.805
    30   6 C        2.917    -0.031    28.785     8.798
    31   6 C        2.917    -0.034    28.843     8.807
    32   6 C        2.921    -0.036    28.902     8.816
    33   6 C        2.979    -0.004    28.123     8.699
    34   6 C        2.979    -0.001    28.041     8.686
    35   6 C        2.922    -0.035    28.870     8.811
    36   6 C        2.916    -0.033    28.833     8.805
    37   6 C        2.917    -0.032    28.801     8.800
    38   6 C        2.919    -0.041    29.015     8.833
    39   6 C        2.977    -0.005    28.131     8.700
    40   6 C        3.076     0.023    27.401     8.582
    41   7 N        2.839    -0.049    22.192     6.997
    42   6 C        2.912     0.059    26.677     8.469
    43   6 C        2.919    -0.041    29.025     8.835
    44   6 C        2.928    -0.032    28.792     8.800
    45   6 C        2.972     0.014    27.695     8.632
    46   6 C        3.902     0.027    20.067     6.367
    47   6 C        3.761    -0.110    22.657     6.786
    48   6 C        3.761    -0.107    22.600     6.777
    49   6 C        3.761    -0.107    22.599     6.777
    50   6 C        2.925    -0.037    28.921     8.819
    51   6 C        2.919    -0.040    29.005     8.832
    52   6 C        2.928    -0.027    28.670     8.781
    53   6 C        2.921    -0.026    28.640     8.776
    54   6 C        2.786     0.144    24.844     8.164
    55   9 F        0.787    -0.198    11.216     3.956
    56   6 C        2.786     0.145    24.838     8.163
    57   9 F        0.787    -0.198    11.215     3.956
    58   6 C        2.921    -0.025    28.632     8.775
    59   6 C        2.927    -0.026    28.653     8.778
    60   7 N        1.895    -0.314    28.992     7.983
    61   6 C        3.205     0.059    26.094     8.320
    62   6 C        2.985    -0.003    28.086     8.693
    63   6 C        2.921    -0.033    28.831     8.805
    64   6 C        2.917    -0.032    28.787     8.798
    65   6 C        2.917    -0.034    28.846     8.807
    66   6 C        2.921    -0.036    28.903     8.816
    67   6 C        2.979    -0.004    28.126     8.699
    68   6 C        2.979    -0.001    28.045     8.687
    69   6 C        2.922    -0.035    28.871     8.811
    70   6 C        2.916    -0.034    28.836     8.806
    71   6 C        2.917    -0.032    28.802     8.801
    72   6 C        2.919    -0.041    29.013     8.833
    73   6 C        2.978    -0.004    28.130     8.700
    74   6 C        3.077     0.023    27.411     8.584
    75   6 C        2.919    -0.040    29.005     8.832
    76   6 C        2.927    -0.033    28.817     8.804
    77   1 H        0.925     0.042     2.426     2.436
    78   1 H        0.925     0.038     2.475     2.460
    79   1 H        0.925     0.038     2.470     2.458
    80   1 H        0.925     0.040     2.455     2.450
    81   1 H        0.925     0.035     2.514     2.479
    82   1 H        0.925     0.043     2.407     2.426
    83   1 H        0.925     0.040     2.454     2.450
    84   1 H        0.925     0.043     2.407     2.426
    85   1 H        0.925     0.035     2.519     2.482
    86   1 H        0.926     0.053     2.285     2.364
    87   1 H        0.926     0.035     2.522     2.484
    88   1 H        0.926     0.044     2.394     2.420
    89   1 H        0.926     0.052     2.298     2.371
    90   1 H        0.926     0.052     2.292     2.367
    91   1 H        0.926     0.045     2.387     2.416
    92   1 H        0.926     0.044     2.396     2.421
    93   1 H        0.926     0.033     2.542     2.493
    94   1 H        0.926     0.033     2.550     2.497
    95   1 H        0.926     0.035     2.511     2.478
    96   1 H        0.926     0.038     2.480     2.463
    97   1 H        0.926     0.033     2.538     2.491
    98   1 H        0.926     0.033     2.549     2.497
    99   1 H        0.926     0.032     2.560     2.502
   100   1 H        0.926     0.035     2.513     2.479
   101   1 H        0.926     0.046     2.365     2.405
   102   1 H        0.925     0.042     2.427     2.436
   103   1 H        0.925     0.039     2.465     2.455
   104   1 H        0.925     0.039     2.467     2.456
   105   1 H        0.925     0.035     2.515     2.480
   106   1 H        0.925     0.039     2.463     2.454
   107   1 H        0.925     0.043     2.404     2.425
   108   1 H        0.925     0.039     2.460     2.453
   109   1 H        0.925     0.043     2.409     2.427
   110   1 H        0.925     0.035     2.512     2.479
   111   1 H        0.926     0.054     2.271     2.356
   112   1 H        0.926     0.039     2.465     2.455
   113   1 H        0.926     0.060     2.193     2.316
   114   1 H        0.926     0.053     2.279     2.361
   115   1 H        0.926     0.053     2.278     2.360
   116   1 H        0.926     0.058     2.221     2.331
   117   1 H        0.926     0.044     2.398     2.421
   118   1 H        0.926     0.033     2.544     2.494
   119   1 H        0.926     0.032     2.551     2.498
   120   1 H        0.926     0.035     2.512     2.479
   121   1 H        0.926     0.037     2.482     2.464
   122   1 H        0.926     0.033     2.540     2.492
   123   1 H        0.926     0.033     2.546     2.495
   124   1 H        0.926     0.032     2.560     2.502
   125   1 H        0.926     0.039     2.465     2.455
   126   1 H        0.926     0.047     2.357     2.401

molecular dipole:
                 x           y           z       tot (Debye)
 q only:        0.178       0.029      -0.309
   full:        0.190       0.032      -0.347       1.008

 projected vibrational frequencies (cm⁻¹)
eigval :       -0.00    -0.00    -0.00    -0.00    -0.00     0.00
eigval :        3.24     6.84     7.87    10.40    14.93    19.31
eigval :       19.71    21.17    24.36    29.12    31.44    33.25
eigval :       39.16    44.18    56.11    59.53    62.23    66.13
eigval :       70.33    72.29    77.94    81.08    84.39    89.93
eigval :       94.76   101.76   109.56   119.25   122.83   127.18
eigval :      134.82   142.59   144.66   156.31   162.87   176.61
eigval :      180.69   182.23   182.75   188.13   209.22   214.39
eigval :      219.35   223.93   228.87   230.82   233.42   239.06
eigval :      242.79   258.51   263.14   266.37   268.37   269.67
eigval :      279.03   291.78   300.82   311.17   312.23   316.16
eigval :      317.07   319.74   321.05   333.36   355.42   356.04
eigval :      359.70   364.58   366.96   369.42   375.06   376.62
eigval :      382.17   384.61   387.39   393.06   396.98   398.90
eigval :      402.87   407.95   409.42   414.97   422.12   426.23
eigval :      429.93   443.56   447.27   449.96   450.83   454.40
eigval :      462.31   470.75   477.77   480.29   488.25   507.16
eigval :      510.20   517.18   520.54   527.64   531.00   535.58
eigval :      535.68   546.40   546.93   584.38   584.56   584.79
eigval :      589.47   593.28   598.33   599.76   606.44   608.21
eigval :      629.12   640.82   643.86   649.40   651.35   655.41
eigval :      657.82   663.33   668.77   670.04   675.30   676.23
eigval :      682.81   683.32   689.53   697.16   702.23   703.32
eigval :      721.38   726.23   733.34   734.75   737.00   756.15
eigval :      756.32   765.45   765.55   777.65   781.40   782.05
eigval :      786.85   815.52   821.08   822.01   826.18   830.30
eigval :      860.85   862.09   867.24   869.00   869.36   870.06
eigval :      872.90   874.06   882.38   883.12   907.23   907.45
eigval :      911.26   911.90   913.61   913.73   915.47   917.41
eigval :      919.13   923.72   924.86   925.04   925.75   926.23
eigval :      926.29   928.38   928.48   939.57   939.77   940.05
eigval :      960.48   960.75   961.28   962.11   963.99   964.28
eigval :      964.96   971.68   997.37  1005.19  1014.33  1017.60
eigval :     1032.40  1034.16  1035.05  1035.59  1035.74  1036.93
eigval :     1072.56  1072.94  1073.40  1085.20  1085.46  1106.51
eigval :     1108.10  1113.59  1133.82  1134.36  1139.84  1140.13
eigval :     1143.75  1145.40  1146.17  1146.38  1151.92  1152.12
eigval :     1173.05  1173.45  1180.01  1183.26  1184.09  1186.09
eigval :     1199.77  1200.90  1202.17  1205.43  1213.38  1214.67
eigval :     1224.24  1225.69  1226.05  1231.63  1231.76  1247.49
eigval :     1252.48  1252.69  1255.56  1258.00  1270.75  1272.36
eigval :     1274.09  1274.62  1280.85  1282.29  1284.29  1284.87
eigval :     1301.19  1305.18  1307.63  1311.20  1314.81  1318.45
eigval :     1320.98  1328.12  1328.71  1336.79  1337.01  1345.77
eigval :     1346.24  1375.84  1376.16  1391.59  1395.49  1396.86
eigval :     1397.76  1401.37  1403.44  1403.55  1404.42  1405.19
eigval :     1407.87  1408.19  1419.44  1420.33  1427.64  1428.12
eigval :     1429.64  1430.69  1431.72  1434.08  1435.78  1438.59
eigval :     1466.09  1476.80  1487.89  1488.38  1488.44  1488.87
eigval :     1489.62  1489.90  1498.63  1499.36  1502.86  1503.03
eigval :     1509.42  1511.10  1511.14  1511.17  1512.95  1514.04
eigval :     1515.32  1515.74  1528.76  1536.26  1539.94  1556.50
eigval :     1557.28  1561.82  1562.12  1562.51  1566.39  1566.90
eigval :     1567.90  1569.19  1589.79  1592.70  1593.24  1595.42
eigval :     1597.47  1598.11  1602.83  1603.15  3023.53  3023.70
eigval :     3024.14  3024.16  3027.61  3027.77  3027.94  3028.01
eigval :     3031.99  3032.03  3033.51  3033.60  3039.03  3039.18
eigval :     3045.54  3046.19  3049.19  3050.00  3069.58  3070.80
eigval :     3073.22  3074.00  3077.81  3079.78  3079.94  3080.60
eigval :     3082.11  3082.21  3084.08  3084.15  3092.26  3094.22
eigval :     3094.77  3096.05  3096.63  3096.68  3098.28  3098.43
eigval :     3098.86  3100.26  3106.49  3109.16  3109.40  3110.07
eigval :     3110.15  3117.33  3118.88  3119.68  3123.23  3123.83

   temp. (K)  partition function   enthalpy   heat capacity  entropy
                                   cal/mol     cal/K/mol   cal/K/mol   J/K/mol
 298.15  VIB  0.270E+33            39021.412    237.572    246.690
         ROT  0.535E+09              888.752      2.981     42.919
         INT  0.144E+42            39910.165    240.553    289.609
         TR   0.306E+29             1481.254      4.968     46.558
         TOT                       41391.4187   245.5215   336.1669  1406.5225

       T/K    H(0)-H(T)+PV         H(T)/Eh          T*S/Eh         G(T)/Eh
   ------------------------------------------------------------------------
    298.15    0.659614E-01    0.103691E+01    0.159724E+00    0.877187E+00
   ------------------------------------------------------------------------

         :::::::::::::::::::::::::::::::::::::::::::::::::::::
         ::                  THERMODYNAMIC                  ::
         :::::::::::::::::::::::::::::::::::::::::::::::::::::
         :: total free energy        -201.074277651345 Eh   ::
         ::.................................................::
         :: total energy             -201.951464456404 Eh   ::
         :: zero point energy           0.970949140357 Eh   ::
         :: G(RRHO) w/o ZPVE           -0.093762335298 Eh   ::
         :: G(RRHO) contrib.            0.877186805059 Eh   ::
         :::::::::::::::::::::::::::::::::::::::::::::::::::::

           -------------------------------------------------
          | TOTAL ENERGY             -201.951464456404 Eh   |
          | TOTAL ENTHALPY           -200.914553891698 Eh   |
          | TOTAL FREE ENERGY        -201.074277651345 Eh   |
          | GRADIENT NORM               0.000058628565 Eh/α |
          | HOMO-LUMO GAP               1.927008685682 eV   |
           -------------------------------------------------

 * finished run on 2025/07/19 at 02:26:00.297
