   * xtb version 6.7.1 (edcfbbe) compiled by 'albert@albert-system' on 2024-07-22

   ID    Z sym.   atoms
    1    6 C      1-8, 10-16, 18, 20-25, 27-40, 42-54, 56, 58, 59, 61-76
    2    7 N      9, 26, 41, 60
    3    9 F      17, 19, 55, 57
    4    1 H      77-126

          program call               : xtb data2507/toluene/4FBTPI/4FBTPI_toluene_T1_crest.xyz --gfn 2 --uhf 2 --gbsa toluene --ohess vtight --parallel 40 --molden --ceasefiles --namespace data2507/toluene/4FBTPI/4FBTPI_toluene_T1_finalOpt
      * Solvation model:               GBSA
        Solvent                        toluene
        Solvent mass                       9.2140E+01 g/mol
          :  Hamiltonian                  GFN2-xTB          :
 * total energy  :  -201.8763889 Eh     change       -0.1166427E-09 Eh
 * total energy  :  -201.8765046 Eh     change       -0.1156254E-03 Eh
 * total energy  :  -201.8765605 Eh     change       -0.5592828E-04 Eh
 * total energy  :  -201.8765727 Eh     change       -0.1215676E-04 Eh
 * total energy  :  -201.8765848 Eh     change       -0.1217251E-04 Eh
 * total energy  :  -201.8765949 Eh     change       -0.1010885E-04 Eh
 * total energy  :  -201.8766064 Eh     change       -0.1146148E-04 Eh
 * total energy  :  -201.8766185 Eh     change       -0.1213656E-04 Eh
 * total energy  :  -201.8766281 Eh     change       -0.9539666E-05 Eh
 * total energy  :  -201.8766355 Eh     change       -0.7409426E-05 Eh
 * total energy  :  -201.8771634 Eh     change       -0.2780053E-06 Eh
 * total energy  :  -201.8771637 Eh     change       -0.2831079E-06 Eh
 * total energy  :  -201.8771640 Eh     change       -0.3216947E-06 Eh
 * total energy  :  -201.8771643 Eh     change       -0.3483621E-06 Eh
 * total energy  :  -201.8771647 Eh     change       -0.3802830E-06 Eh
 * total energy  :  -201.8771651 Eh     change       -0.3947204E-06 Eh
 * total energy  :  -201.8771655 Eh     change       -0.3859481E-06 Eh
 * total energy  :  -201.8771659 Eh     change       -0.3918103E-06 Eh
 * total energy  :  -201.8771659 Eh     change       -0.2588934E-08 Eh
   *** GEOMETRY OPTIMIZATION CONVERGED AFTER 122 ITERATIONS ***

 final structure:
================
126
 xtb: 6.7.1 (edcfbbe)
C           -7.71492615134748        6.31336316828196       -1.86127744833468
C           -7.56356077447508        5.77824163510612       -0.43416463256122
C           -8.61182897050553        6.46757979350618        0.45202066319860
C           -6.15096348346202        6.12461152520885        0.06055742351493
C           -7.75592171304181        4.27271337854957       -0.34897396642254
C           -8.04549471021867        3.48408179955690       -1.45796975553827
C           -8.19909396805078        2.11316189830650       -1.34680423555820
C           -8.06364658448484        1.49870836667890       -0.10862554544691
N           -8.20603450106253        0.09460851235512        0.01084804475415
C           -7.18228723343923       -0.84469890899185        0.06500454977476
C           -5.77806970269744       -0.60584067161147       -0.00582760940464
C           -5.16906966505018        0.61975029482350       -0.34389791171730
C           -3.80793263516210        0.75156610159076       -0.36280061857340
C           -2.94769072596957       -0.32923812220617       -0.05979563200872
C           -1.52182786367264       -0.17486928743586       -0.06698167761157
C           -0.86205993904407        1.03926095415071        0.26114625812839
F           -1.59279194458079        2.10163354102094        0.68261824249031
C            0.49796517915261        1.18827031301093        0.26235614852797
F            0.97995296952199        2.38356262820113        0.68404784361625
C            1.40408026872131        0.14541219758596       -0.06506655707733
C            2.83070338558977        0.29855028184959       -0.05681746699706
C            3.68643062460247       -0.78251415157336        0.25613986434245
C            5.04761638411891       -0.64584908445595        0.27049428720851
C            5.65846963952791        0.58547788063079       -0.03888597227712
C            7.06407221047607        0.83329753762035       -0.04341764044944
N            7.55372027025322        2.06874187290859       -0.05981654175373
C            8.89004740667865        1.95131759026876       -0.03378037170694
C            9.85850878699315        2.99317990889862       -0.00384888574484
C            9.47072096998892        4.33791786839560        0.01020942372604
C           10.41736013993930        5.33321359129334        0.06190546238809
C           11.76576732672681        4.98911044238562        0.10342534741926
C           12.15837100201305        3.66752716953088        0.08715229130587
C           11.22380437748116        2.62469743181462        0.02821864013212
C           11.60690463040022        1.22090946147080       -0.01006106571256
C           12.95058676918526        0.82916543070367       -0.02747936979859
C           13.32694068249987       -0.49499174591566       -0.08483481975659
C           12.36048291342288       -1.49502457401657       -0.13815707897887
C           11.03043827533697       -1.15534733975562       -0.11917292819534
C           10.62342969371895        0.18846990675300       -0.04534786107363
C            9.26355413235480        0.59108614768606       -0.02059005318736
N            8.08593698950645       -0.10761230559904       -0.02071290134503
C            7.93858431921085       -1.51565373555047       -0.04060806205864
C            8.10555949421548       -2.25377398135191        1.12680550265062
C            7.96179051729227       -3.62632480787632        1.09425157519228
C            7.65114021690439       -4.30220703044879       -0.08587948666782
C            7.50655737645954       -5.81536938861792       -0.06352935211064
C            6.37432891394533       -6.19247005755283        0.90370058869804
C            8.82916232521205       -6.43570419428467        0.41192265820146
C            7.17280615842985       -6.39613074651532       -1.44079845802034
C            7.48748740229038       -3.54431306751959       -1.24022047360943
C            7.62867135376046       -2.16731370292643       -1.22539302015412
C            4.80640337481386        1.67391091136905       -0.33660799124745
C            3.44810826011297        1.53838613134286       -0.34747143315241
C            0.74438291395926       -1.06766996832542       -0.39658907161922
F            1.47597388712568       -2.12920470664129       -0.81915978765890
C           -0.61564230532368       -1.21723746769291       -0.39646713059174
F           -1.09903386504875       -2.41225875560017       -0.81760041506367
C           -3.56238263837364       -1.56681767258691        0.24761106013138
C           -4.92062380665515       -1.69611107755210        0.27542186214302
N           -7.67235420189386       -2.07327681424370        0.20667740317631
C           -9.00724500063755       -1.95315848969094        0.23962898182681
C           -9.97560242251219       -2.98832641986723        0.36334792960588
C           -9.58845032218568       -4.33020523147973        0.45449815129671
C          -10.53557249941912       -5.32075207575602        0.56129766168708
C          -11.88394455539155       -4.97463517581874        0.57707215814363
C          -12.27576719031303       -3.65540288647701        0.49111769242958
C          -11.34040718541398       -2.61717604629068        0.38314790774735
C          -11.72183971039420       -1.21482313897026        0.30041033770198
C          -13.06289779762194       -0.81692901382508        0.34811715073677
C          -13.43675610702341        0.50778953233072        0.28592866742403
C          -12.46998866913131        1.50318781671876        0.17726958316864
C          -11.14255501180056        1.15720470051720        0.12411012255562
C          -10.73853772433726       -0.18866957710510        0.17665228446706
C           -9.38153360365970       -0.59709992355702        0.12755224494782
C           -7.78615000394147        2.26894314889889        1.01425515419480
C           -7.63616716662012        3.63557803133925        0.88553804793000
H           -7.56320339068847        7.39070722889641       -1.85930818277074
H           -6.97442235449860        5.87325582768361       -2.52535609659527
H           -8.71066938185292        6.11672540096882       -2.25209939535333
H           -8.51014520217920        6.17166976569256        1.49237097454918
H           -9.61542490475529        6.21029977904951        0.11884387018320
H           -8.49551825131153        7.54743592851164        0.39310356816226
H           -6.00662674665927        5.83160622421631        1.09667793840819
H           -5.98204271341255        7.19643737463782       -0.01591386706920
H           -5.40293262631931        5.61430682265965       -0.54335426218516
H           -8.15216281354883        3.92596254218827       -2.43426794906087
H           -8.41885685644979        1.51386730345842       -2.21860505100084
H           -5.76965312295185        1.47000124939807       -0.61854592358133
H           -3.38648154436825        1.69931004832508       -0.65724173693204
H            3.26125702503226       -1.73303813238577        0.53587145246440
H            5.64604764546504       -1.49409349574882        0.55768027813730
H            8.41469813277099        4.55868667813622       -0.01541901647751
H           10.12127799184655        6.37144616624902        0.07339600485898
H           12.51527860176341        5.76571234062753        0.14911254212981
H           13.21410365708411        3.45285733497589        0.12327153306933
H           13.72720399280305        1.57566702848289       -0.00082584583924
H           14.37485933031625       -0.75538024633849       -0.09574493840544
H           12.65275657024727       -2.53272324401162       -0.19558404616847
H           10.28380101672678       -1.93023722543552       -0.16853606021306
H            8.34604562050893       -1.74609931750097        2.04978876567340
H            8.09457852038550       -4.17426648245798        2.01380430075087
H            6.24143687551351       -7.27198639739268        0.91779333866662
H            5.43895347328364       -5.73534809125105        0.58611129314157
H            6.58815992477009       -5.86356603551877        1.91691337888755
H            9.08237580238369       -6.11293310462588        1.41787697982609
H            9.64047778414140       -6.14956087812025       -0.25463491946877
H            8.75078407405448       -7.52056244214847        0.41314894741241
H            7.95785712403303       -6.17604843097651       -2.16073621293700
H            7.08298149702883       -7.47769894128869       -1.36372177414015
H            6.22662643289518       -6.00826025233973       -1.81138766240165
H            7.24573161666461       -4.01552595998038       -2.17781207425134
H            7.49565744269956       -1.59404826518108       -2.13119328531896
H            5.26488770281242        2.62041647743937       -0.57537387667992
H            2.84066921117248        2.38690875051001       -0.61751763433107
H           -2.95117490572655       -2.41686098763820        0.50424788011360
H           -5.37629352663802       -2.63862831019167        0.53414363250031
H           -8.53277102246678       -4.55313545943909        0.43485615208455
H          -10.23990404972704       -6.35684765637738        0.63037508505133
H          -12.63414212211126       -5.74768133000423        0.65807190277055
H          -13.33167650161706       -3.43929166158798        0.50723113614676
H          -13.83938443777922       -1.55838877904461        0.43987220780173
H          -14.48277914164964        0.77288531238362        0.32573983377583
H          -12.76017659435439        2.54226312327908        0.13676597658131
H          -10.39486677094520        1.92875599806527        0.04589708969015
H           -7.68296528141894        1.79137386566157        1.97756614942253
H           -7.41689295797020        4.20889169742172        1.77231370257580

          :  Hamiltonian                  GFN2-xTB          :
         :: gradient norm              0.000048136114 Eh/a0 ::
         :: HOMO-LUMO gap              0.591702075393 eV    ::
         :: SCC energy              -205.216684920529 Eh    ::
         :: -> dispersion             -0.175654403922 Eh    ::
         :: -> Gsolv                  -0.084085709168 Eh    ::
         :: repulsion energy           3.339519017674 Eh    ::

    * Orbital Energies and Occupations

         #    Occupation            Energy/Eh            Energy/eV
      -------------------------------------------------------------
         1        2.0000           -0.8334878             -22.6804
       ...           ...                  ...                  ...
       174        2.0000           -0.4124288             -11.2228
       175        2.0000           -0.4103830             -11.1671
       176        2.0000           -0.4068104             -11.0699
       177        2.0000           -0.4048246             -11.0158
       178        2.0000           -0.4042474             -11.0001
       179        2.0000           -0.3945946             -10.7375
       180        2.0000           -0.3919266             -10.6649
       181        2.0000           -0.3915380             -10.6543
       182        2.0000           -0.3857653             -10.4972
       183        2.0000           -0.3856388             -10.4938
       184        1.9555           -0.3731582             -10.1542
       185        1.0445           -0.3673301              -9.9956
       186        1.0000           -0.2956253              -8.0444 (HOMO)
       187        0.0000           -0.2738805              -7.4527 (LUMO)
       188                         -0.2617743              -7.1232
       189                         -0.2593212              -7.0565
       190                         -0.2585491              -7.0355
       191                         -0.2526114              -6.8739
       192                         -0.2457834              -6.6881
       193                         -0.2408911              -6.5550
       194                         -0.2401962              -6.5361
       195                         -0.2380639              -6.4780
       196                         -0.2374820              -6.4622
       197                         -0.2372916              -6.4570
       ...                                ...                  ...
       354                          0.7163872              19.4939
      -------------------------------------------------------------
                  HL-Gap            0.0217448 Eh            0.5917 eV

     #   Z          covCN         q      C6AA      α(0)
     1   6 C        3.761    -0.111    22.664     6.787
     2   6 C        3.903     0.027    20.063     6.367
     3   6 C        3.761    -0.108    22.607     6.778
     4   6 C        3.762    -0.107    22.595     6.776
     5   6 C        2.973     0.015    27.663     8.627
     6   6 C        2.925    -0.036    28.905     8.817
     7   6 C        2.919    -0.040    29.006     8.832
     8   6 C        2.912     0.059    26.676     8.469
     9   7 N        2.830    -0.050    22.210     6.999
    10   6 C        3.164     0.137    24.699     8.123
    11   6 C        2.970    -0.008    28.214     8.713
    12   6 C        2.914    -0.038    28.945     8.822
    13   6 C        2.919    -0.034    28.859     8.809
    14   6 C        2.968     0.024    27.455     8.595
    15   6 C        2.965    -0.043    29.055     8.842
    16   6 C        2.784     0.128    25.187     8.220
    17   9 F        0.787    -0.223    11.475     4.001
    18   6 C        2.784     0.128    25.175     8.218
    19   9 F        0.787    -0.222    11.470     4.001
    20   6 C        2.965    -0.043    29.058     8.842
    21   6 C        2.968     0.024    27.455     8.595
    22   6 C        2.919    -0.035    28.859     8.809
    23   6 C        2.915    -0.037    28.931     8.820
    24   6 C        2.971    -0.008    28.210     8.712
    25   6 C        3.167     0.138    24.678     8.117
    26   7 N        1.892    -0.309    28.861     7.964
    27   6 C        3.186     0.074    25.915     8.307
    28   6 C        2.984    -0.002    28.071     8.691
    29   6 C        2.922    -0.027    28.669     8.781
    30   6 C        2.916    -0.029    28.713     8.787
    31   6 C        2.917    -0.028    28.689     8.783
    32   6 C        2.921    -0.032    28.809     8.802
    33   6 C        2.978     0.000    28.014     8.682
    34   6 C        2.978     0.004    27.931     8.669
    35   6 C        2.921    -0.032    28.790     8.799
    36   6 C        2.916    -0.027    28.682     8.782
    37   6 C        2.915    -0.029    28.730     8.790
    38   6 C        2.919    -0.035    28.883     8.813
    39   6 C        2.976    -0.004    28.107     8.696
    40   6 C        3.063     0.036    27.143     8.543
    41   7 N        2.830    -0.050    22.199     6.998
    42   6 C        2.912     0.059    26.680     8.470
    43   6 C        2.918    -0.040    29.005     8.832
    44   6 C        2.927    -0.032    28.800     8.801
    45   6 C        2.972     0.015    27.664     8.628
    46   6 C        3.903     0.027    20.064     6.367
    47   6 C        3.761    -0.107    22.597     6.776
    48   6 C        3.761    -0.108    22.608     6.778
    49   6 C        3.761    -0.111    22.664     6.787
    50   6 C        2.925    -0.035    28.875     8.812
    51   6 C        2.919    -0.040    28.988     8.829
    52   6 C        2.924    -0.029    28.718     8.788
    53   6 C        2.917    -0.034    28.854     8.808
    54   6 C        2.784     0.128    25.186     8.220
    55   9 F        0.787    -0.223    11.478     4.002
    56   6 C        2.784     0.128    25.177     8.219
    57   9 F        0.787    -0.223    11.471     4.001
    58   6 C        2.917    -0.034    28.856     8.809
    59   6 C        2.925    -0.029    28.723     8.789
    60   7 N        1.893    -0.309    28.856     7.964
    61   6 C        3.184     0.074    25.920     8.309
    62   6 C        2.984    -0.002    28.073     8.691
    63   6 C        2.922    -0.027    28.666     8.780
    64   6 C        2.916    -0.028    28.712     8.787
    65   6 C        2.917    -0.027    28.687     8.783
    66   6 C        2.921    -0.032    28.807     8.802
    67   6 C        2.978     0.000    28.012     8.682
    68   6 C        2.978     0.004    27.929     8.669
    69   6 C        2.921    -0.032    28.788     8.799
    70   6 C        2.916    -0.027    28.679     8.782
    71   6 C        2.915    -0.029    28.729     8.789
    72   6 C        2.919    -0.035    28.878     8.812
    73   6 C        2.976    -0.004    28.110     8.697
    74   6 C        3.062     0.036    27.131     8.542
    75   6 C        2.918    -0.040    28.986     8.829
    76   6 C        2.928    -0.031    28.769     8.796
    77   1 H        0.925     0.042     2.420     2.433
    78   1 H        0.925     0.038     2.471     2.458
    79   1 H        0.925     0.040     2.450     2.448
    80   1 H        0.925     0.040     2.453     2.449
    81   1 H        0.925     0.037     2.493     2.469
    82   1 H        0.925     0.044     2.398     2.422
    83   1 H        0.925     0.039     2.462     2.454
    84   1 H        0.925     0.044     2.402     2.424
    85   1 H        0.925     0.034     2.530     2.487
    86   1 H        0.926     0.056     2.248     2.345
    87   1 H        0.926     0.040     2.452     2.449
    88   1 H        0.926     0.040     2.454     2.450
    89   1 H        0.926     0.045     2.385     2.415
    90   1 H        0.926     0.045     2.384     2.414
    91   1 H        0.926     0.039     2.461     2.453
    92   1 H        0.926     0.051     2.312     2.378
    93   1 H        0.926     0.041     2.435     2.440
    94   1 H        0.926     0.042     2.423     2.434
    95   1 H        0.926     0.045     2.388     2.417
    96   1 H        0.926     0.046     2.366     2.406
    97   1 H        0.926     0.042     2.416     2.431
    98   1 H        0.926     0.041     2.440     2.443
    99   1 H        0.926     0.039     2.464     2.455
   100   1 H        0.926     0.040     2.453     2.449
   101   1 H        0.926     0.049     2.333     2.388
   102   1 H        0.925     0.044     2.402     2.424
   103   1 H        0.925     0.034     2.526     2.485
   104   1 H        0.925     0.039     2.456     2.451
   105   1 H        0.925     0.040     2.445     2.445
   106   1 H        0.925     0.036     2.497     2.471
   107   1 H        0.925     0.044     2.399     2.422
   108   1 H        0.925     0.039     2.457     2.451
   109   1 H        0.925     0.042     2.421     2.433
   110   1 H        0.925     0.038     2.475     2.460
   111   1 H        0.926     0.055     2.258     2.350
   112   1 H        0.926     0.038     2.482     2.463
   113   1 H        0.926     0.057     2.235     2.338
   114   1 H        0.926     0.047     2.354     2.399
   115   1 H        0.926     0.047     2.358     2.401
   116   1 H        0.926     0.058     2.224     2.332
   117   1 H        0.926     0.051     2.311     2.377
   118   1 H        0.926     0.041     2.433     2.439
   119   1 H        0.926     0.042     2.421     2.433
   120   1 H        0.926     0.045     2.386     2.416
   121   1 H        0.926     0.046     2.364     2.404
   122   1 H        0.926     0.043     2.414     2.430
   123   1 H        0.926     0.041     2.441     2.443
   124   1 H        0.926     0.039     2.465     2.455
   125   1 H        0.926     0.038     2.478     2.461
   126   1 H        0.926     0.048     2.340     2.392

molecular dipole:
                 x           y           z       tot (Debye)
 q only:       -0.048      -0.002      -0.016
   full:       -0.046      -0.000      -0.014       0.122

 projected vibrational frequencies (cm⁻¹)
eigval :       -0.00    -0.00    -0.00     0.00     0.00     0.00
eigval :        5.07     7.49     8.32    13.17    17.55    19.75
eigval :       21.79    22.17    24.40    27.61    29.76    35.34
eigval :       36.67    53.19    55.55    59.12    62.30    67.66
eigval :       69.94    76.50    81.72    86.66    87.49    89.44
eigval :       99.99   102.50   105.49   112.10   121.12   126.04
eigval :      133.32   139.03   151.04   164.74   173.43   176.95
eigval :      178.78   181.11   185.78   186.50   199.57   212.91
eigval :      215.77   216.36   230.52   234.23   238.27   245.51
eigval :      252.11   258.69   263.50   263.92   269.94   279.63
eigval :      281.76   288.59   292.69   309.64   310.85   318.14
eigval :      318.47   320.78   334.90   335.42   336.40   341.58
eigval :      359.01   360.10   367.45   372.04   376.46   378.89
eigval :      379.93   381.54   386.99   391.15   395.35   395.72
eigval :      398.04   399.48   404.20   405.90   411.75   414.16
eigval :      421.20   425.17   441.78   443.37   443.72   454.30
eigval :      459.89   463.27   464.47   475.66   480.06   484.19
eigval :      487.81   509.93   510.98   518.71   520.00   528.92
eigval :      530.34   543.72   546.03   546.34   575.58   582.71
eigval :      582.83   588.99   589.76   597.42   603.54   604.93
eigval :      605.99   609.04   640.01   640.78   643.31   645.82
eigval :      647.91   657.51   664.87   666.20   667.16   667.57
eigval :      677.11   678.78   681.59   685.67   695.01   698.44
eigval :      720.13   722.38   727.61   734.92   737.22   752.02
eigval :      754.47   761.82   763.12   776.37   778.73   779.75
eigval :      784.75   804.73   812.11   815.74   823.12   824.90
eigval :      832.79   840.78   857.05   860.03   868.11   868.39
eigval :      871.85   873.87   880.86   881.96   905.36   907.03
eigval :      908.41   912.88   913.09   914.45   914.62   916.03
eigval :      916.95   917.79   919.40   922.21   922.51   924.43
eigval :      924.56   926.24   926.26   927.30   927.72   933.42
eigval :      939.99   958.96   960.29   960.47   961.49   963.12
eigval :      964.05   964.51   982.57   994.69  1000.66  1003.10
eigval :     1009.30  1022.81  1024.33  1034.39  1035.08  1035.64
eigval :     1035.70  1071.71  1071.92  1079.67  1083.13  1083.72
eigval :     1104.32  1105.00  1116.39  1119.33  1137.67  1138.14
eigval :     1142.70  1143.07  1144.33  1145.91  1149.79  1154.30
eigval :     1157.08  1163.68  1164.20  1178.28  1178.61  1182.35
eigval :     1182.83  1195.86  1196.41  1209.33  1210.88  1216.16
eigval :     1225.23  1225.31  1226.16  1231.23  1231.35  1235.87
eigval :     1244.44  1247.61  1251.04  1251.62  1261.07  1271.34
eigval :     1271.47  1273.34  1274.50  1276.54  1280.65  1282.20
eigval :     1282.56  1288.17  1288.51  1303.74  1308.50  1309.66
eigval :     1318.29  1326.17  1331.98  1332.41  1332.58  1335.75
eigval :     1335.95  1346.78  1353.87  1378.35  1378.64  1380.22
eigval :     1393.26  1393.99  1395.10  1395.79  1396.41  1403.54
eigval :     1403.83  1406.93  1407.14  1413.37  1420.17  1425.55
eigval :     1427.22  1427.76  1428.02  1428.74  1439.99  1445.78
eigval :     1447.35  1450.30  1453.04  1457.36  1474.21  1479.13
eigval :     1483.69  1484.66  1486.07  1487.67  1487.90  1489.83
eigval :     1490.15  1496.60  1496.93  1499.56  1499.79  1502.82
eigval :     1504.19  1510.55  1511.54  1515.62  1515.67  1524.98
eigval :     1527.72  1542.07  1543.94  1546.91  1547.70  1558.83
eigval :     1564.91  1565.50  1566.56  1575.67  1580.16  1587.17
eigval :     1587.39  1588.29  1594.89  1595.01  3023.16  3023.52
eigval :     3023.64  3024.21  3027.16  3027.33  3027.85  3028.04
eigval :     3031.80  3032.35  3033.58  3033.63  3038.72  3039.05
eigval :     3044.81  3046.95  3048.22  3050.14  3076.24  3076.38
eigval :     3080.01  3080.17  3080.49  3081.56  3083.76  3084.60
eigval :     3086.89  3087.23  3090.26  3090.41  3099.63  3101.48
eigval :     3101.61  3102.15  3103.58  3103.95  3104.09  3104.56
eigval :     3107.21  3107.27  3114.43  3114.64  3115.58  3115.82
eigval :     3124.63  3125.06  3128.07  3129.20  3129.62  3136.16

   temp. (K)  partition function   enthalpy   heat capacity  entropy
                                   cal/mol     cal/K/mol   cal/K/mol   J/K/mol
 298.15  VIB  0.861E+32            39246.862    239.773    246.639
         ROT  0.557E+09              888.752      2.981     43.002
         INT  0.480E+41            40135.615    242.754    289.641
         TR   0.306E+29             1481.254      4.968     46.558
         TOT                       41616.8687   247.7217   336.1991  1406.6568

       T/K    H(0)-H(T)+PV         H(T)/Eh          T*S/Eh         G(T)/Eh
   ------------------------------------------------------------------------
    298.15    0.663207E-01    0.103329E+01    0.159739E+00    0.873551E+00
   ------------------------------------------------------------------------

         :::::::::::::::::::::::::::::::::::::::::::::::::::::
         ::                  THERMODYNAMIC                  ::
         :::::::::::::::::::::::::::::::::::::::::::::::::::::
         :: total free energy        -201.003615184429 Eh   ::
         ::.................................................::
         :: total energy             -201.877165899825 Eh   ::
         :: zero point energy           0.966969031842 Eh   ::
         :: G(RRHO) w/o ZPVE           -0.093418316446 Eh   ::
         :: G(RRHO) contrib.            0.873550715396 Eh   ::
         :::::::::::::::::::::::::::::::::::::::::::::::::::::

           -------------------------------------------------
          | TOTAL ENERGY             -201.877165899825 Eh   |
          | TOTAL ENTHALPY           -200.843876166220 Eh   |
          | TOTAL FREE ENERGY        -201.003615184429 Eh   |
          | GRADIENT NORM               0.000048180500 Eh/α |
          | HOMO-LUMO GAP               0.591706559542 eV   |
           -------------------------------------------------

 * finished run on 2025/07/19 at 03:20:04.679
