   * xtb version 6.7.1 (edcfbbe) compiled by 'albert@albert-system' on 2024-07-22

   ID    Z sym.   atoms
    1    6 C      1-8, 10-16, 18, 20-25, 27-40, 42-54, 56, 58, 59, 61-76
    2    7 N      9, 26, 41, 60
    3    9 F      17, 19, 55, 57
    4    1 H      77-126

          program call               : xtb data2507/toluene/4FBTPI/4FBTPI_toluene_S0_crest.xyz --gfn 2 --gbsa toluene --ohess vtight --parallel 40 --molden --ceasefiles --namespace data2507/toluene/4FBTPI/4FBTPI_toluene_S0_finalOpt
      * Solvation model:               GBSA
        Solvent                        toluene
        Solvent mass                       9.2140E+01 g/mol
          :  Hamiltonian                  GFN2-xTB          :
 * total energy  :  -201.9514515 Eh     change       -0.1460677E-08 Eh
 * total energy  :  -201.9515271 Eh     change       -0.7562333E-04 Eh
 * total energy  :  -201.9515692 Eh     change       -0.4205389E-04 Eh
 * total energy  :  -201.9515851 Eh     change       -0.1588498E-04 Eh
 * total energy  :  -201.9515975 Eh     change       -0.1247361E-04 Eh
 * total energy  :  -201.9516105 Eh     change       -0.1297022E-04 Eh
 * total energy  :  -201.9515974 Eh     change        0.1314238E-04 Eh
 * total energy  :  -201.9516129 Eh     change       -0.1558648E-04 Eh
 * total energy  :  -201.9516199 Eh     change       -0.6967902E-05 Eh
 * total energy  :  -201.9516237 Eh     change       -0.3827469E-05 Eh
 * total energy  :  -201.9517744 Eh     change       -0.9969184E-06 Eh
 * total energy  :  -201.9517755 Eh     change       -0.1135523E-05 Eh
 * total energy  :  -201.9517768 Eh     change       -0.1282665E-05 Eh
 * total energy  :  -201.9517781 Eh     change       -0.1246443E-05 Eh
 * total energy  :  -201.9517792 Eh     change       -0.1140272E-05 Eh
 * total energy  :  -201.9517803 Eh     change       -0.1109100E-05 Eh
 * total energy  :  -201.9517814 Eh     change       -0.1088674E-05 Eh
 * total energy  :  -201.9517823 Eh     change       -0.8881216E-06 Eh
 * total energy  :  -201.9517823 Eh     change       -0.6768630E-08 Eh
   *** GEOMETRY OPTIMIZATION CONVERGED AFTER 94 ITERATIONS ***

 final structure:
================
126
 xtb: 6.7.1 (edcfbbe)
C           -6.09491754624953        5.82505950462913       -1.84445590256384
C           -7.04322346905502        4.96771620451553       -2.69612323490104
C           -6.40009121393517        4.76545607288080       -4.07140773964724
C           -8.37724149337269        5.70326291392155       -2.89363372781051
C           -7.30661648766546        3.65600333850108       -1.97365574827194
C           -6.99151845528716        2.41624304771121       -2.51818906912239
C           -7.24773161574164        1.24097084669287       -1.83278890330072
C           -7.83071116101108        1.28394705420344       -0.57539758610864
N           -8.07175744418855        0.08495699021063        0.13472610442043
C           -7.10540285160118       -0.73972118776086        0.66352583971098
C           -5.67269584402878       -0.50456499950005        0.63345378789592
C           -5.09396673126560        0.76429486214438        0.60786269053151
C           -3.72122654194408        0.90766976224794        0.60101376808020
C           -2.88841479515160       -0.20915973776794        0.62210138017462
C           -1.42583537526143       -0.05495292490720        0.61348388067565
C           -0.77088814858155        0.86404986831325        1.43493676313738
F           -1.48385129309279        1.62806466139406        2.28269134125088
C            0.60897087887761        1.00078109306629        1.43364851122690
F            1.16075262841123        1.88964024239458        2.27935359672189
C            1.42900905113411        0.22568941772673        0.61272841304346
C            2.89348186496534        0.36129526278169        0.61402545973826
C            3.70411537814586       -0.77067921670350        0.66889374466820
C            5.07895313742959       -0.65432158750591        0.66047750445926
C            5.68213172678315        0.60078289104642        0.57764981454332
C            7.12014221765625        0.80368232311853        0.55793304148721
N            7.68168466461835        1.89322617800667        1.03191651058495
C            9.01702808459277        1.73507221550433        0.85235360184791
C           10.05962531174313        2.63167736339731        1.22136976014117
C            9.78171134561257        3.84549053285908        1.85946051661378
C           10.80206023382481        4.69018406545456        2.22048743706971
C           12.11929694408912        4.32670551558880        1.94682249614643
C           12.40391533054928        3.13689476111968        1.31755360781055
C           11.38875266690925        2.24848048741415        0.92924985813313
C           11.65676081186403        0.99485144522639        0.24338602515458
C           12.96180318754416        0.60675541426843       -0.09347620723158
C           13.22539627911884       -0.56173688172667       -0.76893887273080
C           12.18081173619920       -1.39652616957834       -1.15321572248953
C           10.88826511162515       -1.05662732618631       -0.83685453377329
C           10.59946814038415        0.11896820424237       -0.12865927257161
C            9.27895223824533        0.51286248902130        0.23223370700259
N            8.05017709147441       -0.07988453208360        0.05948749497771
C            7.75289966816940       -1.31738201743416       -0.55691399066968
C            8.06261677590659       -2.51510432087964        0.07940747538665
C            7.73429987575947       -3.71411368720897       -0.52049543928402
C            7.09027957720059       -3.76202163633744       -1.75694840148918
C            6.74189090569873       -5.11104293518691       -2.36542892283059
C            6.04977200354412       -4.98331115869395       -3.72566335235213
C            5.79375706148755       -5.85428282648761       -1.41220872874350
C            8.03210509885559       -5.92222923874523       -2.55743204632911
C            6.79086256766645       -2.55361092937978       -2.37553391893965
C            7.11535696356338       -1.34287921157939       -1.78795060138281
C            4.86595161452457        1.73515138170678        0.54712612889886
C            3.49335533225267        1.61992422668704        0.56781253266164
C            0.77424655913977       -0.69128664367902       -0.21082962330534
F            1.48903445337735       -1.45516865371736       -1.05789418859761
C           -0.60534352834337       -0.82653416754363       -0.21103222827959
F           -1.15691096802131       -1.71231556841477       -1.06096193030426
C           -3.46431943245710       -1.47946661264544        0.66639227765561
C           -4.83397254826265       -1.62209957743737        0.67762572529958
N           -7.62543999269532       -1.80643266827282        1.22884845249895
C           -8.96885185547806       -1.69210104073884        1.08110512495340
C           -9.97713990725594       -2.58244664841822        1.54759320493039
C           -9.64937722955325       -3.74355034374116        2.25611320517923
C          -10.63696952781813       -4.58151167385385        2.71147629973507
C          -11.97095600674204       -4.26325396975309        2.46394386619793
C          -12.30458150368186       -3.12509982170170        1.76684070558875
C          -11.32397920944348       -2.24734608064658        1.27853380499203
C          -11.64387382060865       -1.05278950267497        0.51387229028901
C          -12.96784314613278       -0.71947687860266        0.19273309926040
C          -13.28026752455051        0.38667340887509       -0.56221843553928
C          -12.26845997745894        1.21019946931652       -1.04559792353928
C          -10.95887077916106        0.92408576755755       -0.74658927939009
C          -10.62006684546113       -0.18557798527314        0.04124875176241
C           -9.27976714231016       -0.52252796277125        0.38672661365806
C           -8.15014907341852        2.51415149163075       -0.00973400240294
C           -7.89047479245698        3.67679069710253       -0.70691631649896
H           -5.87986755265846        6.76100539531328       -2.35536444259804
H           -6.52935184523737        6.05938922288280       -0.87664007718640
H           -5.15653075602761        5.29889102704918       -1.67998300951801
H           -7.04553444794789        4.18312111334477       -4.72508395937616
H           -5.43590732027494        4.26966594291123       -3.98503861433332
H           -6.23744933151621        5.73437389636248       -4.53900772699630
H           -9.06352592880041        5.08922227153638       -3.47371688119880
H           -8.21237858656422        6.63544472887072       -3.42941010387807
H           -8.84835851586974        5.93692073415415       -1.94293142924783
H           -6.53928992915034        2.34219112057787       -3.49278042265985
H           -6.99418564114411        0.28634222124446       -2.27051919370582
H           -5.70937455038719        1.64914466963263        0.61081355943816
H           -3.29394947852104        1.89817305345921        0.56992799529486
H            3.25637366006300       -1.75011484224250        0.74025976691508
H            5.67729767813606       -1.54744630345789        0.73669305393622
H            8.74852431251776        4.08670531937825        2.05811648091580
H           10.59035512954378        5.62722481155576        2.71434077250637
H           12.92679181218833        4.98585649340012        2.23172457890829
H           13.43829673514320        2.89860259801240        1.12773814905648
H           13.79409944446881        1.23660225724601        0.17548795699834
H           14.24474676959943       -0.82617048790536       -1.00926428684789
H           12.38315802836012       -2.30613461318594       -1.69924885154171
H           10.08015725474869       -1.69925246814537       -1.14634778931580
H            8.55886495465433       -2.49671070185381        1.03936563320307
H            7.98546594800188       -4.62733864169129       -0.00402248211361
H            5.82785005762791       -5.97609870306445       -4.11164482406011
H            6.69031652752011       -4.47985336534686       -4.44631150839454
H            5.11112874001061       -4.44065354632578       -3.63910376025346
H            4.88810551064285       -5.27205192457315       -1.25282405529696
H            6.25930633251580       -6.03425398793204       -0.44711715975243
H            5.51450824066195       -6.81490478413583       -1.83936361147197
H            8.53234822595076       -6.10655859275190       -1.61082976830958
H            7.80276616233616       -6.88303029290791       -3.01296241776285
H            8.71993857664762       -5.38729376770291       -3.20952084527107
H            6.29482807724514       -2.53290133771606       -3.33113190035103
H            6.87068550556673       -0.41302606418228       -2.28061602066137
H            5.33593344441578        2.70505931187894        0.50590894473304
H            2.88146609361770        2.50788650690964        0.52800115129947
H           -2.83558567294964       -2.35549675427203        0.70812502502087
H           -5.28492576280417       -2.60077504633701        0.72364063286634
H           -8.60465892203905       -3.94992702904383        2.43220351257261
H          -10.38685952402053       -5.47841860117808        3.25898025701817
H          -12.75287599905055       -4.91674466737186        2.82353186210841
H          -13.35024665151352       -2.92011734886951        1.60147094806602
H          -13.77610373642266       -1.34459265418311        0.53592741116901
H          -14.31267416019257        0.60983318647678       -0.78827149191011
H          -12.50957233473837        2.06927072944319       -1.65419369022736
H          -10.17663931220239        1.55749183755481       -1.13208012724632
H           -8.60278752672255        2.54942945593732        0.97100706336094
H           -8.14997140884548        4.61624880081546       -0.24451140352260

          :  Hamiltonian                  GFN2-xTB          :
         :: gradient norm              0.000060190364 Eh/a0 ::
         :: HOMO-LUMO gap              1.923364808446 eV    ::
         :: SCC energy              -205.313423925150 Eh    ::
         :: -> dispersion             -0.175949401504 Eh    ::
         :: -> Gsolv                  -0.078667498387 Eh    ::
         :: repulsion energy           3.361641625203 Eh    ::

    * Orbital Energies and Occupations

         #    Occupation            Energy/Eh            Energy/eV
      -------------------------------------------------------------
         1        2.0000           -0.8526316             -23.2013
       ...           ...                  ...                  ...
       173        2.0000           -0.4148115             -11.2876
       174        2.0000           -0.4124909             -11.2244
       175        2.0000           -0.4092598             -11.1365
       176        2.0000           -0.4047731             -11.0144
       177        2.0000           -0.4036673             -10.9843
       178        2.0000           -0.3991217             -10.8607
       179        2.0000           -0.3988347             -10.8528
       180        2.0000           -0.3839604             -10.4481
       181        2.0000           -0.3838059             -10.4439
       182        2.0000           -0.3813022             -10.3758
       183        2.0000           -0.3811241             -10.3709
       184        2.0000           -0.3680675             -10.0156
       185        2.0000           -0.3670331              -9.9875 (HOMO)
       186                         -0.2963508              -8.0641 (LUMO)
       187                         -0.2722152              -7.4074
       188                         -0.2684023              -7.3036
       189                         -0.2575329              -7.0078
       190                         -0.2514806              -6.8431
       191                         -0.2512951              -6.8381
       192                         -0.2468588              -6.7174
       193                         -0.2405493              -6.5457
       194                         -0.2389811              -6.5030
       195                         -0.2389687              -6.5027
       196                         -0.2372964              -6.4572
       ...                                ...                  ...
       354                          0.7238923              19.6981
      -------------------------------------------------------------
                  HL-Gap            0.0706824 Eh            1.9234 eV

     #   Z          covCN         q      C6AA      α(0)
     1   6 C        3.761    -0.107    22.600     6.777
     2   6 C        3.902     0.027    20.067     6.368
     3   6 C        3.761    -0.110    22.658     6.786
     4   6 C        3.761    -0.107    22.596     6.776
     5   6 C        2.972     0.014    27.694     8.632
     6   6 C        2.925    -0.036    28.898     8.816
     7   6 C        2.920    -0.041    29.026     8.835
     8   6 C        2.912     0.059    26.676     8.469
     9   7 N        2.839    -0.050    22.198     6.998
    10   6 C        3.190     0.132    24.680     8.103
    11   6 C        2.973     0.005    27.905     8.665
    12   6 C        2.920    -0.034    28.855     8.809
    13   6 C        2.922    -0.027    28.671     8.781
    14   6 C        2.976     0.024    27.456     8.595
    15   6 C        2.971    -0.015    28.383     8.739
    16   6 C        2.786     0.144    24.844     8.164
    17   9 F        0.787    -0.198    11.219     3.956
    18   6 C        2.786     0.145    24.837     8.163
    19   9 F        0.787    -0.198    11.213     3.955
    20   6 C        2.972    -0.015    28.385     8.739
    21   6 C        2.976     0.024    27.456     8.595
    22   6 C        2.922    -0.027    28.669     8.780
    23   6 C        2.921    -0.034    28.852     8.808
    24   6 C        2.973     0.005    27.906     8.665
    25   6 C        3.191     0.132    24.676     8.102
    26   7 N        1.896    -0.314    28.983     7.981
    27   6 C        3.203     0.060    26.103     8.323
    28   6 C        2.985    -0.003    28.087     8.693
    29   6 C        2.921    -0.033    28.829     8.805
    30   6 C        2.917    -0.031    28.786     8.798
    31   6 C        2.917    -0.034    28.844     8.807
    32   6 C        2.921    -0.036    28.903     8.816
    33   6 C        2.979    -0.004    28.125     8.699
    34   6 C        2.979    -0.001    28.042     8.686
    35   6 C        2.922    -0.035    28.871     8.811
    36   6 C        2.916    -0.033    28.834     8.805
    37   6 C        2.917    -0.032    28.802     8.801
    38   6 C        2.919    -0.041    29.017     8.834
    39   6 C        2.977    -0.005    28.132     8.700
    40   6 C        3.076     0.023    27.401     8.582
    41   7 N        2.839    -0.050    22.196     6.997
    42   6 C        2.912     0.059    26.680     8.470
    43   6 C        2.919    -0.041    29.010     8.832
    44   6 C        2.927    -0.033    28.819     8.804
    45   6 C        2.973     0.014    27.688     8.631
    46   6 C        3.903     0.027    20.067     6.368
    47   6 C        3.761    -0.111    22.661     6.786
    48   6 C        3.761    -0.107    22.600     6.777
    49   6 C        3.761    -0.107    22.597     6.776
    50   6 C        2.925    -0.036    28.887     8.814
    51   6 C        2.920    -0.041    29.020     8.834
    52   6 C        2.928    -0.027    28.668     8.781
    53   6 C        2.921    -0.026    28.640     8.776
    54   6 C        2.786     0.144    24.849     8.165
    55   9 F        0.787    -0.198    11.217     3.956
    56   6 C        2.786     0.144    24.846     8.165
    57   9 F        0.787    -0.198    11.215     3.956
    58   6 C        2.921    -0.025    28.639     8.776
    59   6 C        2.928    -0.027    28.669     8.781
    60   7 N        1.896    -0.314    28.983     7.981
    61   6 C        3.202     0.060    26.106     8.324
    62   6 C        2.985    -0.003    28.087     8.693
    63   6 C        2.921    -0.033    28.829     8.805
    64   6 C        2.917    -0.031    28.786     8.798
    65   6 C        2.917    -0.034    28.844     8.807
    66   6 C        2.921    -0.036    28.902     8.816
    67   6 C        2.979    -0.004    28.124     8.699
    68   6 C        2.979    -0.001    28.041     8.686
    69   6 C        2.922    -0.035    28.870     8.811
    70   6 C        2.916    -0.033    28.834     8.805
    71   6 C        2.917    -0.032    28.802     8.801
    72   6 C        2.919    -0.041    29.016     8.833
    73   6 C        2.977    -0.005    28.132     8.700
    74   6 C        3.076     0.024    27.400     8.582
    75   6 C        2.919    -0.040    29.002     8.831
    76   6 C        2.927    -0.033    28.815     8.803
    77   1 H        0.925     0.043     2.407     2.426
    78   1 H        0.925     0.039     2.456     2.451
    79   1 H        0.925     0.035     2.517     2.481
    80   1 H        0.925     0.039     2.468     2.457
    81   1 H        0.925     0.038     2.472     2.459
    82   1 H        0.925     0.042     2.426     2.436
    83   1 H        0.925     0.035     2.514     2.479
    84   1 H        0.925     0.043     2.407     2.426
    85   1 H        0.925     0.040     2.455     2.450
    86   1 H        0.926     0.053     2.278     2.360
    87   1 H        0.926     0.035     2.512     2.479
    88   1 H        0.926     0.045     2.384     2.415
    89   1 H        0.926     0.052     2.299     2.371
    90   1 H        0.926     0.051     2.309     2.376
    91   1 H        0.926     0.045     2.384     2.415
    92   1 H        0.926     0.044     2.397     2.421
    93   1 H        0.926     0.033     2.543     2.494
    94   1 H        0.926     0.033     2.551     2.497
    95   1 H        0.926     0.035     2.512     2.478
    96   1 H        0.926     0.038     2.481     2.463
    97   1 H        0.926     0.033     2.539     2.492
    98   1 H        0.926     0.033     2.545     2.495
    99   1 H        0.926     0.032     2.556     2.500
   100   1 H        0.926     0.039     2.465     2.455
   101   1 H        0.926     0.047     2.356     2.400
   102   1 H        0.925     0.042     2.427     2.436
   103   1 H        0.925     0.038     2.470     2.458
   104   1 H        0.925     0.039     2.466     2.456
   105   1 H        0.925     0.035     2.513     2.479
   106   1 H        0.925     0.039     2.457     2.451
   107   1 H        0.925     0.043     2.407     2.426
   108   1 H        0.925     0.040     2.455     2.450
   109   1 H        0.925     0.043     2.408     2.427
   110   1 H        0.925     0.035     2.513     2.479
   111   1 H        0.926     0.053     2.277     2.360
   112   1 H        0.926     0.035     2.517     2.481
   113   1 H        0.926     0.060     2.199     2.319
   114   1 H        0.926     0.053     2.279     2.361
   115   1 H        0.926     0.053     2.282     2.362
   116   1 H        0.926     0.060     2.194     2.317
   117   1 H        0.926     0.044     2.397     2.421
   118   1 H        0.926     0.033     2.542     2.493
   119   1 H        0.926     0.033     2.550     2.497
   120   1 H        0.926     0.035     2.511     2.478
   121   1 H        0.926     0.038     2.481     2.463
   122   1 H        0.926     0.033     2.538     2.491
   123   1 H        0.926     0.033     2.545     2.495
   124   1 H        0.926     0.032     2.558     2.501
   125   1 H        0.926     0.039     2.465     2.455
   126   1 H        0.926     0.047     2.356     2.400

molecular dipole:
                 x           y           z       tot (Debye)
 q only:       -0.098      -0.071      -1.743
   full:       -0.116      -0.080      -1.986       5.060

 projected vibrational frequencies (cm⁻¹)
eigval :       -0.00    -0.00    -0.00     0.00     0.00     0.00
eigval :        4.33     5.42     6.46    13.56    15.08    18.26
eigval :       19.04    21.58    24.83    28.53    31.29    31.98
eigval :       37.51    46.78    56.88    59.35    61.79    65.30
eigval :       70.50    73.85    77.42    83.35    86.53    91.88
eigval :       92.59    99.16   106.64   115.06   120.51   125.21
eigval :      136.10   141.23   150.10   157.92   169.36   172.69
eigval :      177.20   179.05   183.27   185.91   202.76   212.91
eigval :      215.33   221.76   227.34   228.65   236.72   242.17
eigval :      245.30   257.94   263.08   266.47   267.61   269.78
eigval :      279.04   295.91   297.98   310.37   312.07   316.53
eigval :      316.64   317.25   321.83   333.72   352.15   356.99
eigval :      357.91   363.20   367.88   370.42   371.44   374.18
eigval :      381.36   382.44   386.52   396.72   397.63   399.54
eigval :      401.24   408.91   410.48   415.66   420.04   425.28
eigval :      428.54   445.29   447.68   450.27   450.96   454.71
eigval :      464.69   471.23   476.37   482.45   483.39   503.48
eigval :      510.08   517.36   520.36   528.33   530.74   535.02
eigval :      535.80   545.69   546.75   584.51   584.57   585.19
eigval :      590.36   592.69   597.01   600.31   607.01   607.85
eigval :      628.67   641.00   644.27   651.69   652.85   654.96
eigval :      659.09   662.50   668.36   669.65   672.60   675.58
eigval :      682.59   683.82   691.04   697.49   699.93   704.07
eigval :      720.56   725.97   732.73   736.22   736.34   756.10
eigval :      756.25   765.04   765.72   777.55   781.40   781.93
eigval :      786.55   815.16   817.93   821.61   824.71   830.23
eigval :      861.33   862.07   865.51   868.37   868.46   869.18
eigval :      873.96   874.32   882.20   883.02   906.87   908.10
eigval :      909.68   911.19   912.71   913.99   914.27   916.40
eigval :      917.06   922.99   923.75   926.48   926.57   926.84
eigval :      926.87   927.81   928.43   939.65   939.83   940.41
eigval :      960.18   960.82   961.16   961.90   963.87   963.97
eigval :      964.42   971.55   997.06  1004.94  1014.14  1017.51
eigval :     1032.01  1034.05  1034.71  1035.21  1035.50  1036.31
eigval :     1072.91  1072.94  1073.02  1084.80  1085.46  1106.92
eigval :     1107.07  1113.62  1133.26  1133.41  1139.15  1139.24
eigval :     1143.25  1143.83  1144.29  1145.14  1151.22  1151.71
eigval :     1172.60  1173.24  1180.68  1181.32  1184.12  1184.64
eigval :     1198.53  1199.11  1201.53  1204.41  1212.79  1213.23
eigval :     1224.46  1225.71  1225.89  1231.35  1231.68  1247.44
eigval :     1252.21  1252.75  1255.74  1255.84  1270.43  1271.21
eigval :     1272.04  1272.18  1281.18  1281.86  1284.38  1284.64
eigval :     1301.48  1305.64  1305.96  1313.63  1313.95  1319.93
eigval :     1321.13  1328.09  1328.77  1336.49  1336.68  1345.81
eigval :     1346.31  1375.61  1375.86  1391.45  1395.65  1396.47
eigval :     1397.46  1401.63  1403.29  1403.44  1403.89  1404.66
eigval :     1407.34  1407.72  1419.30  1419.87  1427.74  1427.99
eigval :     1429.61  1430.91  1431.09  1433.87  1435.79  1438.24
eigval :     1465.41  1475.99  1487.34  1487.57  1487.92  1488.48
eigval :     1489.70  1490.14  1498.16  1498.74  1502.23  1502.49
eigval :     1509.06  1510.28  1510.57  1511.40  1512.74  1513.07
eigval :     1515.22  1515.96  1528.71  1536.07  1537.70  1556.40
eigval :     1557.11  1561.83  1561.97  1562.20  1566.26  1566.39
eigval :     1568.09  1568.47  1589.23  1592.63  1593.00  1595.07
eigval :     1597.25  1597.34  1602.85  1602.88  3023.51  3023.60
eigval :     3023.77  3023.79  3027.18  3027.40  3027.47  3027.79
eigval :     3031.90  3031.97  3033.12  3033.13  3038.96  3039.00
eigval :     3045.67  3046.39  3049.30  3049.76  3069.84  3069.84
eigval :     3073.85  3074.19  3077.26  3078.25  3080.63  3080.68
eigval :     3081.49  3082.08  3084.20  3084.47  3093.02  3093.90
eigval :     3095.08  3095.41  3096.57  3096.65  3097.44  3097.95
eigval :     3098.86  3099.26  3109.85  3110.02  3110.16  3110.18
eigval :     3116.93  3117.40  3119.72  3121.32  3123.06  3125.17

   temp. (K)  partition function   enthalpy   heat capacity  entropy
                                   cal/mol     cal/K/mol   cal/K/mol   J/K/mol
 298.15  VIB  0.280E+33            39053.934    237.685    246.902
         ROT  0.534E+09              888.752      2.981     42.917
         INT  0.150E+42            39942.686    240.666    289.819
         TR   0.306E+29             1481.254      4.968     46.558
         TOT                       41423.9402   245.6338   336.3771  1407.4016

       T/K    H(0)-H(T)+PV         H(T)/Eh          T*S/Eh         G(T)/Eh
   ------------------------------------------------------------------------
    298.15    0.660133E-01    0.103675E+01    0.159824E+00    0.876928E+00
   ------------------------------------------------------------------------

         :::::::::::::::::::::::::::::::::::::::::::::::::::::
         ::                  THERMODYNAMIC                  ::
         :::::::::::::::::::::::::::::::::::::::::::::::::::::
         :: total free energy        -201.074854749916 Eh   ::
         ::.................................................::
         :: total energy             -201.951782299185 Eh   ::
         :: zero point energy           0.970737890497 Eh   ::
         :: G(RRHO) w/o ZPVE           -0.093810341228 Eh   ::
         :: G(RRHO) contrib.            0.876927549269 Eh   ::
         :::::::::::::::::::::::::::::::::::::::::::::::::::::

           -------------------------------------------------
          | TOTAL ENERGY             -201.951782299185 Eh   |
          | TOTAL ENTHALPY           -200.915031157987 Eh   |
          | TOTAL FREE ENERGY        -201.074854749916 Eh   |
          | GRADIENT NORM               0.000060186826 Eh/α |
          | HOMO-LUMO GAP               1.923364870197 eV   |
           -------------------------------------------------

 * finished run on 2025/07/19 at 02:50:39.898
