   * xtb version 6.7.1 (edcfbbe) compiled by 'albert@albert-system' on 2024-07-22

   ID    Z sym.   atoms
    1    6 C      1-12, 14-16, 18-31, 33-45
    2    7 N      13, 17, 32
    3    1 H      46-72

          program call               : xtb data2507/gas/TCP/TCP_gas_T1_crest.xyz --gfn 2 --spinpol --tblite --uhf 2 --ohess vtight --parallel 40 --molden --ceasefiles --namespace data2507/gas/TCP/TCP_gas_T1_finalOpt
 * total energy  :  -112.4747378 Eh     change       -0.3479597E-07 Eh
 * total energy  :  -112.4747669 Eh     change       -0.2910040E-04 Eh
 * total energy  :  -112.4744215 Eh     change        0.3453090E-03 Eh
 * total energy  :  -112.4748678 Eh     change       -0.4462663E-03 Eh
 * total energy  :  -112.4748917 Eh     change       -0.2392531E-04 Eh
 * total energy  :  -112.4749000 Eh     change       -0.8285477E-05 Eh
 * total energy  :  -112.4749038 Eh     change       -0.3777985E-05 Eh
 * total energy  :  -112.4749080 Eh     change       -0.4219603E-05 Eh
 * total energy  :  -112.4749115 Eh     change       -0.3481377E-05 Eh
 * total energy  :  -112.4749169 Eh     change       -0.5401730E-05 Eh
 * total energy  :  -112.4749694 Eh     change       -0.7902880E-06 Eh
 * total energy  :  -112.4749703 Eh     change       -0.9533808E-06 Eh
 * total energy  :  -112.4749711 Eh     change       -0.7371595E-06 Eh
 * total energy  :  -112.4749717 Eh     change       -0.5803050E-06 Eh
 * total energy  :  -112.4749722 Eh     change       -0.5078747E-06 Eh
 * total energy  :  -112.4749722 Eh     change       -0.6394757E-07 Eh
 * total energy  :  -112.4749718 Eh     change        0.3766288E-06 Eh
 * total energy  :  -112.4749724 Eh     change       -0.5546324E-06 Eh
 * total energy  :  -112.4749725 Eh     change       -0.8560075E-07 Eh
   *** GEOMETRY OPTIMIZATION CONVERGED AFTER 34 ITERATIONS ***

 final structure:
================
72
 xtb: 6.7.1 (edcfbbe)
C            4.17015973538126       -3.65066976257199       -3.05011714645936
C            2.79738296833526       -3.42394562149175       -3.11425619988238
C            2.17701363386418       -2.52013186811818       -2.26705459101037
C            2.96518453632880       -1.85393370427419       -1.34167338014103
C            4.36683038561061       -2.05915556991231       -1.28613633213176
C            4.96601481915448       -2.97145963416160       -2.14618587491431
C            4.86822511341833       -1.18348969250825       -0.26823594403291
C            6.13508639901779       -0.94155783792681        0.24988795454351
C            6.26715123403183       -0.02703767017024        1.27812661575774
C            5.15751493860182        0.63044858094741        1.80422796371212
C            3.88650322371865        0.40837247483191        1.30061504201057
C            3.74935992877835       -0.48420340818052        0.25016726332581
N            2.60809284732116       -0.90052376065724       -0.40741349201579
C            1.30987767250377       -0.42929724562368       -0.19125480743975
C            0.27064961536018       -1.36628319674907        0.00042179050946
C           -1.04814863416760       -0.89762311176487        0.19159532516051
N           -2.06715442370489       -1.82902250245415        0.41040465378195
C           -2.03144282995737       -2.84452407431754        1.34687382493062
C           -1.04669581163633       -3.15765674340455        2.27073905271132
C           -1.27350404360315       -4.22783924770105        3.12094152593994
C           -2.45623192763281       -4.96106911752198        3.06119898687705
C           -3.45302315346210       -4.63881663750970        2.15876977682317
C           -3.24903998889075       -3.56893857621878        1.29572957692410
C           -4.04885636575355       -2.95294690990258        0.27838045933690
C           -5.31350400307146       -3.21352334399586       -0.23616334014206
C           -5.78673261175736       -2.42079014838137       -1.26508796100864
C           -5.01290554615875       -1.39105706581151       -1.79542829729892
C           -3.75207538802954       -1.11047191017552       -1.29534616694395
C           -3.28249146451753       -1.88087879556500       -0.24421689722708
C           -1.32317094470233        0.45137447743671        0.16720770393195
C           -0.27642459794242        1.38524167700248       -0.00138581327778
N           -0.54608758858870        2.74344379811282       -0.00196537226090
C            0.15970422755751        3.71072670220620        0.69419047531047
C            1.21293456250808        3.56661880575914        1.57929841100871
C            1.73324943008671        4.70894085864977        2.17282530392573
C            1.20377936937214        5.96813871089735        1.88927328204869
C            0.12964220146733        6.12069209936600        1.03234635525940
C           -0.41691209232769        4.98744850865018        0.43450080668656
C           -1.51985864301190        4.76847116275550       -0.44202156239051
C           -2.45652060093353        5.60733987476230       -1.04145898594915
C           -3.39184719454106        5.05587323549300       -1.89726455827738
C           -3.40242343030630        3.68935929074217       -2.17803499550307
C           -2.48648451680448        2.83208988599700       -1.58298284275400
C           -1.56705029914334        3.36788527076076       -0.69921199385655
C            1.04822267010938        0.92236071624903       -0.16891271959452
H            4.61833929419364       -4.36320436907606       -3.72660686232089
H            2.20497079923744       -3.95773731424544       -3.84190499728268
H            1.11618752592238       -2.33365214979771       -2.33832949812864
H            6.03142878164136       -3.14001319711157       -2.10862742531382
H            6.99457712395943       -1.46349705481043       -0.14225921422083
H            7.24410175463535        0.17573443636761        1.69116713876874
H            5.28885317700329        1.32401012052392        2.62094754963783
H            3.02930468696896        0.90564193720766        1.72659110614988
H            0.48040685600332       -2.42209793016149        0.00076791469373
H           -0.13706783248246       -2.58047039672277        2.33879009915985
H           -0.52062483128197       -4.49364266254059        3.84748787898936
H           -2.59727008808594       -5.78908077724516        3.73995889648529
H           -4.37370792741223       -5.20103795546558        2.12463131518994
H           -5.90813009095407       -4.02281671938349        0.15928894365642
H           -6.76818821412384       -2.60677897040743       -1.67534107519215
H           -5.40070531135141       -0.80193048196803       -2.61264171876100
H           -3.15026602828656       -0.32488535359820       -1.72456719451317
H           -2.32472277352053        0.80596297826676        0.35402706215243
H            1.60975865345343        2.59407102104103        1.82352483570749
H            2.55442038348480        4.61906428069138        2.86678943397291
H            1.63653827509036        6.83767108740449        2.36178439524581
H           -0.28526335142740        7.09656823303400        0.83166096713230
H           -2.44413036564834        6.66806506224063       -0.84280569028549
H           -4.12295973613271        5.69440421763932       -2.37095877920629
H           -4.12785389878623        3.29240057309025       -2.87097252336588
H           -2.48372726579830        1.78117919147066       -1.82495674592067
H            1.83812451251378        1.63279009280675       -0.35614318013795

 projected vibrational frequencies (cm⁻¹)
eigval :       -0.00    -0.00     0.00     0.00     0.00     0.00
eigval :       12.05    17.82    21.85    24.19    25.67    33.42
eigval :       53.05    61.87    74.15    95.60    97.34   105.54
eigval :      130.30   133.66   134.93   144.67   145.40   147.70
eigval :      200.03   203.87   208.93   244.10   251.67   260.60
eigval :      264.17   266.48   281.86   286.40   319.73   329.06
eigval :      368.77   369.74   373.37   386.11   386.58   406.76
eigval :      416.99   417.47   430.66   432.01   434.42   444.09
eigval :      479.08   491.46   503.13   513.80   513.91   514.46
eigval :      529.79   530.03   531.93   539.83   548.14   559.76
eigval :      574.57   581.82   582.02   586.02   608.49   615.92
eigval :      618.67   637.37   652.04   653.98   663.74   666.10
eigval :      666.21   687.45   700.88   701.29   728.81   744.28
eigval :      748.76   749.78   752.10   753.51   758.73   761.66
eigval :      762.47   769.64   770.99   799.44   839.92   842.19
eigval :      847.07   851.17   858.61   860.59   862.68   864.33
eigval :      869.34   881.04   882.49   890.54   891.75   895.92
eigval :      896.25   896.43   896.84   899.17   900.55   902.84
eigval :      911.55   911.62   913.18   913.38   913.60   999.67
eigval :     1000.98  1008.22  1016.35  1026.17  1044.70  1055.93
eigval :     1064.42  1064.66  1065.44  1067.56  1089.10  1089.88
eigval :     1102.26  1119.33  1125.24  1138.63  1139.01  1159.78
eigval :     1165.00  1169.31  1172.56  1176.00  1176.26  1176.54
eigval :     1179.16  1203.10  1207.49  1219.66  1221.84  1221.95
eigval :     1227.08  1227.87  1248.68  1249.21  1271.48  1273.66
eigval :     1282.85  1283.14  1294.42  1300.62  1313.87  1317.35
eigval :     1337.67  1337.99  1359.62  1362.92  1365.18  1372.40
eigval :     1377.12  1385.48  1394.28  1403.21  1404.46  1413.86
eigval :     1429.34  1439.24  1443.31  1454.83  1458.90  1460.18
eigval :     1473.45  1478.96  1479.87  1499.66  1514.65  1529.69
eigval :     1534.60  1534.79  1554.19  1556.59  1568.24  1568.68
eigval :     1569.47  1570.10  1588.81  3078.53  3078.69  3079.13
eigval :     3079.24  3079.67  3079.93  3083.86  3083.94  3086.96
eigval :     3087.00  3089.38  3090.75  3091.61  3091.66  3093.97
eigval :     3094.28  3094.92  3095.80  3097.55  3098.53  3099.68
eigval :     3099.93  3102.07  3102.45  3104.15  3104.77  3123.88

   temp. (K)  partition function   enthalpy   heat capacity  entropy
                                   cal/mol     cal/K/mol   cal/K/mol   J/K/mol
 298.15  VIB  0.495E+15            19922.105    131.487    120.877
         ROT  0.306E+08              888.752      2.981     37.234
         INT  0.151E+23            20810.857    134.468    158.111
         TR   0.133E+29             1481.254      4.968     44.905
         TOT                       22292.1111   139.4359   203.0157   849.4176

       T/K    H(0)-H(T)+PV         H(T)/Eh          T*S/Eh         G(T)/Eh
   ------------------------------------------------------------------------
    298.15    0.355247E-01    0.579457E+00    0.964593E-01    0.482998E+00
   ------------------------------------------------------------------------

         :::::::::::::::::::::::::::::::::::::::::::::::::::::
         ::                  THERMODYNAMIC                  ::
         :::::::::::::::::::::::::::::::::::::::::::::::::::::
         :: total free energy        -111.991974629475 Eh   ::
         ::.................................................::
         :: total energy             -112.474972456760 Eh   ::
         :: zero point energy           0.543932389975 Eh   ::
         :: G(RRHO) w/o ZPVE           -0.060934562689 Eh   ::
         :: G(RRHO) contrib.            0.482997827285 Eh   ::
         :::::::::::::::::::::::::::::::::::::::::::::::::::::

           -------------------------------------------------
          | TOTAL ENERGY             -112.474972456760 Eh   |
          | TOTAL ENTHALPY           -111.895515326467 Eh   |
          | TOTAL FREE ENERGY        -111.991974629475 Eh   |
          | GRADIENT NORM               0.000080274598 Eh/α |
           -------------------------------------------------

 * finished run on 2025/09/09 at 06:09:16.364
