   * xtb version 6.7.1 (edcfbbe) compiled by 'albert@albert-system' on 2024-07-22

   ID    Z sym.   atoms
    1    6 C      1-12, 14-16, 18-31, 33-45
    2    7 N      13, 17, 32
    3    1 H      46-72

          program call               : xtb data2507/gas/TCP/TCP.xyz --gfn 2 --ohess vtight --parallel 40 --molden --ceasefiles --namespace data2507/gas/TCP/TCP_gas_S0_preOpt
          :  Hamiltonian                  GFN2-xTB          :
 * total energy  :  -112.5657816 Eh     change       -0.1537501E-08 Eh
 * total energy  :  -112.5810386 Eh     change       -0.1525704E-01 Eh
 * total energy  :  -112.5841979 Eh     change       -0.3159239E-02 Eh
 * total energy  :  -112.5847449 Eh     change       -0.5470732E-03 Eh
 * total energy  :  -112.5850685 Eh     change       -0.3235599E-03 Eh
 * total energy  :  -112.5851747 Eh     change       -0.1061774E-03 Eh
 * total energy  :  -112.5852408 Eh     change       -0.6611344E-04 Eh
 * total energy  :  -112.5852690 Eh     change       -0.2820336E-04 Eh
 * total energy  :  -112.5852405 Eh     change        0.2851262E-04 Eh
 * total energy  :  -112.5852764 Eh     change       -0.3591392E-04 Eh
 * total energy  :  -112.5854348 Eh     change       -0.6468541E-06 Eh
 * total energy  :  -112.5854353 Eh     change       -0.5435377E-06 Eh
 * total energy  :  -112.5854359 Eh     change       -0.5486155E-06 Eh
 * total energy  :  -112.5854365 Eh     change       -0.6197633E-06 Eh
 * total energy  :  -112.5854372 Eh     change       -0.7548479E-06 Eh
 * total energy  :  -112.5854382 Eh     change       -0.9322221E-06 Eh
 * total energy  :  -112.5854393 Eh     change       -0.1145753E-05 Eh
 * total energy  :  -112.5854407 Eh     change       -0.1371004E-05 Eh
 * total energy  :  -112.5854407 Eh     change       -0.5527099E-08 Eh
   *** GEOMETRY OPTIMIZATION CONVERGED AFTER 44 ITERATIONS ***

 final structure:
================
72
 xtb: 6.7.1 (edcfbbe)
C           -6.21969404954340        1.18085057470330        0.82597587169747
C           -5.29411159881201        0.30870590827638        1.39351201341149
C           -3.97158744160272        0.30153666833467        0.99365209736082
C           -3.58867920832086        1.18432006872678       -0.00478222436243
C           -4.51535310296657        2.09174384344365       -0.56604743318692
C           -5.83925809315561        2.08267782400908       -0.14763677932391
C           -3.78643284138419        2.88604082692026       -1.51507828937571
C           -4.15018539310093        3.91251793328475       -2.37646330113398
C           -3.18468174307846        4.46071676712658       -3.19669089970906
C           -1.87577673239756        3.98520576624193       -3.17703003395122
C           -1.49045557524172        2.96453426654083       -2.32867457868034
C           -2.44977066838758        2.42844880786752       -1.48204042411893
N           -2.34269800877514        1.39833240037593       -0.56456019133790
C           -1.17314183514404        0.69048970891870       -0.26862790430799
C           -1.17686800335917       -0.70056991345705       -0.26968513163619
C           -0.00277725421170       -1.39531109744145       -0.00000743524768
N           -0.00561789863812       -2.79593456938536       -0.00025310822703
C            0.85388274690839       -3.60701244398865       -0.71624096217786
C            1.85182392124422       -3.26144579896818       -1.61454992682363
C            2.55765452979478       -4.28167979728895       -2.22239748380895
C            2.27422429659343       -5.61913828457502       -1.95609732551198
C            1.26279963596208       -5.97039011040359       -1.08456485925694
C            0.54117205027315       -4.96137903502936       -0.46061531059254
C           -0.56084720977846       -4.95915700961814        0.46048152669249
C           -1.28638131768027       -5.96523285714235        1.08464812456427
C           -2.29626603261680       -5.60987470406117        1.95630325127122
C           -2.57436741252581       -4.27127479986776        2.22247862161468
C           -1.86462524209194       -3.25391732504723        1.61436656540561
C           -0.86818767109222       -3.60354148837342        0.71595503165941
C            1.17404870270594       -0.70526382422901        0.26981832642652
C            1.17580258380675        0.68580859194785        0.26893423756906
N            2.34817281987640        1.38902496873326        0.56475680927293
C            3.59324318502177        1.17013506230794        0.00482957940877
C            3.97256394198764        0.28590852526784       -0.99369697660149
C            5.29505390663673        0.28791989805754       -1.39373093844030
C            6.22412171763660        1.15639455688681       -0.82626218284569
C            5.84734838010818        2.05964867161892        0.14744960328973
C            4.52353515474244        2.07390714471301        0.56600443721324
C            3.79783420736519        2.87108078131663        1.51509117270920
C            4.16569422213923        3.89615629511537        2.37640148002080
C            3.20242006202535        4.44818992002654        3.19667846303334
C            1.89164350698538        3.97786002046160        3.17711834368445
C            1.50224611123710        2.95865995012073        2.32885585447561
C            2.45938247980605        2.41874271513442        1.48219177277377
C            0.00270275813401        1.38305004818785        0.00020118949733
H           -7.24520153350368        1.15456251228750        1.16278319993035
H           -5.61518646143917       -0.37464973009440        2.16568271377459
H           -3.25988606797057       -0.36353678879089        1.45707260390007
H           -6.55162739493947        2.77182383128176       -0.57526168517347
H           -5.16929624850835        4.26740652093805       -2.40330207365245
H           -3.44507506774763        5.26221008281182       -3.87169772843144
H           -1.14509129115851        4.42116897179895       -3.84213442458838
H           -0.47723589194100        2.59222052112568       -2.33911754427918
H           -2.07911750352976       -1.24030074437694       -0.51183001484605
H            2.06173212547444       -2.22859202177398       -1.84582241502247
H            3.34267354237716       -4.03657150279508       -2.92241977519343
H            2.84941589919321       -6.38848105627466       -2.44915152144391
H            1.03058181938902       -7.00690623130172       -0.89217467750213
H           -1.05825259222035       -7.00268443071945        0.89241429909712
H           -2.87441283815766       -6.37687555817320        2.44954802947524
H           -3.35828070886702       -4.02297166620207        2.92261377989313
H           -2.07038768961239       -2.22021673926753        1.84557897820766
H            2.07418296778431       -1.24857822787155        0.51182082622480
H            3.25819537242509       -0.37632222325756       -1.45708429415620
H            5.61335546634032       -0.39666069269398       -2.16596439797339
H            7.24949151264841        1.12605260445922       -1.16315025648408
H            6.56246505194279        2.74598390802750        0.57501253176245
H            5.18619986764829        4.24702034925055        2.40315654590969
H            3.46601875936956        5.24868633239860        3.87162437890255
H            1.16272311935435        4.41674754461473        3.84223659345586
H            0.48756296293167        2.59035641965134        2.33937946447725
H            0.00484723563186        2.46161855915489        0.00021619134351

          :  Hamiltonian                  GFN2-xTB          :
         :: gradient norm              0.000057566088 Eh/a0 ::
         :: HOMO-LUMO gap              3.057950106530 eV    ::
         :: SCC energy              -114.721932539003 Eh    ::
         :: -> dispersion             -0.103839334369 Eh    ::
         :: repulsion energy           2.136491848854 Eh    ::

    * Orbital Energies and Occupations

         #    Occupation            Energy/Eh            Energy/eV
      -------------------------------------------------------------
         1        2.0000           -0.6830573             -18.5869
       ...           ...                  ...                  ...
        93        2.0000           -0.4208266             -11.4513
        94        2.0000           -0.4190398             -11.4027
        95        2.0000           -0.4180189             -11.3749
        96        2.0000           -0.4170761             -11.3492
        97        2.0000           -0.4077353             -11.0950
        98        2.0000           -0.4077024             -11.0941
        99        2.0000           -0.4074050             -11.0861
       100        2.0000           -0.3810717             -10.3695
       101        2.0000           -0.3810676             -10.3694
       102        2.0000           -0.3807277             -10.3601
       103        2.0000           -0.3689939             -10.0408
       104        2.0000           -0.3670523              -9.9880
       105        2.0000           -0.3651916              -9.9374 (HOMO)
       106                         -0.2528140              -6.8794 (LUMO)
       107                         -0.2523528              -6.8669
       108                         -0.2471583              -6.7255
       109                         -0.2429883              -6.6120
       110                         -0.2429526              -6.6111
       111                         -0.2242966              -6.1034
       112                         -0.2242920              -6.1033
       113                         -0.2238997              -6.0926
       114                         -0.2010285              -5.4703
       115                         -0.1915722              -5.2129
       116                         -0.1903872              -5.1807
       ...                                ...                  ...
       207                          0.7450969              20.2751
      -------------------------------------------------------------
                  HL-Gap            0.1123776 Eh            3.0580 eV

     #   Z          covCN         q      C6AA      α(0)
     1   6 C        2.920    -0.040    28.994     8.830
     2   6 C        2.924    -0.033    28.815     8.803
     3   6 C        2.910    -0.050    29.241     8.867
     4   6 C        3.073     0.047    26.881     8.501
     5   6 C        3.068    -0.016    28.339     8.729
     6   6 C        2.913    -0.032    28.803     8.800
     7   6 C        3.068    -0.016    28.335     8.728
     8   6 C        2.913    -0.032    28.805     8.801
     9   6 C        2.920    -0.040    28.990     8.829
    10   6 C        2.924    -0.033    28.814     8.803
    11   6 C        2.910    -0.051    29.258     8.870
    12   6 C        3.073     0.046    26.883     8.501
    13   7 N        2.803    -0.043    22.076     6.978
    14   6 C        2.911     0.068    26.481     8.438
    15   6 C        2.924    -0.064    29.583     8.920
    16   6 C        2.911     0.068    26.480     8.438
    17   7 N        2.803    -0.044    22.094     6.981
    18   6 C        3.076     0.047    26.874     8.499
    19   6 C        2.910    -0.050    29.231     8.865
    20   6 C        2.924    -0.033    28.813     8.803
    21   6 C        2.920    -0.040    28.999     8.831
    22   6 C        2.913    -0.032    28.803     8.800
    23   6 C        3.068    -0.016    28.344     8.730
    24   6 C        3.068    -0.016    28.344     8.730
    25   6 C        2.913    -0.032    28.803     8.800
    26   6 C        2.920    -0.040    28.999     8.831
    27   6 C        2.924    -0.033    28.813     8.803
    28   6 C        2.910    -0.050    29.231     8.865
    29   6 C        3.076     0.047    26.874     8.499
    30   6 C        2.924    -0.064    29.583     8.920
    31   6 C        2.911     0.068    26.481     8.438
    32   7 N        2.803    -0.043    22.076     6.978
    33   6 C        3.073     0.047    26.881     8.501
    34   6 C        2.910    -0.050    29.241     8.867
    35   6 C        2.924    -0.033    28.815     8.803
    36   6 C        2.920    -0.040    28.994     8.830
    37   6 C        2.913    -0.032    28.803     8.800
    38   6 C        3.068    -0.016    28.339     8.729
    39   6 C        3.068    -0.016    28.335     8.728
    40   6 C        2.913    -0.032    28.805     8.801
    41   6 C        2.920    -0.040    28.990     8.829
    42   6 C        2.924    -0.033    28.814     8.803
    43   6 C        2.910    -0.051    29.258     8.870
    44   6 C        3.073     0.046    26.883     8.501
    45   6 C        2.926    -0.065    29.619     8.925
    46   1 H        0.926     0.029     2.594     2.518
    47   1 H        0.926     0.031     2.578     2.511
    48   1 H        0.926     0.025     2.652     2.547
    49   1 H        0.926     0.032     2.555     2.500
    50   1 H        0.926     0.032     2.552     2.498
    51   1 H        0.926     0.030     2.592     2.518
    52   1 H        0.926     0.031     2.579     2.511
    53   1 H        0.926     0.027     2.626     2.534
    54   1 H        0.926     0.053     2.282     2.362
    55   1 H        0.926     0.024     2.676     2.558
    56   1 H        0.926     0.030     2.582     2.513
    57   1 H        0.926     0.029     2.596     2.520
    58   1 H        0.926     0.032     2.556     2.500
    59   1 H        0.926     0.032     2.556     2.500
    60   1 H        0.926     0.029     2.596     2.520
    61   1 H        0.926     0.030     2.582     2.513
    62   1 H        0.926     0.024     2.676     2.558
    63   1 H        0.926     0.053     2.282     2.362
    64   1 H        0.926     0.025     2.652     2.547
    65   1 H        0.926     0.031     2.578     2.511
    66   1 H        0.926     0.029     2.594     2.518
    67   1 H        0.926     0.032     2.555     2.500
    68   1 H        0.926     0.032     2.552     2.498
    69   1 H        0.926     0.030     2.592     2.518
    70   1 H        0.926     0.031     2.579     2.511
    71   1 H        0.926     0.027     2.626     2.534
    72   1 H        0.926     0.054     2.268     2.355

molecular dipole:
                 x           y           z       tot (Debye)
 q only:        0.000       0.048       0.000
   full:        0.000       0.042       0.000       0.107

 projected vibrational frequencies (cm⁻¹)
eigval :       -0.00    -0.00    -0.00     0.00     0.00     0.00
eigval :       17.01    17.30    21.30    22.98    26.33    32.17
eigval :       54.25    68.93    73.04    96.18    99.46   106.34
eigval :      133.64   138.35   139.83   147.30   149.87   151.95
eigval :      205.69   213.14   233.75   252.62   259.89   270.98
eigval :      271.25   273.16   282.89   286.22   323.74   330.49
eigval :      369.22   371.66   392.26   395.27   396.66   420.58
eigval :      422.21   423.10   434.98   436.65   438.38   457.30
eigval :      512.25   512.35   518.98   520.46   520.82   530.02
eigval :      540.62   540.87   541.32   544.14   561.07   578.15
eigval :      588.16   588.51   594.97   620.94   621.12   640.20
eigval :      648.60   665.94   670.95   673.00   673.53   676.86
eigval :      707.66   708.06   708.86   749.76   750.57   757.04
eigval :      764.75   767.65   768.84   770.83   771.54   778.01
eigval :      779.70   781.25   843.11   860.76   861.66   866.96
eigval :      866.97   873.51   879.19   892.63   896.08   897.17
eigval :      897.44   898.85   899.64   900.05   900.88   903.89
eigval :      905.26   908.30   911.56   919.88   920.40   923.03
eigval :      923.40   924.22   926.79   993.19  1010.54  1011.69
eigval :     1012.80  1036.10  1036.54  1066.29  1068.04  1071.50
eigval :     1072.56  1074.44  1075.11  1117.91  1121.25  1123.30
eigval :     1147.45  1150.99  1153.46  1165.80  1166.03  1175.99
eigval :     1179.18  1179.32  1181.29  1181.71  1182.82  1205.76
eigval :     1225.24  1231.56  1232.06  1235.67  1235.88  1237.46
eigval :     1256.55  1295.26  1296.03  1300.76  1302.29  1303.00
eigval :     1303.02  1317.55  1335.08  1335.70  1358.17  1358.44
eigval :     1359.03  1362.24  1362.83  1363.44  1398.26  1417.57
eigval :     1418.26  1427.09  1427.18  1428.13  1457.10  1458.91
eigval :     1465.63  1475.95  1478.41  1478.75  1488.14  1488.25
eigval :     1488.58  1565.55  1566.37  1575.25  1576.74  1576.76
eigval :     1589.81  1590.00  1591.20  1599.91  1600.37  1601.12
eigval :     1614.99  1615.19  1617.04  3077.97  3078.02  3078.09
eigval :     3078.34  3079.05  3079.12  3083.07  3083.14  3083.45
eigval :     3084.57  3085.36  3085.52  3090.37  3090.39  3091.11
eigval :     3092.42  3094.28  3094.58  3097.12  3097.63  3097.64
eigval :     3098.72  3100.27  3100.29  3106.72  3107.19  3110.33

   temp. (K)  partition function   enthalpy   heat capacity  entropy
                                   cal/mol     cal/K/mol   cal/K/mol   J/K/mol
 298.15  VIB  0.188E+15            19371.912    127.709    117.455
         ROT  0.306E+08              888.752      2.981     37.232
         INT  0.573E+22            20260.665    130.690    154.687
         TR   0.133E+29             1481.254      4.968     44.905
         TOT                       21741.9187   135.6584   199.5919   835.0926

       T/K    H(0)-H(T)+PV         H(T)/Eh          T*S/Eh         G(T)/Eh
   ------------------------------------------------------------------------
    298.15    0.346480E-01    0.587782E+00    0.948326E-01    0.492950E+00
   ------------------------------------------------------------------------

         :::::::::::::::::::::::::::::::::::::::::::::::::::::
         ::                  THERMODYNAMIC                  ::
         :::::::::::::::::::::::::::::::::::::::::::::::::::::
         :: total free energy        -112.092491004130 Eh   ::
         ::.................................................::
         :: total energy             -112.585440690164 Eh   ::
         :: zero point energy           0.553134296651 Eh   ::
         :: G(RRHO) w/o ZPVE           -0.060184610617 Eh   ::
         :: G(RRHO) contrib.            0.492949686034 Eh   ::
         :::::::::::::::::::::::::::::::::::::::::::::::::::::

           -------------------------------------------------
          | TOTAL ENERGY             -112.585440690164 Eh   |
          | TOTAL ENTHALPY           -111.997658440633 Eh   |
          | TOTAL FREE ENERGY        -112.092491004130 Eh   |
          | GRADIENT NORM               0.000057567806 Eh/α |
          | HOMO-LUMO GAP               3.057950129006 eV   |
           -------------------------------------------------

 * finished run on 2025/09/09 at 06:00:06.013
