   * xtb version 6.7.1 (edcfbbe) compiled by 'albert@albert-system' on 2024-07-22

   ID    Z sym.   atoms
    1    6 C      1-12, 14-16, 18-31, 33-45
    2    7 N      13, 17, 32
    3    1 H      46-72

          program call               : xtb data2507/gas/TCP/TCP_gas_S0_finalOpt.xtbopt.xyz --gfn 2 --spinpol --tblite --uhf 2 --ohess vtight --parallel 40 --molden --ceasefiles --namespace data2507/gas/TCP/TCP_gas_T1_preOpt
 * total energy  :  -112.4735429 Eh     change       -0.3812673E-08 Eh
 * total energy  :  -112.4744560 Eh     change       -0.9130746E-03 Eh
 * total energy  :  -112.4746494 Eh     change       -0.1933657E-03 Eh
 * total energy  :  -112.4747014 Eh     change       -0.5200571E-04 Eh
 * total energy  :  -112.4747853 Eh     change       -0.8395396E-04 Eh
 * total energy  :  -112.4748236 Eh     change       -0.3826423E-04 Eh
 * total energy  :  -112.4748699 Eh     change       -0.4634611E-04 Eh
 * total energy  :  -112.4748780 Eh     change       -0.8041043E-05 Eh
 * total energy  :  -112.4748847 Eh     change       -0.6750803E-05 Eh
 * total energy  :  -112.4748883 Eh     change       -0.3618444E-05 Eh
 * total energy  :  -112.4749554 Eh     change       -0.9280323E-06 Eh
 * total energy  :  -112.4749562 Eh     change       -0.8761388E-06 Eh
 * total energy  :  -112.4749571 Eh     change       -0.8591138E-06 Eh
 * total energy  :  -112.4749579 Eh     change       -0.8186255E-06 Eh
 * total energy  :  -112.4749587 Eh     change       -0.8188725E-06 Eh
 * total energy  :  -112.4749596 Eh     change       -0.8175780E-06 Eh
 * total energy  :  -112.4749603 Eh     change       -0.7714321E-06 Eh
 * total energy  :  -112.4749602 Eh     change        0.9569064E-07 Eh
 * total energy  :  -112.4749603 Eh     change       -0.9002741E-07 Eh
   *** GEOMETRY OPTIMIZATION CONVERGED AFTER 45 ITERATIONS ***

 final structure:
================
72
 xtb: 6.7.1 (edcfbbe)
C           -2.12285138142555       -5.68232772570136       -1.94964075114724
C           -2.43280713196388       -4.35294225319591       -2.23720522481547
C           -1.74865010331103       -3.31241863071043       -1.62301553391640
C           -0.75520460498718       -3.62967078533990       -0.71428419373035
C           -0.40231233483708       -4.98378136715605       -0.44755728882818
C           -1.11085504634510       -6.01085863374337       -1.06671118726352
C            0.69859387494981       -4.94964722090753        0.45825456174610
C            1.46797400316805       -5.93081786375724        1.07924516224046
C            2.45810665031559       -5.54002032550865        1.96160388815165
C            2.68694601246273       -4.19379535112285        2.24682781561020
C            1.94110955226009       -3.19772174800285        1.63076217036054
C            0.96889211502281       -3.57619499988366        0.72250302773642
N            0.08239066253571       -2.79256616839027        0.00330232487606
C            0.04118339289950       -1.40783322704266        0.00161189298478
C           -1.18934281990302       -0.73299247967804        0.15675505411990
C           -1.22341399759332        0.64392524495926        0.18053812639632
N           -2.42650620479066        1.32308920214050        0.39112520882910
C           -3.61982961511159        1.09700020338147       -0.26721705765096
C           -3.89942447388633        0.23739049048176       -1.31683135024061
C           -5.18955873877312        0.22399136062326       -1.82115154792506
C           -6.17799634097766        1.05337465572694       -1.29622716467576
C           -5.89993555386018        1.93529256255143       -0.26858777402706
C           -4.61074515062457        1.96911853040380        0.25016162784678
C           -3.97495551392243        2.75172968412733        1.26846532192685
C           -4.41926054899206        3.74852019881663        2.12892836699854
C           -3.52511609395104        4.28823506040703        3.03508725819133
C           -2.20755177976947        3.84139051586072        3.10108004253963
C           -1.74086898351057        2.84974379763846        2.25320015105712
C           -2.62512585539681        2.32160832806267        1.32570449567025
C           -0.04131750926651        1.39493113972797       -0.00177783718294
C            1.18261069538520        0.71466859112143       -0.18245980078854
N            2.34372089805933        1.46312941303665       -0.39485728137214
C            3.54783556746281        1.31027756018748        0.26482070272637
C            3.87711421201498        0.47211983736933        1.31739064757526
C            5.16542267492171        0.53678017443514        1.82231181457908
C            6.10336086001780        1.42155122340819        1.29521661754225
C            5.77428386294081        2.28202146863725        0.26447822643895
C            4.48575914982035        2.23764547607371       -0.25505980048428
C            3.80551344331721        2.97765967906499       -1.27657042995082
C            4.19073371985074        3.99582994281993       -2.14043881260666
C            3.26684542638573        4.47854073694087       -3.04890137331791
C            1.97803083633149        3.95441481075639       -3.11378235177301
C            1.57019899274738        2.93998529321620       -2.26257565927682
C            2.48358855115200        2.46829503098343       -1.33287209281197
C            1.23009934796200       -0.66175392626662       -0.15546567827999
H           -2.67886187644274       -6.46823889668286       -2.43937429155915
H           -3.21044140921123       -4.12849959765163       -2.95059168393718
H           -1.97546587967001       -2.28703048168214       -1.86870695173727
H           -0.86619979674309       -7.04198205827385       -0.86258565931535
H            1.28627746187351       -6.97523079120854        0.87694266099707
H            3.06062557037025       -6.28994147275230        2.45275790403599
H            3.44942309309060       -3.92140330915825        2.95987731473069
H            2.10523759254167       -2.16003300447332        1.87468992742174
H           -2.08779602268675       -1.30324291885808        0.33388037295241
H           -3.13444471964612       -0.39349081441386       -1.74148034701822
H           -5.43134489247691       -0.44003439251250       -2.63715646431505
H           -7.17477444874573        1.01127896858357       -1.70955160222042
H           -6.66370459753808        2.58977503250763        0.12284226523100
H           -5.44306709585210        4.08797093297287        2.09017029459125
H           -3.85280563646151        5.06316231127680        3.71209649062815
H           -1.53756506550177        4.27057457137084        3.83062412585949
H           -0.72469531880156        2.49306071750752        2.32636267106067
H           -0.07318834613600        2.47095746477817       -0.00343380540433
H            3.15053924875252       -0.20160970873273        1.74366118305895
H            5.44558386435837       -0.10915837025809        2.64056180168301
H            7.10057799508137        1.43994115670153        1.70921027994207
H            6.49821786593614        2.97929094092144       -0.12876585592084
H            5.19268787244000        4.39527273612832       -2.10248860927151
H            3.54859430648494        5.26904732511364       -3.72856643490647
H            1.28430081406441        4.34071214295049       -3.84510544073055
H            0.57688335990835        2.52368911200302       -2.33473333205440
H            2.16059189294030       -1.17841649377837       -0.33150833319552

 projected vibrational frequencies (cm⁻¹)
eigval :       -0.00    -0.00    -0.00    -0.00     0.00     0.00
eigval :       10.37    17.42    21.70    23.79    25.70    32.75
eigval :       53.42    61.24    73.86    95.37    97.17   105.47
eigval :      130.52   133.89   134.87   144.26   145.26   147.32
eigval :      200.21   203.87   208.92   243.82   250.84   259.89
eigval :      263.78   266.33   281.68   286.26   319.83   329.19
eigval :      368.98   369.78   373.43   385.63   386.21   406.92
eigval :      416.82   417.26   430.74   432.08   434.25   444.01
eigval :      478.04   491.40   503.48   513.70   513.93   514.43
eigval :      529.32   529.55   531.53   539.81   544.31   559.40
eigval :      573.78   580.25   581.60   585.55   608.55   615.48
eigval :      618.66   637.28   650.01   654.09   663.63   665.78
eigval :      665.92   687.86   700.60   700.89   729.79   745.95
eigval :      748.88   749.33   752.31   753.87   758.46   761.24
eigval :      762.08   769.00   770.75   799.24   839.95   842.55
eigval :      846.72   849.97   858.54   860.34   862.03   863.82
eigval :      868.61   880.48   881.83   890.41   891.70   895.34
eigval :      896.12   896.20   896.35   898.66   900.59   902.81
eigval :      910.96   911.10   912.28   912.90   912.99  1000.17
eigval :     1000.29  1008.25  1015.64  1025.80  1044.17  1056.20
eigval :     1064.11  1064.89  1065.50  1067.53  1086.63  1092.53
eigval :     1102.20  1118.73  1124.42  1138.25  1138.56  1159.93
eigval :     1164.88  1167.66  1171.48  1175.63  1175.78  1176.21
eigval :     1177.82  1203.59  1206.72  1219.26  1220.73  1221.70
eigval :     1226.75  1227.48  1248.59  1249.15  1270.20  1272.78
eigval :     1281.93  1282.24  1294.67  1300.21  1313.31  1317.00
eigval :     1336.41  1336.85  1359.77  1362.88  1365.27  1372.37
eigval :     1377.29  1385.41  1391.00  1402.06  1403.34  1413.20
eigval :     1428.76  1438.82  1443.03  1453.12  1458.28  1459.11
eigval :     1473.15  1478.43  1479.28  1499.93  1513.43  1528.14
eigval :     1532.96  1533.43  1554.14  1556.44  1567.54  1568.04
eigval :     1568.73  1569.32  1588.52  3078.24  3078.80  3078.87
eigval :     3079.01  3079.44  3079.74  3083.69  3083.78  3086.84
eigval :     3086.91  3088.84  3090.08  3091.42  3091.47  3093.27
eigval :     3094.20  3094.49  3095.34  3096.36  3097.79  3098.84
eigval :     3098.93  3101.43  3101.88  3103.53  3104.34  3123.64

   temp. (K)  partition function   enthalpy   heat capacity  entropy
                                   cal/mol     cal/K/mol   cal/K/mol   J/K/mol
 298.15  VIB  0.623E+15            19938.087    131.530    121.140
         ROT  0.306E+08              888.752      2.981     37.234
         INT  0.190E+23            20826.839    134.511    158.374
         TR   0.133E+29             1481.254      4.968     44.905
         TOT                       22308.0934   139.4791   203.2788   850.5185

       T/K    H(0)-H(T)+PV         H(T)/Eh          T*S/Eh         G(T)/Eh
   ------------------------------------------------------------------------
    298.15    0.355502E-01    0.579297E+00    0.965843E-01    0.482713E+00
   ------------------------------------------------------------------------

         :::::::::::::::::::::::::::::::::::::::::::::::::::::
         ::                  THERMODYNAMIC                  ::
         :::::::::::::::::::::::::::::::::::::::::::::::::::::
         :: total free energy        -111.992247645424 Eh   ::
         ::.................................................::
         :: total energy             -112.474960341180 Eh   ::
         :: zero point energy           0.543746802330 Eh   ::
         :: G(RRHO) w/o ZPVE           -0.061034106574 Eh   ::
         :: G(RRHO) contrib.            0.482712695756 Eh   ::
         :::::::::::::::::::::::::::::::::::::::::::::::::::::

           -------------------------------------------------
          | TOTAL ENERGY             -112.474960341180 Eh   |
          | TOTAL ENTHALPY           -111.895663329119 Eh   |
          | TOTAL FREE ENERGY        -111.992247645424 Eh   |
          | GRADIENT NORM               0.000072630893 Eh/α |
           -------------------------------------------------

 * finished run on 2025/09/09 at 06:03:17.333
