   * xtb version 6.7.1 (edcfbbe) compiled by 'albert@albert-system' on 2024-07-22

   ID    Z sym.   atoms
    1    6 C      1-12, 14-16, 18-31, 33-45
    2    7 N      13, 17, 32
    3    1 H      46-72

          program call               : xtb data2507/gas/TCP/TCP_gas_S0_crest.xyz --gfn 2 --ohess vtight --parallel 40 --molden --ceasefiles --namespace data2507/gas/TCP/TCP_gas_S0_finalOpt
          :  Hamiltonian                  GFN2-xTB          :
 * total energy  :  -112.5854529 Eh     change       -0.1360121E-08 Eh
 * total energy  :  -112.5854533 Eh     change       -0.4492451E-06 Eh
 * total energy  :  -112.5854538 Eh     change       -0.4532959E-06 Eh
 * total energy  :  -112.5854544 Eh     change       -0.6249406E-06 Eh
 * total energy  :  -112.5854549 Eh     change       -0.4245190E-06 Eh
 * total energy  :  -112.5854551 Eh     change       -0.2420190E-06 Eh
 * total energy  :  -112.5854553 Eh     change       -0.2393234E-06 Eh
 * total energy  :  -112.5854556 Eh     change       -0.2458927E-06 Eh
 * total energy  :  -112.5854557 Eh     change       -0.1239132E-06 Eh
 * total energy  :  -112.5854558 Eh     change       -0.5395856E-07 Eh
   *** GEOMETRY OPTIMIZATION CONVERGED AFTER 10 ITERATIONS ***

 final structure:
================
72
 xtb: 6.7.1 (edcfbbe)
C           -2.02239934358294       -5.67851397370196       -2.05486478482403
C           -2.33079951874237       -4.34959748803778       -2.33543754017722
C           -1.68341568371561       -3.30981337120226       -1.69637794311214
C           -0.71913941908883       -3.62665028431658       -0.75184098351239
C           -0.38010891439916       -4.97171579451806       -0.48142978898020
C           -1.04278928679172       -6.00083148234554       -1.13706978261574
C            0.67783417705082       -4.93912944318541        0.48938232808124
C            1.40228045731666       -5.92553989570367        1.14532589049828
C            2.36102882256359       -5.54354729444827        2.06225012442211
C            2.58819298859513       -4.19811975359372        2.34165768063058
C            1.87827371420746       -3.20011791547112        1.70238996186162
C            0.93442506078977       -3.57571926613438        0.75875122053418
N            0.08281963786284       -2.79179466395296        0.00333735597002
C            0.04071347547548       -1.39232314450968        0.00188673319178
C           -1.16987744723387       -0.73480450642189        0.19387884056328
C           -1.21018105294415        0.65549215489221        0.19149898987928
N           -2.41793705089594        1.32569497673744        0.41393457884600
C           -3.61574165882314        1.08564613265682       -0.23265359513867
C           -3.90263358251198        0.20863725368966       -1.26762565327748
C           -5.19400068419047        0.18539513762012       -1.75832333593185
C           -6.18137649642507        1.02200693044584       -1.24376684499148
C           -5.89583546222096        1.91757754658926       -0.23260228164475
C           -4.60485780366055        1.95698244837085        0.27703505966195
C           -3.96600730952967        2.75508894275789        1.28597952388307
C           -4.41692641882865        3.75490302800058        2.13752033438710
C           -3.52533880179145        4.31492470720956        3.03028457475586
C           -2.20412078192308        3.87834239025808        3.09095514067743
C           -1.73245486458143        2.88512145819545        2.25378407093297
C           -2.61715691100443        2.33661418898373        1.33689312572758
C           -0.04289249012644        1.38614292042796       -0.00284797049708
C            1.16629829894646        0.72632177058033       -0.19379428007774
N            2.33238649025525        1.46663374634360       -0.41657505714157
C            3.54038382524745        1.30027058338948        0.23406635622500
C            3.87436918107963        0.44811129280150        1.27564503867892
C            5.16353179002953        0.50262351275967        1.76959093757632
C            6.10242095876348        1.39140838264804        1.25171173039591
C            5.76854136200286        2.26241513839290        0.23391084342356
C            4.47884885172622        2.22398168240789       -0.27907910901844
C            3.79747280857275        2.97739309902786       -1.29456173736238
C            4.19206718193443        3.99591510525480       -2.15186394677101
C            3.27172117750593        4.49797331439845       -3.04991415393216
C            1.97775780722030        3.98612163673017       -3.10982877563457
C            1.56208609845601        2.97282089442896       -2.26705384081771
C            2.47505264015450        2.48158509455047       -1.34543871980244
C            1.20969192847845       -0.66384252668172       -0.19159602356963
H           -2.55210550610007       -6.46380208559250       -2.57308027259666
H           -3.08898537331883       -4.12652042599064       -3.07146343287277
H           -1.91230510576152       -2.28369234635916       -1.93880448146617
H           -0.79005207521519       -7.03027640586408       -0.93298575468299
H            1.21259066565266       -6.96860229795380        0.94204492565887
H            2.93791208792634       -6.29476797123284        2.58060260912258
H            3.33202073880412       -3.92876780488038        3.07685265875199
H            2.04470774529309       -2.16181176193035        1.94379772310475
H           -2.06899262784549       -1.30206242152833        0.37790947801558
H           -3.14074623758538       -0.42805218413117       -1.68953675818886
H           -5.44121438098468       -0.49361326353949       -2.56091667316690
H           -7.17985529963062        0.97299007381520       -1.65175370945786
H           -6.65598242397225        2.57918114746900        0.15434955725173
H           -5.44557991509805        4.08021110144546        2.10136849670059
H           -3.85439824576980        5.09561668250466        3.69967614003611
H           -1.53306430646501        4.32314245334133        3.81079097007505
H           -0.71116827568532        2.54244039101133        2.32455574799004
H           -0.07532839176164        2.46433946214639       -0.00521328033583
H            3.14903882790516       -0.22844132805189        1.70000229842415
H            5.44724680722031       -0.15556720478518        2.57743675233982
H            7.10091666126138        1.40275235428666        1.66243380655004
H            6.49035609893035        2.96423088030028       -0.15558769116983
H            5.20026686475870        4.37998840892307       -2.11600229707563
H            3.55693310507602        5.29177544210330       -3.72399227613149
H            1.28377888949909        4.38723056152040       -3.83359509113016
H            0.56218056819378        2.57185383260357       -2.33700867089329
H            2.14149191874986       -1.17652124265535       -0.37319220742616

          :  Hamiltonian                  GFN2-xTB          :
         :: gradient norm              0.000036645717 Eh/a0 ::
         :: HOMO-LUMO gap              3.062026722257 eV    ::
         :: SCC energy              -114.722009169222 Eh    ::
         :: -> dispersion             -0.103813701543 Eh    ::
         :: repulsion energy           2.136553413044 Eh    ::

    * Orbital Energies and Occupations

         #    Occupation            Energy/Eh            Energy/eV
      -------------------------------------------------------------
         1        2.0000           -0.6831919             -18.5906
       ...           ...                  ...                  ...
        93        2.0000           -0.4207566             -11.4494
        94        2.0000           -0.4190790             -11.4037
        95        2.0000           -0.4180029             -11.3744
        96        2.0000           -0.4172322             -11.3535
        97        2.0000           -0.4076536             -11.0928
        98        2.0000           -0.4076306             -11.0922
        99        2.0000           -0.4075737             -11.0906
       100        2.0000           -0.3809894             -10.3672
       101        2.0000           -0.3809647             -10.3666
       102        2.0000           -0.3809240             -10.3655
       103        2.0000           -0.3690047             -10.0411
       104        2.0000           -0.3670267              -9.9873
       105        2.0000           -0.3652528              -9.9390 (HOMO)
       106                         -0.2527254              -6.8770 (LUMO)
       107                         -0.2525293              -6.8717
       108                         -0.2471675              -6.7258
       109                         -0.2430622              -6.6141
       110                         -0.2430510              -6.6138
       111                         -0.2241996              -6.1008
       112                         -0.2241721              -6.1000
       113                         -0.2240956              -6.0980
       114                         -0.2009941              -5.4693
       115                         -0.1917485              -5.2177
       116                         -0.1903731              -5.1803
       ...                                ...                  ...
       207                          0.7450162              20.2729
      -------------------------------------------------------------
                  HL-Gap            0.1125274 Eh            3.0620 eV

     #   Z          covCN         q      C6AA      α(0)
     1   6 C        2.920    -0.040    28.997     8.830
     2   6 C        2.924    -0.033    28.813     8.803
     3   6 C        2.910    -0.050    29.232     8.866
     4   6 C        3.075     0.047    26.876     8.500
     5   6 C        3.068    -0.016    28.341     8.729
     6   6 C        2.913    -0.032    28.803     8.800
     7   6 C        3.068    -0.016    28.341     8.729
     8   6 C        2.913    -0.032    28.803     8.800
     9   6 C        2.920    -0.040    28.997     8.830
    10   6 C        2.924    -0.033    28.813     8.803
    11   6 C        2.910    -0.050    29.232     8.866
    12   6 C        3.075     0.047    26.876     8.500
    13   7 N        2.803    -0.044    22.086     6.980
    14   6 C        2.911     0.068    26.479     8.438
    15   6 C        2.924    -0.064    29.580     8.919
    16   6 C        2.911     0.068    26.480     8.438
    17   7 N        2.803    -0.044    22.081     6.979
    18   6 C        3.073     0.047    26.880     8.501
    19   6 C        2.910    -0.050    29.239     8.867
    20   6 C        2.924    -0.033    28.815     8.803
    21   6 C        2.920    -0.040    28.995     8.830
    22   6 C        2.913    -0.032    28.803     8.800
    23   6 C        3.068    -0.016    28.341     8.729
    24   6 C        3.068    -0.016    28.336     8.729
    25   6 C        2.913    -0.032    28.805     8.801
    26   6 C        2.920    -0.040    28.992     8.830
    27   6 C        2.924    -0.033    28.814     8.803
    28   6 C        2.910    -0.051    29.258     8.869
    29   6 C        3.074     0.046    26.882     8.501
    30   6 C        2.926    -0.065    29.608     8.923
    31   6 C        2.911     0.068    26.480     8.438
    32   7 N        2.803    -0.044    22.082     6.979
    33   6 C        3.073     0.047    26.879     8.501
    34   6 C        2.910    -0.050    29.238     8.867
    35   6 C        2.924    -0.033    28.815     8.803
    36   6 C        2.920    -0.040    28.996     8.830
    37   6 C        2.913    -0.032    28.803     8.800
    38   6 C        3.068    -0.016    28.341     8.729
    39   6 C        3.068    -0.016    28.337     8.729
    40   6 C        2.913    -0.032    28.805     8.801
    41   6 C        2.920    -0.040    28.992     8.830
    42   6 C        2.924    -0.033    28.814     8.803
    43   6 C        2.910    -0.051    29.258     8.869
    44   6 C        3.074     0.047    26.881     8.501
    45   6 C        2.925    -0.063    29.580     8.919
    46   1 H        0.926     0.029     2.595     2.519
    47   1 H        0.926     0.030     2.581     2.512
    48   1 H        0.926     0.024     2.670     2.555
    49   1 H        0.926     0.032     2.555     2.500
    50   1 H        0.926     0.032     2.555     2.500
    51   1 H        0.926     0.029     2.595     2.519
    52   1 H        0.926     0.030     2.581     2.512
    53   1 H        0.926     0.024     2.669     2.555
    54   1 H        0.926     0.053     2.281     2.362
    55   1 H        0.926     0.025     2.660     2.551
    56   1 H        0.926     0.030     2.579     2.512
    57   1 H        0.926     0.029     2.594     2.519
    58   1 H        0.926     0.032     2.555     2.500
    59   1 H        0.926     0.032     2.553     2.499
    60   1 H        0.926     0.030     2.592     2.518
    61   1 H        0.926     0.031     2.579     2.511
    62   1 H        0.926     0.027     2.630     2.536
    63   1 H        0.926     0.054     2.270     2.356
    64   1 H        0.926     0.025     2.661     2.551
    65   1 H        0.926     0.030     2.580     2.512
    66   1 H        0.926     0.029     2.595     2.519
    67   1 H        0.926     0.032     2.555     2.500
    68   1 H        0.926     0.032     2.553     2.499
    69   1 H        0.926     0.030     2.593     2.518
    70   1 H        0.926     0.030     2.579     2.511
    71   1 H        0.926     0.027     2.630     2.536
    72   1 H        0.926     0.053     2.281     2.362

molecular dipole:
                 x           y           z       tot (Debye)
 q only:       -0.002       0.024       0.000
   full:       -0.002       0.018       0.000       0.046

 projected vibrational frequencies (cm⁻¹)
eigval :       -0.00    -0.00     0.00     0.00     0.00     0.00
eigval :       16.58    17.02    21.27    22.99    25.94    32.63
eigval :       53.62    68.54    72.72    96.27    99.32   106.06
eigval :      133.66   138.12   139.98   146.97   150.08   151.84
eigval :      205.81   212.78   233.55   252.63   258.77   270.99
eigval :      271.29   272.55   282.98   285.45   323.77   330.50
eigval :      369.57   371.24   392.13   395.20   396.60   420.47
eigval :      422.18   423.09   435.02   436.34   438.21   457.68
eigval :      511.80   512.43   519.01   520.46   520.73   530.00
eigval :      540.56   540.93   541.29   543.43   561.98   577.45
eigval :      588.15   588.50   594.76   620.92   621.23   640.84
eigval :      648.46   666.00   670.93   673.02   673.43   676.67
eigval :      707.71   707.97   708.81   749.78   750.59   757.05
eigval :      764.62   767.60   768.85   770.88   771.57   777.82
eigval :      779.72   781.23   842.96   860.57   861.49   866.95
eigval :      867.05   873.26   879.02   892.65   895.86   897.15
eigval :      897.53   899.07   899.53   899.97   900.86   903.77
eigval :      905.20   908.44   910.84   919.85   920.35   922.93
eigval :      923.40   924.26   926.07   993.19  1010.69  1011.70
eigval :     1012.80  1035.97  1036.67  1066.38  1067.87  1071.29
eigval :     1072.51  1074.12  1074.89  1117.87  1120.60  1123.30
eigval :     1147.49  1150.75  1153.38  1165.78  1166.11  1176.05
eigval :     1179.04  1179.28  1181.27  1181.75  1182.65  1205.70
eigval :     1225.17  1231.61  1231.96  1235.61  1235.78  1237.29
eigval :     1256.61  1295.47  1295.85  1301.20  1302.14  1302.93
eigval :     1303.07  1317.36  1335.47  1335.57  1358.15  1358.41
eigval :     1359.05  1362.32  1362.87  1363.40  1398.25  1417.60
eigval :     1418.23  1427.05  1427.32  1428.14  1457.14  1459.05
eigval :     1465.74  1476.03  1478.52  1478.71  1488.13  1488.27
eigval :     1488.54  1565.71  1566.28  1575.25  1576.64  1576.78
eigval :     1589.94  1590.07  1591.18  1599.97  1600.45  1601.08
eigval :     1615.06  1615.20  1617.02  3077.84  3077.88  3078.25
eigval :     3078.47  3078.91  3079.07  3082.84  3082.89  3083.77
eigval :     3084.71  3085.07  3085.52  3090.06  3090.12  3091.79
eigval :     3092.82  3093.71  3094.34  3097.14  3097.38  3097.91
eigval :     3098.97  3099.54  3099.77  3106.44  3106.90  3109.09

   temp. (K)  partition function   enthalpy   heat capacity  entropy
                                   cal/mol     cal/K/mol   cal/K/mol   J/K/mol
 298.15  VIB  0.201E+15            19378.830    127.707    117.548
         ROT  0.306E+08              888.752      2.981     37.232
         INT  0.616E+22            20267.583    130.687    154.780
         TR   0.133E+29             1481.254      4.968     44.905
         TOT                       21748.8367   135.6556   199.6851   835.4824

       T/K    H(0)-H(T)+PV         H(T)/Eh          T*S/Eh         G(T)/Eh
   ------------------------------------------------------------------------
    298.15    0.346590E-01    0.587761E+00    0.948768E-01    0.492884E+00
   ------------------------------------------------------------------------

         :::::::::::::::::::::::::::::::::::::::::::::::::::::
         ::                  THERMODYNAMIC                  ::
         :::::::::::::::::::::::::::::::::::::::::::::::::::::
         :: total free energy        -112.092572019694 Eh   ::
         ::.................................................::
         :: total energy             -112.585455756181 Eh   ::
         :: zero point energy           0.553101586760 Eh   ::
         :: G(RRHO) w/o ZPVE           -0.060217850273 Eh   ::
         :: G(RRHO) contrib.            0.492883736487 Eh   ::
         :::::::::::::::::::::::::::::::::::::::::::::::::::::

           -------------------------------------------------
          | TOTAL ENERGY             -112.585455756181 Eh   |
          | TOTAL ENTHALPY           -111.997695192033 Eh   |
          | TOTAL FREE ENERGY        -112.092572019694 Eh   |
          | GRADIENT NORM               0.000036658870 Eh/α |
          | HOMO-LUMO GAP               3.062026952213 eV   |
           -------------------------------------------------

 * finished run on 2025/09/09 at 06:03:05.646
