   * xtb version 6.7.1 (edcfbbe) compiled by 'albert@albert-system' on 2024-07-22

   ID    Z sym.   atoms
    1    7 N      1, 19
    2    6 C      2-18, 20-41
    3    1 H      42-65

          program call               : xtb data2507/gas/pCzAnBzt/pCzAnBzt_gas_S0_crest.xyz --gfn 2 --ohess vtight --parallel 40 --molden --ceasefiles --namespace data2507/gas/pCzAnBzt/pCzAnBzt_gas_S0_finalOpt
          :  Hamiltonian                  GFN2-xTB          :
 * total energy  :  -101.5925898 Eh     change       -0.1353627E-08 Eh
 * total energy  :  -101.5925926 Eh     change       -0.2786342E-05 Eh
 * total energy  :  -101.5925943 Eh     change       -0.1706067E-05 Eh
 * total energy  :  -101.5925959 Eh     change       -0.1600367E-05 Eh
 * total energy  :  -101.5925979 Eh     change       -0.2013429E-05 Eh
 * total energy  :  -101.5926005 Eh     change       -0.2608532E-05 Eh
 * total energy  :  -101.5926030 Eh     change       -0.2485899E-05 Eh
 * total energy  :  -101.5926045 Eh     change       -0.1488795E-05 Eh
 * total energy  :  -101.5926058 Eh     change       -0.1282462E-05 Eh
 * total energy  :  -101.5926071 Eh     change       -0.1319052E-05 Eh
 * total energy  :  -101.5926092 Eh     change       -0.3499175E-06 Eh
 * total energy  :  -101.5926096 Eh     change       -0.3792664E-06 Eh
 * total energy  :  -101.5926100 Eh     change       -0.4121002E-06 Eh
 * total energy  :  -101.5926104 Eh     change       -0.3889579E-06 Eh
 * total energy  :  -101.5926108 Eh     change       -0.4264723E-06 Eh
 * total energy  :  -101.5926114 Eh     change       -0.5726266E-06 Eh
 * total energy  :  -101.5926120 Eh     change       -0.5693529E-06 Eh
 * total energy  :  -101.5926124 Eh     change       -0.4105526E-06 Eh
 * total energy  :  -101.5926124 Eh     change       -0.6186099E-08 Eh
   *** GEOMETRY OPTIMIZATION CONVERGED AFTER 22 ITERATIONS ***

 final structure:
================
65
 xtb: 6.7.1 (edcfbbe)
N          -10.64246705022371       -0.00203813487137        0.03576369987868
C           -9.49586901343318       -0.00121933492711        0.02773377986903
C           -8.08272983703601       -0.00035202708027        0.01790989161667
C           -7.37677173112084        0.28505233525663        1.18760660927974
C           -5.99716454848907        0.28586193811598        1.17134790549813
C           -5.29983423225442       -0.00042966397993       -0.00103199237267
C           -3.82273087119991       -0.00234274332553       -0.00955291155536
C           -3.12413718002332        1.20325281358725        0.14761205677484
C           -3.79620302435764        2.44714043320016        0.27949090677698
C           -3.10671648690018        3.60679191879865        0.45643988131378
C           -1.69907177069496        3.59468283494364        0.51737234249880
C           -1.01611253296281        2.42707512915052        0.37044197561717
C           -1.69460238545472        1.19789798186744        0.15896815010431
C           -1.00042666811332       -0.00750404832532       -0.01851179113249
C            0.47695603632218       -0.01033624088503       -0.01857385542576
C            1.18692361179998        0.58300682914706       -1.05854966549764
C            2.56772033854848        0.57869718789675       -1.06249025684191
C            3.26786363107701       -0.00741544825020       -0.01124156395561
N            4.66829841619552       -0.00116268108777       -0.00525225378965
C            5.47118578780400        1.10541372189061       -0.20172787774776
C            5.11596780991826        2.43221962932657       -0.39792326055194
C            6.13183991307359        3.35766173480077       -0.54165670641247
C            7.47205992595953        2.98196230386553       -0.48429628282963
C            7.83167761193698        1.66736202359473       -0.26502403147692
C            6.82838619194463        0.71880357072875       -0.11722921059796
C            6.83521352837157       -0.69438950717776        0.13799783028562
C            7.84793434435892       -1.63027328101530        0.30131587720337
C            7.50147262307094       -2.94893030726840        0.51738959469189
C            6.16529668628956       -3.34107055475877        0.55625230332381
C            5.14018710623416       -2.42848156561918        0.39657349080961
C            5.48175483188924       -1.09762702847251        0.20354819373987
C            2.56354776234860       -0.59748514306882        1.03494723758731
C            1.18284323823002       -0.60456033197929        1.02372236509645
C           -1.70014227962544       -1.21008004382260       -0.19268474218179
C           -1.02714518886475       -2.44164656800836       -0.40769837942384
C           -1.71501692115766       -3.60702802587186       -0.54922746126504
C           -3.12228427471974       -3.61418178540035       -0.47924636577630
C           -3.80668889477500       -2.45203481879319       -0.29899233198788
C           -3.12957569103633       -1.21035802763903       -0.17223921688130
C           -6.01297759741901       -0.28602481038994       -1.16399224560485
C           -7.39271951504216       -0.28520432414800       -1.16139531981769
H           -7.91658036854599        0.50303561945640        2.09745510377715
H           -5.44552139046394        0.50306394831688        2.07444883737475
H           -4.87512792605431        2.46027519962166        0.23342669195824
H           -3.63305861711685        4.54461274397324        0.55549986154384
H           -1.16842612673019        4.52144702227193        0.67816286624549
H            0.06260084346637        2.41853689844718        0.41658523271997
H            0.64691507837479        1.03668518160146       -1.87701644749067
H            3.11177604604099        1.01733865848154       -1.88550442835808
H            4.08064169329619        2.73726457015076       -0.42632458226638
H            5.88083887728946        4.39644045001149       -0.69846652712802
H            8.23658997897533        3.73506144915775       -0.60423773850984
H            8.87001651964870        1.37821830086956       -0.20407363020321
H            8.88338019629417       -1.32830469556688        0.25500925456108
H            8.27347167702620       -3.69230765528596        0.64956078461064
H            5.92500114846464       -4.38264912674227        0.71126830066961
H            4.10838203968481       -2.74620788307669        0.41085642825862
H            3.10412298757575       -1.03527328666629        1.86069266135591
H            0.63945125872974       -1.05943643082730        1.83927161565866
H            0.05129097463486       -2.43659582667778       -0.46077759533744
H           -1.18865211548272       -4.53579255431896       -0.71249200259542
H           -3.65253474959325       -4.55023962630895       -0.57404728023343
H           -4.88533326472861       -2.46155444957498       -0.24626885964255
H           -5.47377853158236       -0.50313893494572       -2.07460027936920
H           -7.94492356107002       -0.50324179907715       -2.06376684113847

          :  Hamiltonian                  GFN2-xTB          :
         :: gradient norm              0.000047034613 Eh/a0 ::
         :: HOMO-LUMO gap              1.935300642790 eV    ::
         :: SCC energy              -103.591433454164 Eh    ::
         :: -> dispersion             -0.092334128430 Eh    ::
         :: repulsion energy           1.998821085986 Eh    ::

    * Orbital Energies and Occupations

         #    Occupation            Energy/Eh            Energy/eV
      -------------------------------------------------------------
         1        2.0000           -0.6772307             -18.4284
       ...           ...                  ...                  ...
        83        2.0000           -0.4228565             -11.5065
        84        2.0000           -0.4207204             -11.4484
        85        2.0000           -0.4193630             -11.4114
        86        2.0000           -0.4179286             -11.3724
        87        2.0000           -0.4161163             -11.3231
        88        2.0000           -0.4152013             -11.2982
        89        2.0000           -0.4113761             -11.1941
        90        2.0000           -0.4086056             -11.1187
        91        2.0000           -0.4081825             -11.1072
        92        2.0000           -0.4054594             -11.0331
        93        2.0000           -0.3788885             -10.3101
        94        2.0000           -0.3695174             -10.0551
        95        2.0000           -0.3625389              -9.8652 (HOMO)
        96                         -0.2914179              -7.9299 (LUMO)
        97                         -0.2722550              -7.4084
        98                         -0.2470653              -6.7230
        99                         -0.2457906              -6.6883
       100                         -0.2406398              -6.5481
       101                         -0.2381483              -6.4803
       102                         -0.2373132              -6.4576
       103                         -0.2293913              -6.2421
       104                         -0.2221508              -6.0450
       105                         -0.2063330              -5.6146
       106                         -0.1932169              -5.2577
       ...                                ...                  ...
       188                          1.1708638              31.8608
      -------------------------------------------------------------
                  HL-Gap            0.0711210 Eh            1.9353 eV

     #   Z          covCN         q      C6AA      α(0)
     1   7 N        0.911    -0.235    26.158     7.397
     2   6 C        1.912     0.111    28.355     8.600
     3   6 C        2.974     0.017    27.631     8.622
     4   6 C        2.925    -0.021    28.527     8.759
     5   6 C        2.923    -0.029    28.725     8.789
     6   6 C        2.977     0.025    27.444     8.593
     7   6 C        2.977    -0.009    28.236     8.716
     8   6 C        2.984     0.007    27.853     8.657
     9   6 C        2.917    -0.035    28.867     8.811
    10   6 C        2.914    -0.029    28.714     8.787
    11   6 C        2.914    -0.029    28.727     8.789
    12   6 C        2.917    -0.034    28.841     8.807
    13   6 C        2.984     0.007    27.862     8.659
    14   6 C        2.977    -0.004    28.127     8.699
    15   6 C        2.977     0.012    27.744     8.640
    16   6 C        2.924    -0.032    28.790     8.799
    17   6 C        2.921    -0.044    29.082     8.844
    18   6 C        2.913     0.063    26.585     8.455
    19   7 N        2.803    -0.045    22.101     6.982
    20   6 C        3.075     0.047    26.877     8.500
    21   6 C        2.910    -0.051    29.265     8.871
    22   6 C        2.924    -0.033    28.834     8.806
    23   6 C        2.920    -0.041    29.013     8.833
    24   6 C        2.913    -0.033    28.814     8.802
    25   6 C        3.068    -0.017    28.361     8.732
    26   6 C        3.068    -0.017    28.361     8.732
    27   6 C        2.913    -0.033    28.814     8.802
    28   6 C        2.920    -0.041    29.013     8.833
    29   6 C        2.924    -0.033    28.834     8.806
    30   6 C        2.910    -0.051    29.265     8.871
    31   6 C        3.075     0.047    26.877     8.500
    32   6 C        2.921    -0.044    29.082     8.843
    33   6 C        2.924    -0.032    28.789     8.799
    34   6 C        2.984     0.007    27.862     8.659
    35   6 C        2.917    -0.034    28.841     8.807
    36   6 C        2.914    -0.029    28.727     8.789
    37   6 C        2.914    -0.029    28.714     8.787
    38   6 C        2.917    -0.035    28.868     8.811
    39   6 C        2.984     0.007    27.853     8.657
    40   6 C        2.923    -0.029    28.725     8.789
    41   6 C        2.925    -0.021    28.527     8.759
    42   1 H        0.926     0.042     2.423     2.434
    43   1 H        0.926     0.039     2.458     2.452
    44   1 H        0.926     0.030     2.593     2.518
    45   1 H        0.926     0.032     2.562     2.503
    46   1 H        0.926     0.032     2.563     2.503
    47   1 H        0.926     0.032     2.552     2.498
    48   1 H        0.926     0.036     2.499     2.472
    49   1 H        0.926     0.042     2.424     2.435
    50   1 H        0.926     0.026     2.647     2.544
    51   1 H        0.926     0.029     2.605     2.524
    52   1 H        0.926     0.028     2.614     2.528
    53   1 H        0.926     0.031     2.572     2.508
    54   1 H        0.926     0.031     2.572     2.508
    55   1 H        0.926     0.028     2.614     2.529
    56   1 H        0.926     0.029     2.605     2.524
    57   1 H        0.926     0.026     2.647     2.544
    58   1 H        0.926     0.042     2.424     2.435
    59   1 H        0.926     0.036     2.499     2.472
    60   1 H        0.926     0.032     2.552     2.498
    61   1 H        0.926     0.032     2.563     2.503
    62   1 H        0.926     0.032     2.562     2.503
    63   1 H        0.926     0.030     2.593     2.518
    64   1 H        0.926     0.039     2.458     2.452
    65   1 H        0.926     0.042     2.423     2.434

molecular dipole:
                 x           y           z       tot (Debye)
 q only:        1.004      -0.002      -0.011
   full:        1.369      -0.002      -0.013       3.481

 projected vibrational frequencies (cm⁻¹)
eigval :       -0.00    -0.00    -0.00     0.00     0.00     0.00
eigval :       12.80    13.50    15.21    36.44    38.32    38.79
eigval :       63.16    67.61    74.65    79.39   104.85   108.52
eigval :      115.01   119.90   133.77   145.32   176.19   183.54
eigval :      195.96   210.95   218.70   227.16   262.71   263.70
eigval :      271.77   308.74   350.37   363.26   380.71   381.36
eigval :      388.71   389.31   397.65   408.53   415.40   428.24
eigval :      435.39   441.35   447.42   452.90   458.58   499.32
eigval :      518.92   518.98   533.84   534.10   541.20   544.24
eigval :      576.89   580.20   586.48   589.10   594.48   607.85
eigval :      611.75   623.94   641.94   652.15   673.94   687.43
eigval :      689.38   693.22   702.37   708.51   734.04   740.27
eigval :      757.65   769.34   774.37   775.66   780.72   786.42
eigval :      814.71   820.88   866.99   870.76   872.75   874.52
eigval :      875.97   883.19   897.77   898.78   901.83   902.94
eigval :      903.06   916.30   918.37   919.09   921.29   921.53
eigval :      925.44   926.80   927.67   929.14   930.67   933.06
eigval :      935.28   953.23  1012.07  1018.79  1025.37  1070.43
eigval :     1074.15  1082.41  1083.13  1117.66  1132.11  1133.16
eigval :     1135.18  1144.94  1152.86  1176.54  1181.38  1181.76
eigval :     1182.69  1184.74  1186.72  1198.25  1207.56  1219.36
eigval :     1229.35  1236.79  1243.00  1247.18  1259.59  1261.43
eigval :     1265.33  1268.36  1300.28  1303.12  1308.27  1309.84
eigval :     1325.16  1349.88  1356.76  1362.42  1362.86  1380.48
eigval :     1384.62  1392.96  1403.41  1418.47  1428.41  1429.18
eigval :     1431.91  1445.36  1472.53  1476.67  1488.41  1491.10
eigval :     1501.34  1527.09  1529.37  1541.85  1548.34  1558.77
eigval :     1575.41  1588.85  1589.50  1596.53  1599.52  1608.46
eigval :     1615.51  1622.74  2374.59  3075.83  3076.15  3076.67
eigval :     3076.70  3079.64  3080.92  3081.06  3081.36  3081.90
eigval :     3082.21  3082.31  3083.25  3087.72  3089.41  3090.90
eigval :     3091.36  3093.26  3093.58  3094.49  3095.24  3095.28
eigval :     3096.05  3096.78  3097.05

   temp. (K)  partition function   enthalpy   heat capacity  entropy
                                   cal/mol     cal/K/mol   cal/K/mol   J/K/mol
 298.15  VIB  0.708E+14            18190.219    117.371    112.425
         ROT  0.552E+08              888.752      2.981     38.407
         INT  0.391E+22            19078.971    120.351    150.832
         TR   0.115E+29             1481.254      4.968     44.616
         TOT                       20560.2253   125.3196   195.4477   817.7532

       T/K    H(0)-H(T)+PV         H(T)/Eh          T*S/Eh         G(T)/Eh
   ------------------------------------------------------------------------
    298.15    0.327648E-01    0.527328E+00    0.928635E-01    0.434464E+00
   ------------------------------------------------------------------------

         :::::::::::::::::::::::::::::::::::::::::::::::::::::
         ::                  THERMODYNAMIC                  ::
         :::::::::::::::::::::::::::::::::::::::::::::::::::::
         :: total free energy        -101.158148351141 Eh   ::
         ::.................................................::
         :: total energy             -101.592612368171 Eh   ::
         :: zero point energy           0.494562721895 Eh   ::
         :: G(RRHO) w/o ZPVE           -0.060098704865 Eh   ::
         :: G(RRHO) contrib.            0.434464017030 Eh   ::
         :::::::::::::::::::::::::::::::::::::::::::::::::::::

           -------------------------------------------------
          | TOTAL ENERGY             -101.592612368171 Eh   |
          | TOTAL ENTHALPY           -101.065284841757 Eh   |
          | TOTAL FREE ENERGY        -101.158148351141 Eh   |
          | GRADIENT NORM               0.000047037314 Eh/α |
          | HOMO-LUMO GAP               1.935300666405 eV   |
           -------------------------------------------------

 * finished run on 2025/09/09 at 21:13:46.739
