   * xtb version 6.7.1 (edcfbbe) compiled by 'albert@albert-system' on 2024-07-22

   ID    Z sym.   atoms
    1    7 N      1, 19
    2    6 C      2-18, 20-41
    3    1 H      42-65

          program call               : xtb data2507/gas/pCzAnBzt/pCzAnBzt_gas_T1_crest.xyz --gfn 2 --spinpol --tblite --uhf 2 --ohess vtight --parallel 40 --molden --ceasefiles --namespace data2507/gas/pCzAnBzt/pCzAnBzt_gas_T1_finalOpt
 * total energy  :  -101.5305625 Eh     change        0.3120216E-07 Eh
 * total energy  :  -101.5306050 Eh     change       -0.4247133E-04 Eh
 * total energy  :  -101.5306192 Eh     change       -0.1421375E-04 Eh
 * total energy  :  -101.5306154 Eh     change        0.3874020E-05 Eh
 * total energy  :  -101.5306268 Eh     change       -0.1142605E-04 Eh
 * total energy  :  -101.5306337 Eh     change       -0.6956832E-05 Eh
 * total energy  :  -101.5306378 Eh     change       -0.4044994E-05 Eh
 * total energy  :  -101.5306449 Eh     change       -0.7144626E-05 Eh
 * total energy  :  -101.5306489 Eh     change       -0.4015104E-05 Eh
 * total energy  :  -101.5306506 Eh     change       -0.1667984E-05 Eh
 * total energy  :  -101.5306649 Eh     change       -0.3328465E-06 Eh
 * total energy  :  -101.5306651 Eh     change       -0.1829412E-06 Eh
 * total energy  :  -101.5306652 Eh     change       -0.1614447E-06 Eh
 * total energy  :  -101.5306654 Eh     change       -0.2052901E-06 Eh
 * total energy  :  -101.5306657 Eh     change       -0.2295031E-06 Eh
 * total energy  :  -101.5306659 Eh     change       -0.2583716E-06 Eh
 * total energy  :  -101.5306661 Eh     change       -0.1617745E-06 Eh
 * total energy  :  -101.5306662 Eh     change       -0.1274165E-06 Eh
 * total energy  :  -101.5306663 Eh     change       -0.6509943E-07 Eh
   *** GEOMETRY OPTIMIZATION CONVERGED AFTER 41 ITERATIONS ***

 final structure:
================
65
 xtb: 6.7.1 (edcfbbe)
N          -10.65103878329407        0.00901992660110       -0.02178640895801
C           -9.50308418664802        0.00838418581706       -0.01537495755368
C           -8.09363963225662        0.00755478238227       -0.00762984685961
C           -7.39474062476600        0.70526152649237        0.98272461508299
C           -6.01874000554388        0.70868373465296        0.98094734381305
C           -5.29480938194694        0.00643878522801        0.00718538645317
C           -3.83839621790646        0.00594944548499        0.01331905528462
C           -3.12437829490891        1.24651017784781        0.01161578239681
C           -3.78345675063415        2.47510545364482       -0.07946257733306
C           -3.09193641616605        3.68044577204381        0.00836177699129
C           -1.72714450777382        3.67350968558373        0.19927925699497
C           -1.03854897125535        2.46384559934679        0.22984680174286
C           -1.69977739955550        1.24252201406645        0.07641337363442
C           -0.98808919226334        0.00306292237871        0.01444912724660
C            0.46880253942434        0.00215710746070        0.01099056505806
C            1.18843115982753        0.75345546759378       -0.92610205418161
C            2.56556151819353        0.74437922844445       -0.94042718049878
C            3.27460875871505       -0.00142978726157        0.00123465426146
N            4.67170666501847       -0.00412542581860       -0.00424259618821
C            5.48260874261663        1.11293167634707       -0.06984307831907
C            5.13750033006807        2.45680324541022       -0.08832015153246
C            6.16042140614103        3.38536619141373       -0.12604070698033
C            7.49731658168398        2.99505414195395       -0.13492764302541
C            7.84741632390279        1.65983966884086       -0.08874976011153
C            6.83724118121755        0.70874704829000       -0.05098183961865
C            6.83451942911582       -0.72621624609396        0.02381920776700
C            7.84092139157573       -1.68161257940830        0.05276538688731
C            7.48554926332711       -3.01533605294907        0.10168600881587
C            6.14697832026906       -3.39995416919479        0.10416305924355
C            5.12774280402069       -2.46703111845412        0.07542670888687
C            5.47839932373992       -1.12463740514599        0.05426764458610
C            2.57020135148079       -0.74475495352508        0.94831212063569
C            1.19295949706504       -0.75025618496901        0.94365384767224
C           -1.70195608739460       -1.23519139840983       -0.04499343305042
C           -1.04360683180607       -2.45842033614901       -0.19597946927193
C           -1.73498822070361       -3.66641664771342       -0.16232786883743
C           -3.09981203759022       -3.66985822834120        0.02848994630365
C           -3.78859505156555       -2.46269793586837        0.11274677318227
C           -3.12656445924685       -1.23592416135012        0.01910208451139
C           -6.00906348832438       -0.69576859719851       -0.97380022657582
C           -7.38489541969740       -0.69118262395239       -0.99028404423754
H           -7.94378533427443        1.23516228199382        1.74751317778003
H           -5.48182599688845        1.22963948003344        1.76033133127559
H           -4.85224786513243        2.49703323873909       -0.22700070857954
H           -3.63354226020824        4.61182667545568       -0.05916708854306
H           -1.18320208432660        4.59950022623168        0.31061034769351
H            0.02969115063411        2.47377378789146        0.38259089019333
H            0.64939067851101        1.31181543242164       -1.67740569567560
H            3.10488151193527        1.29436261997736       -1.69711254289630
H            4.10537068774065        2.77173706648837       -0.06081632178025
H            5.91713742866982        4.43740883311624       -0.14473930882921
H            8.26756311971200        3.75099715438414       -0.16774742844761
H            8.88359451147156        1.35747796362189       -0.07690831646448
H            8.87823839231794       -1.38366800211334        0.03206656700494
H            8.25282015019125       -3.77456114774075        0.12772786372259
H            5.89937853029677       -4.45095570360244        0.12466382145826
H            4.09408537079278       -2.77756433810477        0.05665831667211
H            3.11339102394857       -1.29597152438598        1.70132909277653
H            0.65776708469050       -1.30677506031704        1.69906131761497
H            0.02450225848461       -2.47127044405627       -0.34929021483825
H           -1.19313024925283       -4.59390076526337       -0.27137493176966
H           -3.64350751155381       -4.59984190368511        0.09838218928532
H           -4.85758001680968       -2.48161634724633        0.25948025024829
H           -5.46423071538977       -1.21785376494929       -1.74691391799907
H           -7.92622120621450       -1.22084563630741       -1.76071140392151

 projected vibrational frequencies (cm⁻¹)
eigval :       -0.00    -0.00    -0.00    -0.00    -0.00     0.00
eigval :        9.80    15.61    19.23    34.37    39.44    55.46
eigval :       59.58    70.45    83.87    88.63   104.98   109.62
eigval :      126.31   133.23   136.73   151.08   179.48   181.61
eigval :      207.28   211.21   229.96   234.13   266.22   270.66
eigval :      271.83   309.01   345.66   367.57   367.84   377.97
eigval :      380.86   389.11   395.91   399.52   413.09   418.93
eigval :      424.20   428.57   442.08   443.43   471.13   498.45
eigval :      518.08   518.25   532.88   536.59   540.44   540.62
eigval :      566.87   575.10   577.77   584.61   588.77   605.46
eigval :      607.31   619.21   627.10   646.02   674.28   674.34
eigval :      684.11   689.47   695.38   708.92   717.38   730.88
eigval :      749.35   757.18   761.82   769.68   780.44   781.06
eigval :      815.61   823.48   846.61   851.69   865.89   869.74
eigval :      874.03   882.30   892.12   894.68   894.97   897.94
eigval :      899.71   904.00   904.02   907.18   907.90   921.72
eigval :      922.12   923.07   925.81   932.63   934.82   939.85
eigval :      946.42   950.70  1012.17  1013.45  1019.54  1070.72
eigval :     1074.14  1102.72  1105.91  1116.04  1117.25  1126.69
eigval :     1135.05  1135.99  1151.71  1176.24  1180.47  1180.70
eigval :     1181.59  1181.68  1184.06  1188.42  1194.00  1206.01
eigval :     1233.28  1235.35  1239.71  1244.57  1254.61  1260.71
eigval :     1267.01  1270.43  1296.92  1297.01  1300.83  1301.42
eigval :     1309.31  1312.97  1335.78  1358.02  1359.23  1360.76
eigval :     1364.16  1372.81  1379.06  1402.09  1409.77  1409.78
eigval :     1424.69  1425.18  1428.08  1464.60  1472.70  1473.43
eigval :     1485.50  1487.09  1491.03  1517.10  1522.72  1530.00
eigval :     1533.52  1553.67  1569.03  1574.16  1576.68  1588.17
eigval :     1595.39  1611.23  2356.78  3078.32  3078.49  3078.65
eigval :     3079.64  3079.78  3080.08  3080.67  3081.96  3083.44
eigval :     3084.82  3087.58  3087.90  3090.16  3090.45  3090.66
eigval :     3092.07  3093.51  3094.18  3095.88  3096.46  3096.64
eigval :     3098.43  3100.40  3100.48

   temp. (K)  partition function   enthalpy   heat capacity  entropy
                                   cal/mol     cal/K/mol   cal/K/mol   J/K/mol
 298.15  VIB  0.331E+14            18185.326    118.591    111.730
         ROT  0.278E+08              888.752      2.981     37.041
         INT  0.920E+21            19074.079    121.572    148.771
         TR   0.115E+29             1481.254      4.968     44.616
         TOT                       20555.3325   126.5404   193.3863   809.1281

       T/K    H(0)-H(T)+PV         H(T)/Eh          T*S/Eh         G(T)/Eh
   ------------------------------------------------------------------------
    298.15    0.327570E-01    0.525033E+00    0.918841E-01    0.433149E+00
   ------------------------------------------------------------------------

         :::::::::::::::::::::::::::::::::::::::::::::::::::::
         ::                  THERMODYNAMIC                  ::
         :::::::::::::::::::::::::::::::::::::::::::::::::::::
         :: total free energy        -101.097517721598 Eh   ::
         ::.................................................::
         :: total energy             -101.530666306104 Eh   ::
         :: zero point energy           0.492275629707 Eh   ::
         :: G(RRHO) w/o ZPVE           -0.059127045201 Eh   ::
         :: G(RRHO) contrib.            0.433148584506 Eh   ::
         :::::::::::::::::::::::::::::::::::::::::::::::::::::

           -------------------------------------------------
          | TOTAL ENERGY             -101.530666306104 Eh   |
          | TOTAL ENTHALPY           -101.005633669050 Eh   |
          | TOTAL FREE ENERGY        -101.097517721598 Eh   |
          | GRADIENT NORM               0.000026506810 Eh/α |
           -------------------------------------------------

 * finished run on 2025/09/09 at 21:19:56.819
