   * xtb version 6.7.1 (edcfbbe) compiled by 'albert@albert-system' on 2024-07-22

   ID    Z sym.   atoms
    1    7 N      1, 19
    2    6 C      2-18, 20-41
    3    1 H      42-65

          program call               : xtb data2507/gas/pCzAnBzt/pCzAnBzt.xyz --gfn 2 --ohess vtight --parallel 40 --molden --ceasefiles --namespace data2507/gas/pCzAnBzt/pCzAnBzt_gas_S0_preOpt
          :  Hamiltonian                  GFN2-xTB          :
 * total energy  :  -101.5726186 Eh     change       -0.1394582E-08 Eh
 * total energy  :  -101.5876690 Eh     change       -0.1505042E-01 Eh
 * total energy  :  -101.5911199 Eh     change       -0.3450934E-02 Eh
 * total energy  :  -101.5915154 Eh     change       -0.3954479E-03 Eh
 * total energy  :  -101.5917609 Eh     change       -0.2455567E-03 Eh
 * total energy  :  -101.5918518 Eh     change       -0.9090426E-04 Eh
 * total energy  :  -101.5919262 Eh     change       -0.7433950E-04 Eh
 * total energy  :  -101.5919738 Eh     change       -0.4764034E-04 Eh
 * total energy  :  -101.5920140 Eh     change       -0.4022873E-04 Eh
 * total energy  :  -101.5920403 Eh     change       -0.2622571E-04 Eh
 * total energy  :  -101.5924937 Eh     change       -0.8014653E-05 Eh
 * total energy  :  -101.5924993 Eh     change       -0.5620968E-05 Eh
 * total energy  :  -101.5925019 Eh     change       -0.2550061E-05 Eh
 * total energy  :  -101.5925032 Eh     change       -0.1292481E-05 Eh
 * total energy  :  -101.5925041 Eh     change       -0.9290671E-06 Eh
 * total energy  :  -101.5925047 Eh     change       -0.5870971E-06 Eh
 * total energy  :  -101.5925052 Eh     change       -0.4834800E-06 Eh
 * total energy  :  -101.5925056 Eh     change       -0.4341940E-06 Eh
 * total energy  :  -101.5925056 Eh     change       -0.5494428E-08 Eh
   *** GEOMETRY OPTIMIZATION CONVERGED AFTER 68 ITERATIONS ***

 final structure:
================
65
 xtb: 6.7.1 (edcfbbe)
N          -10.87902905432692       -0.00019974918071       -0.00066066887330
C           -9.73240123556234        0.00016753723672       -0.00060381543033
C           -8.31924161896035        0.00020160707036       -0.00041412771943
C           -7.62146049455170        0.18368637937846        1.19433049250938
C           -6.24176350808532        0.18048048260807        1.18857343314686
C           -5.53630287973620        0.00000897017320        0.00016824376340
C           -4.05913112872237        0.00003530824148        0.00031858447234
C           -3.36341860088107        1.06055426506728       -0.59778508780598
C           -4.03777530768590        2.16513318060701       -1.18202172474681
C           -3.34954505718638        3.19367675125437       -1.74779181140460
C           -1.94051663509803        3.18965386869213       -1.75267763578779
C           -1.25565635003059        2.15776569375177       -1.18928189001089
C           -1.93381571128947        1.05897160393721       -0.59884467438906
C           -1.23766314135454       -0.00002046880525        0.00010803122004
C            0.24075501421950       -0.00017616723886       -0.00007293747763
C            0.94768622474042       -0.23341911170257       -1.17585068705749
C            2.32864476168923       -0.23177044854557       -1.18015819007367
C            3.03054700695613       -0.00033752423403       -0.00024074308873
N            4.43126364180867       -0.00022623364793       -0.00030725975901
C            5.23955397504767       -0.98679305347068       -0.53020857188727
C            4.89083743654028       -2.19200314152765       -1.12263599359666
C            5.91139991501357       -3.02062416315132       -1.54803293345959
C            7.24969053213302       -2.67014984268817       -1.38405996054352
C            7.60287863881736       -1.48339159044518       -0.77376137814113
C            6.59489634740151       -0.63371491708349       -0.33756498196596
C            6.59465003263435        0.63368653495095        0.33776977186858
C            7.60227183622125        1.48364072986866        0.77426570437030
C            7.24857472713570        2.67045554402643        1.38416224479921
C            5.91014542969147        3.02069497860965        1.54751909121156
C            4.88994047753393        2.19175629199414        1.12190197221693
C            5.23917189857448        0.98651646450987        0.52983801834223
C            2.32881252950631        0.23119826918057        1.17976423208493
C            0.94786512960515        0.23290408617275        1.17563119650961
C           -1.93377923067076       -1.05891605835376        0.59927327724255
C           -1.25556432328826       -2.15769338270835        1.18967708862796
C           -1.94036824576167       -3.18955563798159        1.75317912287445
C           -3.34939857333887       -3.19357686523911        1.74842666527056
C           -4.03768256960781       -2.16502434691436        1.18274137516669
C           -3.36338059056393       -1.06047211444756        0.59839265224348
C           -6.24130786799421       -0.18036423068144       -1.18852386745577
C           -7.62099674231169       -0.18337861555735       -1.19487922776296
H           -8.16769135086846        0.32712265314827        2.11509101634627
H           -5.69652684151611        0.32519767702464        2.10990176895490
H           -5.11746360349143        2.18172618141026       -1.16354037213638
H           -3.87805518848579        4.02600158333298       -2.18857094378233
H           -1.41052489613550        4.01837571245650       -2.19834731169350
H           -0.17589604652621        2.16327581137198       -1.17653324019907
H            0.40552394010142       -0.41459363844148       -2.09266965419789
H            2.87120642846509       -0.39524008946425       -2.09924340081728
H            3.85707854502085       -2.48131981263751       -1.23880852626726
H            5.66568653622594       -3.96301723892668       -2.01512354103983
H            8.01796540970371       -3.34411476015746       -1.73275736543759
H            8.63985656177890       -1.21870977828162       -0.63198888020248
H            8.63936797094966        1.21912696741395        0.63304518829284
H            8.01656194901074        3.34464865544188        1.73305171992564
H            5.66403544340824        3.96318412432255        2.01420939748264
H            3.85606278447319        2.48087153796787        1.23753949487550
H            2.87149713103853        0.39465513156083        2.09878061633997
H            0.40581312757939        0.41418819785292        2.09249591425231
H           -0.17580683414412       -2.16322734170770        1.17679016182201
H           -1.41031813568978       -4.01825762208441        2.19881801346444
H           -3.87785432724833       -4.02592304317269        2.18923457547973
H           -5.11737822366921       -2.18154157611787        1.16446631990570
H           -5.69569091729624       -0.32510684326158       -2.10962054329389
H           -8.16683315093969       -0.32670337276981       -2.11588243757731

          :  Hamiltonian                  GFN2-xTB          :
         :: gradient norm              0.000051390521 Eh/a0 ::
         :: HOMO-LUMO gap              1.946169247889 eV    ::
         :: SCC energy              -103.591432786130 Eh    ::
         :: -> dispersion             -0.092132299076 Eh    ::
         :: repulsion energy           1.998927185391 Eh    ::

    * Orbital Energies and Occupations

         #    Occupation            Energy/Eh            Energy/eV
      -------------------------------------------------------------
         1        2.0000           -0.6770649             -18.4239
       ...           ...                  ...                  ...
        83        2.0000           -0.4226258             -11.5002
        84        2.0000           -0.4208310             -11.4514
        85        2.0000           -0.4191294             -11.4051
        86        2.0000           -0.4170794             -11.3493
        87        2.0000           -0.4151019             -11.2955
        88        2.0000           -0.4148704             -11.2892
        89        2.0000           -0.4131118             -11.2413
        90        2.0000           -0.4087204             -11.1218
        91        2.0000           -0.4084780             -11.1153
        92        2.0000           -0.4052867             -11.0284
        93        2.0000           -0.3786712             -10.3042
        94        2.0000           -0.3692415             -10.0476
        95        2.0000           -0.3626958              -9.8695 (HOMO)
        96                         -0.2911754              -7.9233 (LUMO)
        97                         -0.2723370              -7.4107
        98                         -0.2468960              -6.7184
        99                         -0.2457758              -6.6879
       100                         -0.2406421              -6.5482
       101                         -0.2380378              -6.4773
       102                         -0.2374170              -6.4604
       103                         -0.2294584              -6.2439
       104                         -0.2219257              -6.0389
       105                         -0.2063187              -5.6142
       106                         -0.1926037              -5.2410
       ...                                ...                  ...
       188                          1.1708897              31.8615
      -------------------------------------------------------------
                  HL-Gap            0.0715204 Eh            1.9462 eV

     #   Z          covCN         q      C6AA      α(0)
     1   7 N        0.911    -0.235    26.159     7.397
     2   6 C        1.912     0.111    28.355     8.600
     3   6 C        2.974     0.017    27.632     8.622
     4   6 C        2.925    -0.021    28.527     8.759
     5   6 C        2.923    -0.029    28.727     8.789
     6   6 C        2.977     0.025    27.444     8.593
     7   6 C        2.977    -0.009    28.233     8.716
     8   6 C        2.983     0.007    27.854     8.657
     9   6 C        2.917    -0.035    28.868     8.811
    10   6 C        2.914    -0.028    28.712     8.787
    11   6 C        2.914    -0.029    28.723     8.788
    12   6 C        2.918    -0.034    28.841     8.807
    13   6 C        2.984     0.007    27.862     8.659
    14   6 C        2.978    -0.004    28.124     8.699
    15   6 C        2.977     0.012    27.740     8.639
    16   6 C        2.924    -0.032    28.792     8.799
    17   6 C        2.921    -0.043    29.079     8.843
    18   6 C        2.913     0.063    26.588     8.455
    19   7 N        2.803    -0.045    22.107     6.983
    20   6 C        3.075     0.047    26.878     8.500
    21   6 C        2.910    -0.051    29.269     8.871
    22   6 C        2.924    -0.033    28.834     8.806
    23   6 C        2.920    -0.041    29.014     8.833
    24   6 C        2.913    -0.033    28.815     8.802
    25   6 C        3.068    -0.017    28.363     8.733
    26   6 C        3.068    -0.017    28.363     8.733
    27   6 C        2.913    -0.033    28.815     8.802
    28   6 C        2.920    -0.041    29.014     8.833
    29   6 C        2.924    -0.033    28.834     8.806
    30   6 C        2.910    -0.051    29.269     8.871
    31   6 C        3.075     0.047    26.878     8.500
    32   6 C        2.921    -0.043    29.079     8.843
    33   6 C        2.924    -0.032    28.792     8.799
    34   6 C        2.984     0.007    27.862     8.659
    35   6 C        2.918    -0.034    28.841     8.807
    36   6 C        2.914    -0.029    28.723     8.788
    37   6 C        2.914    -0.028    28.712     8.787
    38   6 C        2.917    -0.035    28.868     8.811
    39   6 C        2.983     0.007    27.854     8.657
    40   6 C        2.923    -0.029    28.727     8.789
    41   6 C        2.925    -0.021    28.527     8.759
    42   1 H        0.926     0.042     2.423     2.434
    43   1 H        0.926     0.039     2.459     2.452
    44   1 H        0.926     0.030     2.592     2.517
    45   1 H        0.926     0.032     2.561     2.502
    46   1 H        0.926     0.032     2.560     2.502
    47   1 H        0.926     0.033     2.550     2.497
    48   1 H        0.926     0.036     2.503     2.474
    49   1 H        0.926     0.042     2.424     2.435
    50   1 H        0.926     0.026     2.643     2.542
    51   1 H        0.926     0.029     2.605     2.524
    52   1 H        0.926     0.028     2.616     2.529
    53   1 H        0.926     0.031     2.573     2.509
    54   1 H        0.926     0.031     2.573     2.509
    55   1 H        0.926     0.028     2.616     2.529
    56   1 H        0.926     0.029     2.605     2.524
    57   1 H        0.926     0.026     2.643     2.542
    58   1 H        0.926     0.042     2.424     2.435
    59   1 H        0.926     0.036     2.503     2.474
    60   1 H        0.926     0.033     2.550     2.497
    61   1 H        0.926     0.032     2.560     2.502
    62   1 H        0.926     0.032     2.561     2.502
    63   1 H        0.926     0.030     2.592     2.517
    64   1 H        0.926     0.039     2.459     2.452
    65   1 H        0.926     0.042     2.423     2.434

molecular dipole:
                 x           y           z       tot (Debye)
 q only:        0.989       0.000       0.000
   full:        1.356       0.000       0.000       3.447

 projected vibrational frequencies (cm⁻¹)
eigval :       -0.00    -0.00    -0.00    -0.00     0.00     0.00
eigval :       11.32    12.76    15.33    35.58    38.88    39.42
eigval :       62.47    68.57    74.40    80.74   104.96   107.88
eigval :      109.96   119.39   133.44   144.98   181.17   184.89
eigval :      185.40   211.91   216.84   227.92   260.90   267.73
eigval :      271.78   308.59   342.51   363.23   378.67   382.06
eigval :      389.05   391.46   397.66   413.60   414.88   428.01
eigval :      430.85   440.75   447.99   455.58   458.43   497.85
eigval :      518.80   518.88   533.35   534.13   541.21   543.68
eigval :      576.26   581.24   586.50   589.09   593.87   609.43
eigval :      611.76   625.14   639.36   652.39   673.83   686.56
eigval :      690.12   693.70   701.88   708.49   734.16   740.60
eigval :      757.61   769.55   774.29   775.71   780.88   786.38
eigval :      814.62   820.37   867.39   870.79   873.36   874.67
eigval :      876.53   882.67   896.81   899.40   901.86   903.08
eigval :      903.18   916.27   918.49   919.33   920.86   921.53
eigval :      925.40   926.43   927.75   929.15   930.72   932.72
eigval :      934.85   953.06  1012.12  1018.85  1025.50  1070.42
eigval :     1074.00  1082.21  1082.93  1117.48  1132.05  1132.74
eigval :     1135.18  1144.96  1152.91  1176.68  1181.43  1181.74
eigval :     1182.44  1184.76  1186.73  1198.00  1207.44  1219.11
eigval :     1229.49  1236.87  1242.93  1247.12  1259.71  1261.36
eigval :     1265.02  1268.25  1300.34  1303.24  1308.36  1309.61
eigval :     1325.38  1349.93  1356.68  1362.37  1362.94  1380.55
eigval :     1384.73  1392.96  1402.93  1418.56  1428.44  1429.28
eigval :     1432.03  1445.71  1472.67  1476.68  1488.44  1491.08
eigval :     1501.67  1527.16  1529.54  1542.15  1548.38  1559.43
eigval :     1575.37  1588.90  1589.49  1597.78  1599.46  1608.49
eigval :     1615.52  1622.84  2374.59  3075.80  3076.12  3076.70
eigval :     3076.71  3079.58  3080.84  3080.96  3081.35  3081.82
eigval :     3082.16  3082.25  3083.23  3087.62  3089.34  3090.64
eigval :     3091.10  3093.26  3093.57  3094.22  3095.01  3095.16
eigval :     3095.86  3096.74  3096.94

   temp. (K)  partition function   enthalpy   heat capacity  entropy
                                   cal/mol     cal/K/mol   cal/K/mol   J/K/mol
 298.15  VIB  0.870E+14            18205.954    117.397    112.726
         ROT  0.276E+08              888.752      2.981     37.031
         INT  0.240E+22            19094.706    120.378    149.757
         TR   0.115E+29             1481.254      4.968     44.616
         TOT                       20575.9600   125.3457   194.3730   813.2565

       T/K    H(0)-H(T)+PV         H(T)/Eh          T*S/Eh         G(T)/Eh
   ------------------------------------------------------------------------
    298.15    0.327899E-01    0.527314E+00    0.923529E-01    0.434961E+00
   ------------------------------------------------------------------------

         :::::::::::::::::::::::::::::::::::::::::::::::::::::
         ::                  THERMODYNAMIC                  ::
         :::::::::::::::::::::::::::::::::::::::::::::::::::::
         :: total free energy        -101.157544451876 Eh   ::
         ::.................................................::
         :: total energy             -101.592505600881 Eh   ::
         :: zero point energy           0.494524141215 Eh   ::
         :: G(RRHO) w/o ZPVE           -0.059562992210 Eh   ::
         :: G(RRHO) contrib.            0.434961149005 Eh   ::
         :::::::::::::::::::::::::::::::::::::::::::::::::::::

           -------------------------------------------------
          | TOTAL ENERGY             -101.592505600881 Eh   |
          | TOTAL ENTHALPY           -101.065191580278 Eh   |
          | TOTAL FREE ENERGY        -101.157544451876 Eh   |
          | GRADIENT NORM               0.000051397081 Eh/α |
          | HOMO-LUMO GAP               1.946168700494 eV   |
           -------------------------------------------------

 * finished run on 2025/09/09 at 21:08:31.041
