   * xtb version 6.7.1 (edcfbbe) compiled by 'albert@albert-system' on 2024-07-22

   ID    Z sym.   atoms
    1    7 N      1, 19
    2    6 C      2-18, 20-41
    3    1 H      42-65

          program call               : xtb data2507/gas/pCzAnBzt/pCzAnBzt_gas_S0_finalOpt.xtbopt.xyz --gfn 2 --spinpol --tblite --uhf 2 --ohess vtight --parallel 40 --molden --ceasefiles --namespace data2507/gas/pCzAnBzt/pCzAnBzt_gas_T1_preOpt
 * total energy  :  -101.5211789 Eh     change       -0.1011358E-07 Eh
 * total energy  :  -101.5272160 Eh     change       -0.6037093E-02 Eh
 * total energy  :  -101.5286974 Eh     change       -0.1481392E-02 Eh
 * total energy  :  -101.5288573 Eh     change       -0.1599338E-03 Eh
 * total energy  :  -101.5290654 Eh     change       -0.2080880E-03 Eh
 * total energy  :  -101.5291993 Eh     change       -0.1339115E-03 Eh
 * total energy  :  -101.5293504 Eh     change       -0.1511508E-03 Eh
 * total energy  :  -101.5295105 Eh     change       -0.1600215E-03 Eh
 * total energy  :  -101.5296231 Eh     change       -0.1126201E-03 Eh
 * total energy  :  -101.5297039 Eh     change       -0.8086014E-04 Eh
 * total energy  :  -101.5306440 Eh     change       -0.7272851E-06 Eh
 * total energy  :  -101.5306447 Eh     change       -0.7096533E-06 Eh
 * total energy  :  -101.5306453 Eh     change       -0.6547849E-06 Eh
 * total energy  :  -101.5306460 Eh     change       -0.6411228E-06 Eh
 * total energy  :  -101.5306465 Eh     change       -0.5712980E-06 Eh
 * total energy  :  -101.5306471 Eh     change       -0.5666964E-06 Eh
 * total energy  :  -101.5306476 Eh     change       -0.4982280E-06 Eh
 * total energy  :  -101.5306481 Eh     change       -0.4941918E-06 Eh
 * total energy  :  -101.5306481 Eh     change       -0.1738886E-07 Eh
   *** GEOMETRY OPTIMIZATION CONVERGED AFTER 122 ITERATIONS ***

 final structure:
================
65
 xtb: 6.7.1 (edcfbbe)
N          -10.65163652833568       -0.01011930880721       -0.00703271605613
C           -9.50366747751183       -0.00908221167935       -0.00650897484047
C           -8.09419120518006       -0.00780110220371       -0.00584256390483
C           -7.39147598894826        0.63893632828155        1.01592117997859
C           -6.01551792753793        0.64472310700143        1.00762769611709
C           -5.29542636694550       -0.00520749507267       -0.00450599568630
C           -3.83887792118290       -0.00384840089886       -0.00381518352704
C           -3.12728986698568        1.23700553295169        0.05255826025863
C           -3.78900320390303        2.46705902627252        0.02201380774441
C           -3.09907706275089        3.66862926653963        0.16172339693798
C           -1.73304246159325        3.65614143950303        0.34263810504109
C           -1.04205064095218        2.44770710671445        0.31476148459698
C           -1.70250400702591        1.23308085531525        0.11255130046617
C           -0.98933329379294       -0.00119172696831       -0.00248064438648
C            0.46836095107764        0.00020201602802       -0.00181811088010
C            1.18918661129101        0.77610107180165       -0.91696580100484
C            2.56650851670742        0.76845498411175       -0.92768744018075
C            3.27374421570321        0.00302316430766       -0.00046489504550
N            4.67074767667391        0.00443091291421        0.00022267249675
C            5.47874719195042        1.12472793819051       -0.05004283455234
C            5.13062978248002        2.46799668847657       -0.05601423425100
C            6.15128867891041        3.39947292639892       -0.08212152195896
C            7.48921520692917        3.01285375148691       -0.09093497325240
C            7.84240757346745        1.67817899852335       -0.05520542223043
C            6.83445304663005        0.72433717856614       -0.02948850845926
C            6.83584845775790       -0.71117710104207        0.03207917766620
C            7.84566566855033       -1.66301939188937        0.05879447451612
C            7.49508383379228       -2.99839186196946        0.09416744397568
C            6.15793623482845       -3.38766407806253        0.08401981741033
C            5.13546019184843       -2.45821305883578        0.05690199927843
C            5.48092147964098       -1.11425752707858        0.05128626775522
C            2.56715084390757       -0.76384546103685        0.92606077227927
C            1.18985747483797       -0.77426651122592        0.91400977261161
C           -1.70008863322432       -1.23679563731183       -0.11814724774584
C           -1.03718245156327       -2.45019596244561       -0.31969048605984
C           -1.72589872360522       -3.65991507840086       -0.34818987980423
C           -3.09207998325990       -3.67494093553654       -0.16857813867752
C           -3.78437391498634       -2.47465397845590       -0.02955507534606
C           -3.12492162203838       -1.24337270697716       -0.05949894196111
C           -6.01334579930221       -0.65647639689092       -1.01732227115020
C           -7.38930445933708       -0.65324064741984       -1.02693070879530
H           -7.93751178726082        1.12763299063381        1.80974504159469
H           -5.47542165692659        1.12583271060894        1.81009141823290
H           -4.85864539882816        2.49374589631067       -0.11845742616079
H           -3.64299483679189        4.60088129017494        0.14101201267259
H           -1.19009011032026        4.57737963351005        0.49178932251414
H            0.02732414280663        2.45265103613976        0.45974626732446
H            0.65136955216162        1.35364826999677       -1.65454231507147
H            3.10701412190270        1.33582973254873       -1.67047845543517
H            4.09792096514132        2.78079910678860       -0.02771022532387
H            5.90519576492401        4.45098575052538       -0.09181207839997
H            8.25759323091650        3.77101293116636       -0.11513453215132
H            8.87925112996948        1.37815021029195       -0.04263703209369
H            8.88192457436983       -1.36093687227364        0.04725708898851
H            8.26493830359236       -3.75502671514118        0.11912713582616
H            5.91391721943006       -4.43966228002027        0.09345820011005
H            4.10340168955101       -2.77305956828346        0.02756375741321
H            3.10807855388720       -1.33012907255151        1.66937702828970
H            0.65249420589358       -1.35289538855349        1.65106903558956
H            0.03233833788328       -2.45315164320931       -0.46365114266664
H           -1.18109374399941       -4.58014722828956       -0.49679641295344
H           -3.63428265345090       -4.60820252002897       -0.14836132281969
H           -4.85409793691066       -2.50332684704485        0.10989830029078
H           -5.47159191292685       -1.13658386414220       -1.81926872831824
H           -7.93367186606282       -1.14295022867487       -1.82127585384061

 projected vibrational frequencies (cm⁻¹)
eigval :       -0.00    -0.00     0.00     0.00     0.00     0.00
eigval :       10.03    15.67    19.03    34.56    39.37    55.54
eigval :       59.69    70.29    83.61    88.43   105.20   109.66
eigval :      125.98   133.04   135.46   150.70   178.67   182.09
eigval :      207.13   211.76   230.05   233.19   266.18   270.45
eigval :      271.91   308.77   345.58   367.39   367.87   378.02
eigval :      381.07   388.87   396.11   399.30   413.06   418.67
eigval :      423.48   428.96   442.21   443.13   470.90   498.65
eigval :      517.99   518.28   532.89   536.72   540.44   540.70
eigval :      566.80   575.17   577.59   584.48   588.81   605.49
eigval :      607.32   619.34   627.19   646.23   674.12   674.34
eigval :      684.09   689.80   695.45   708.95   717.25   731.18
eigval :      749.07   757.19   761.58   769.72   780.47   781.08
eigval :      815.66   823.44   846.31   850.89   865.78   869.75
eigval :      874.16   882.41   891.88   894.24   894.99   897.81
eigval :      899.69   904.02   904.05   907.20   907.83   921.57
eigval :      922.09   922.98   925.88   932.40   934.89   939.40
eigval :      946.26   950.87  1011.94  1013.57  1020.22  1070.85
eigval :     1074.49  1102.70  1105.72  1115.88  1117.52  1126.77
eigval :     1135.05  1135.97  1152.07  1176.32  1180.64  1180.89
eigval :     1181.76  1181.91  1184.16  1188.44  1192.77  1206.40
eigval :     1233.25  1235.34  1239.67  1244.54  1254.70  1260.85
eigval :     1267.09  1270.45  1296.78  1297.17  1300.66  1301.68
eigval :     1309.26  1312.82  1335.91  1358.07  1359.26  1361.45
eigval :     1364.68  1372.95  1379.02  1401.96  1409.42  1409.85
eigval :     1425.10  1425.39  1428.14  1464.53  1472.83  1473.46
eigval :     1485.98  1487.17  1490.86  1517.14  1522.48  1530.53
eigval :     1534.25  1554.00  1569.12  1574.14  1577.13  1588.00
eigval :     1595.35  1611.35  2356.77  3078.55  3078.64  3078.87
eigval :     3079.76  3079.98  3080.26  3080.91  3082.23  3083.72
eigval :     3085.02  3087.77  3087.95  3090.58  3090.63  3090.89
eigval :     3092.26  3094.10  3094.73  3096.05  3096.54  3097.06
eigval :     3098.60  3100.07  3100.61

   temp. (K)  partition function   enthalpy   heat capacity  entropy
                                   cal/mol     cal/K/mol   cal/K/mol   J/K/mol
 298.15  VIB  0.330E+14            18189.389    118.598    111.758
         ROT  0.278E+08              888.752      2.981     37.041
         INT  0.916E+21            19078.141    121.579    148.799
         TR   0.115E+29             1481.254      4.968     44.616
         TOT                       20559.3954   126.5472   193.4148   809.2474

       T/K    H(0)-H(T)+PV         H(T)/Eh          T*S/Eh         G(T)/Eh
   ------------------------------------------------------------------------
    298.15    0.327635E-01    0.525049E+00    0.918976E-01    0.433151E+00
   ------------------------------------------------------------------------

         :::::::::::::::::::::::::::::::::::::::::::::::::::::
         ::                  THERMODYNAMIC                  ::
         :::::::::::::::::::::::::::::::::::::::::::::::::::::
         :: total free energy        -101.097496706545 Eh   ::
         ::.................................................::
         :: total energy             -101.530648019326 Eh   ::
         :: zero point energy           0.492285427490 Eh   ::
         :: G(RRHO) w/o ZPVE           -0.059134114709 Eh   ::
         :: G(RRHO) contrib.            0.433151312781 Eh   ::
         :::::::::::::::::::::::::::::::::::::::::::::::::::::

           -------------------------------------------------
          | TOTAL ENERGY             -101.530648019326 Eh   |
          | TOTAL ENTHALPY           -101.005599109839 Eh   |
          | TOTAL FREE ENERGY        -101.097496706545 Eh   |
          | GRADIENT NORM               0.000070641917 Eh/α |
           -------------------------------------------------

 * finished run on 2025/09/09 at 21:14:15.605
