   * xtb version 6.7.1 (edcfbbe) compiled by 'albert@albert-system' on 2024-07-22

   ID    Z sym.   atoms
    1    6 C      1-4, 6-18, 20, 21, 23-29, 31-45, 47-52, 54-58
    2    7 N      5, 19, 22, 30
    3   16 S      46, 53
    4    1 H      59-92

          program call               : xtb data2507/gas/oDTPA-DTPZ/oDTPA-DTPZ_gas_S0_crest.xyz --gfn 2 --ohess vtight --parallel 40 --molden --ceasefiles --namespace data2507/gas/oDTPA-DTPZ/oDTPA-DTPZ_gas_S0_finalOpt
          :  Hamiltonian                  GFN2-xTB          :
 * total energy  :  -146.9180289 Eh     change       -0.1297991E-08 Eh
 * total energy  :  -146.9180309 Eh     change       -0.2047014E-05 Eh
 * total energy  :  -146.9180344 Eh     change       -0.3480846E-05 Eh
 * total energy  :  -146.9180387 Eh     change       -0.4308698E-05 Eh
 * total energy  :  -146.9180416 Eh     change       -0.2876853E-05 Eh
 * total energy  :  -146.9180440 Eh     change       -0.2396567E-05 Eh
 * total energy  :  -146.9180470 Eh     change       -0.3012425E-05 Eh
 * total energy  :  -146.9180504 Eh     change       -0.3399645E-05 Eh
 * total energy  :  -146.9180534 Eh     change       -0.3025665E-05 Eh
 * total energy  :  -146.9180562 Eh     change       -0.2771036E-05 Eh
 * total energy  :  -146.9180657 Eh     change       -0.1659599E-05 Eh
 * total energy  :  -146.9180674 Eh     change       -0.1641873E-05 Eh
 * total energy  :  -146.9180687 Eh     change       -0.1285950E-05 Eh
 * total energy  :  -146.9180695 Eh     change       -0.8790265E-06 Eh
 * total energy  :  -146.9180701 Eh     change       -0.5973935E-06 Eh
 * total energy  :  -146.9180706 Eh     change       -0.4873272E-06 Eh
 * total energy  :  -146.9180711 Eh     change       -0.4408450E-06 Eh
 * total energy  :  -146.9180715 Eh     change       -0.4630381E-06 Eh
 * total energy  :  -146.9180715 Eh     change       -0.7087607E-08 Eh
   *** GEOMETRY OPTIMIZATION CONVERGED AFTER 22 ITERATIONS ***

 final structure:
================
92
 xtb: 6.7.1 (edcfbbe)
C            5.50425837918942        4.56709373110822       -3.58195036609194
C            6.30247937979201        3.99310347663090       -2.60649454308933
C            5.74510552525747        3.50405074863427       -1.44133031113421
C            4.36824671708211        3.58767547294262       -1.22868738391898
N            3.78869192926264        3.09603094784141       -0.05835825612377
C            4.49706093949430        3.07222801685375        1.14932017029094
C            5.33962058078910        4.12397148507123        1.50603491164577
C            6.04437975534844        4.07629685878081        2.69328388764102
C            5.91610224017296        2.98994897549292        3.54325752431420
C            5.07045937637542        1.94831234895625        3.19837073974290
C            4.36463649317273        1.98427792084519        2.01230281719844
C            2.49351673286791        2.56055530605017       -0.08282252934047
C            1.59190765498489        2.86781041866054        0.93512989561588
C            0.33141536816428        2.30667573494146        0.94455902542850
C           -0.05016895878489        1.40351610620609       -0.04290933006649
C           -1.35397894399192        0.71875263793631        0.01738584033630
C           -2.51983537706396        1.43438379579393        0.05033785757203
C           -3.76884579359074        0.77884232283167        0.04360309506210
N           -4.89674398707040        1.49625690442490        0.07425513686543
C           -6.04357432458858        0.84044851922399        0.05011417567611
C           -6.07888249338468       -0.60128111312167       -0.01026156157928
N           -4.96600007009946       -1.31240944337304       -0.03893199835560
C           -3.80375749215184       -0.65100171611910       -0.01150448004381
C           -2.58988640400272       -1.36771037869167       -0.01834133449671
C           -1.38826525600349       -0.71138507042266        0.01424223916840
C           -0.12039617163660       -1.45287661955456        0.07521071206508
C            0.83860608349375       -1.11892749823301        1.03145419158223
C            2.06786454380844       -1.73597937003112        1.04081047585470
C            2.38077642375680       -2.70512994529372        0.08611496572100
N            3.66941245807542       -3.24412341256939        0.04910636784181
C            3.87448169121909       -4.59636310428475       -0.22990883451720
C            2.95218160215880       -5.55152817712887        0.19864107525384
C            3.15355813487191       -6.88865275400224       -0.08169382422376
C            4.27622200337356       -7.29840636251778       -0.78219944007036
C            5.19739462391251       -6.35455728233502       -1.20591984045259
C            5.00091338632077       -5.01382080920846       -0.93905958427724
C            4.75248121693861       -2.37969132860244        0.26229935329106
C            4.72479469958348       -1.08741518705264       -0.26216634996748
C            5.77971059763359       -0.22432148053814       -0.04366311928490
C            6.87526649318335       -0.63133961781239        0.69973551815881
C            6.91019633299857       -1.91553578369753        1.21788310354923
C            5.85964689654751       -2.78758538582342        1.00379642065045
C            1.40163341586428       -3.09033040203047       -0.82873938062919
C            0.16670439875701       -2.47367902030187       -0.82640037231448
C           -7.34743310996005       -1.23428759408933       -0.03690083290327
S           -7.60220177070579       -2.94420651923272       -0.11236110801134
C           -9.30866240039089       -2.70545304489165       -0.10004499252457
C           -9.67031926714243       -1.40003306924731       -0.04158010988270
C           -8.54932714800068       -0.53292224506838       -0.00451829606030
C           -8.51445657934410        0.89175344188217        0.05769801148677
C           -9.59198632980518        1.81202774769465        0.09997439998586
C           -9.16742508273038        3.09855506692900        0.15391964507324
S           -7.45134697727964        3.25460759053430        0.15617727121220
C           -7.27974673052595        1.53420963279175        0.08222817756873
C            0.84138027811071        1.12559675391292       -1.07707298275320
C            2.09243183315961        1.70324614588572       -1.10658617622196
C            3.57037932340056        4.17262687032060       -2.21343095524996
C            4.13678838903626        4.65225921738171       -3.37777222753220
H            5.94401467904030        4.94598690246246       -4.49185572466183
H            7.36967799966956        3.91772964944589       -2.75588090462606
H            6.37731927903639        3.05546195210975       -0.68882534886477
H            5.43464577088897        4.97586205989747        0.84857355778885
H            6.69370660831441        4.89748647870754        2.95944540896442
H            6.47038909517785        2.95650283252475        4.46889811227145
H            4.96734644372673        1.09524252121818        3.85273417704473
H            3.71389884386673        1.16688216142976        1.73839353363804
H            1.89370036971153        3.54372543173943        1.72194764228556
H           -0.35832511238698        2.54504066482616        1.74140345224527
H           -2.51280713604842        2.51385036092417        0.05565596871728
H           -2.63807589922390       -2.44601929332233       -0.01904532381593
H            0.61004447852552       -0.37623833794904        1.78073226362243
H            2.80689511577244       -1.46650781382057        1.78120865178466
H            2.08205246124973       -5.23676438440839        0.75601979720391
H            2.43192942674379       -7.61730790323958        0.25751085635447
H            4.43194183667392       -8.34478641302585       -0.99623740000775
H            6.07318665057301       -6.66357721448456       -1.75755992096181
H            5.71522054555908       -4.27982199455943       -1.28224830429850
H            3.87002661690893       -0.76760956705530       -0.84048395631533
H            5.74825310718562        0.76806861527796       -0.46620281704094
H            7.69577061696672        0.04798340906954        0.87401341421332
H            7.75965809764507       -2.24021693398547        1.80076261546281
H            5.88553786326189       -3.78674259825562        1.41377192887624
H            1.62579745836757       -3.85573275029864       -1.55717505648471
H           -0.57228061456482       -2.75370154737700       -1.56306596158189
H           -9.95269618335200       -3.56214690524571       -0.13755341008378
H          -10.69016406287200       -1.06118017315637       -0.02518893294941
H          -10.62705304645731        1.52265525370950        0.09049922414451
H           -9.76912655548153        3.98541471245479        0.19330236413728
H            0.54871888516632        0.44321959247465       -1.86166260605049
H            2.77693885144658        1.48107317526660       -1.91242027959647
H            2.50488355811774        4.25219628100332       -2.05492274534727
H            3.50507523839054        5.10444507776067       -4.12825383461376

          :  Hamiltonian                  GFN2-xTB          :
         :: gradient norm              0.000058124939 Eh/a0 ::
         :: HOMO-LUMO gap              1.261726080282 eV    ::
         :: SCC energy              -149.571936727177 Eh    ::
         :: -> dispersion             -0.144981331295 Eh    ::
         :: repulsion energy           2.653865198699 Eh    ::

    * Orbital Energies and Occupations

         #    Occupation            Energy/Eh            Energy/eV
      -------------------------------------------------------------
         1        2.0000           -0.7313766             -19.9018
       ...           ...                  ...                  ...
       125        2.0000           -0.4067811             -11.0691
       126        2.0000           -0.4067019             -11.0669
       127        2.0000           -0.4053586             -11.0304
       128        2.0000           -0.4043709             -11.0035
       129        2.0000           -0.4038268             -10.9887
       130        2.0000           -0.4031227             -10.9695
       131        2.0000           -0.3981181             -10.8333
       132        2.0000           -0.3921975             -10.6722
       133        2.0000           -0.3819043             -10.3921
       134        2.0000           -0.3780842             -10.2882
       135        2.0000           -0.3505996              -9.5403
       136        2.0000           -0.3489187              -9.4946
       137        2.0000           -0.3487890              -9.4910 (HOMO)
       138                         -0.3024214              -8.2293 (LUMO)
       139                         -0.2671534              -7.2696
       140                         -0.2433915              -6.6230
       141                         -0.2407344              -6.5507
       142                         -0.2304992              -6.2722
       143                         -0.2303610              -6.2684
       144                         -0.2296024              -6.2478
       145                         -0.2288602              -6.2276
       146                         -0.2272155              -6.1828
       147                         -0.2230146              -6.0685
       148                         -0.2224026              -6.0519
       ...                                ...                  ...
       276                          0.7349423              19.9988
      -------------------------------------------------------------
                  HL-Gap            0.0463676 Eh            1.2617 eV

     #   Z          covCN         q      C6AA      α(0)
     1   6 C        2.919    -0.040    28.986     8.829
     2   6 C        2.920    -0.030    28.739     8.791
     3   6 C        2.922    -0.050    29.240     8.868
     4   6 C        2.921     0.065    26.546     8.449
     5   7 N        2.752    -0.076    22.723     7.080
     6   6 C        2.926     0.066    26.532     8.447
     7   6 C        2.922    -0.047    29.178     8.858
     8   6 C        2.920    -0.029    28.736     8.791
     9   6 C        2.919    -0.038    28.942     8.822
    10   6 C        2.920    -0.028    28.706     8.786
    11   6 C        2.923    -0.046    29.139     8.852
    12   6 C        2.927     0.065    26.535     8.448
    13   6 C        2.922    -0.046    29.141     8.852
    14   6 C        2.923    -0.033    28.814     8.803
    15   6 C        2.978     0.007    27.858     8.658
    16   6 C        2.977     0.011    27.776     8.645
    17   6 C        2.921    -0.048    29.187     8.859
    18   6 C        2.967     0.082    26.173     8.392
    19   7 N        1.847    -0.240    27.129     7.719
    20   6 C        2.984     0.079    26.238     8.402
    21   6 C        2.984     0.079    26.233     8.402
    22   7 N        1.848    -0.241    27.136     7.720
    23   6 C        2.967     0.082    26.176     8.392
    24   6 C        2.921    -0.048    29.201     8.862
    25   6 C        2.977     0.011    27.775     8.645
    26   6 C        2.978     0.004    27.919     8.667
    27   6 C        2.925    -0.031    28.773     8.797
    28   6 C        2.922    -0.047    29.172     8.857
    29   6 C        2.928     0.065    26.541     8.449
    30   7 N        2.753    -0.075    22.692     7.075
    31   6 C        2.921     0.065    26.549     8.450
    32   6 C        2.923    -0.049    29.217     8.864
    33   6 C        2.920    -0.029    28.729     8.790
    34   6 C        2.919    -0.039    28.973     8.827
    35   6 C        2.920    -0.029    28.730     8.790
    36   6 C        2.922    -0.049    29.216     8.864
    37   6 C        2.927     0.065    26.548     8.450
    38   6 C        2.923    -0.046    29.145     8.853
    39   6 C        2.920    -0.028    28.692     8.784
    40   6 C        2.919    -0.037    28.914     8.818
    41   6 C        2.920    -0.029    28.724     8.789
    42   6 C        2.922    -0.047    29.162     8.856
    43   6 C        2.920    -0.048    29.187     8.859
    44   6 C        2.923    -0.033    28.826     8.805
    45   6 C        3.010     0.003    27.931     8.669
    46  16 S        2.273     0.010   140.656    19.961
    47   6 C        2.942    -0.019    28.483     8.753
    48   6 C        3.083    -0.048    29.087     8.841
    49   6 C        3.156    -0.005    27.849     8.629
    50   6 C        3.156    -0.005    27.850     8.629
    51   6 C        3.083    -0.048    29.087     8.841
    52   6 C        2.942    -0.019    28.483     8.753
    53  16 S        2.273     0.010   140.662    19.961
    54   6 C        3.010     0.003    27.930     8.669
    55   6 C        2.924    -0.031    28.765     8.795
    56   6 C        2.920    -0.045    29.124     8.850
    57   6 C        2.923    -0.050    29.236     8.867
    58   6 C        2.920    -0.029    28.725     8.789
    59   1 H        0.926     0.029     2.600     2.521
    60   1 H        0.926     0.030     2.583     2.513
    61   1 H        0.926     0.030     2.590     2.517
    62   1 H        0.926     0.033     2.538     2.491
    63   1 H        0.926     0.032     2.559     2.502
    64   1 H        0.926     0.030     2.579     2.511
    65   1 H        0.926     0.030     2.586     2.515
    66   1 H        0.926     0.029     2.600     2.522
    67   1 H        0.926     0.035     2.512     2.478
    68   1 H        0.926     0.036     2.508     2.476
    69   1 H        0.926     0.053     2.282     2.362
    70   1 H        0.926     0.054     2.275     2.359
    71   1 H        0.926     0.032     2.553     2.499
    72   1 H        0.926     0.031     2.568     2.506
    73   1 H        0.926     0.031     2.572     2.508
    74   1 H        0.926     0.031     2.566     2.505
    75   1 H        0.926     0.030     2.590     2.517
    76   1 H        0.926     0.031     2.574     2.509
    77   1 H        0.926     0.031     2.576     2.510
    78   1 H        0.926     0.029     2.596     2.519
    79   1 H        0.926     0.033     2.545     2.495
    80   1 H        0.926     0.029     2.596     2.520
    81   1 H        0.926     0.032     2.554     2.499
    82   1 H        0.926     0.033     2.543     2.494
    83   1 H        0.926     0.036     2.505     2.475
    84   1 H        0.926     0.037     2.495     2.470
    85   1 H        0.926     0.051     2.305     2.374
    86   1 H        0.926     0.043     2.403     2.424
    87   1 H        0.926     0.043     2.403     2.424
    88   1 H        0.926     0.051     2.306     2.375
    89   1 H        0.926     0.032     2.558     2.501
    90   1 H        0.926     0.034     2.530     2.488
    91   1 H        0.926     0.030     2.590     2.517
    92   1 H        0.926     0.031     2.577     2.510

molecular dipole:
                 x           y           z       tot (Debye)
 q only:        0.194      -0.010       0.069
   full:       -0.032      -0.005       0.068       0.191

 projected vibrational frequencies (cm⁻¹)
eigval :       -0.00    -0.00     0.00     0.00     0.00     0.00
eigval :        8.73    12.42    14.20    14.58    21.16    23.36
eigval :       35.12    41.69    46.73    52.33    56.96    58.83
eigval :       63.96    69.72    74.47    78.38    79.45    88.91
eigval :       93.42   107.73   111.10   112.18   130.44   133.03
eigval :      135.97   156.17   178.82   189.38   209.20   213.25
eigval :      215.01   232.20   234.22   235.82   272.20   283.23
eigval :      294.66   302.00   307.48   319.80   330.85   331.57
eigval :      353.39   356.73   360.69   368.37   378.10   378.93
eigval :      379.70   382.27   385.01   388.84   390.30   395.95
eigval :      411.34   426.47   438.94   448.15   451.68   453.33
eigval :      478.78   486.32   490.09   492.96   494.58   505.29
eigval :      514.75   530.59   555.93   577.01   579.37   583.76
eigval :      585.98   587.62   590.30   591.28   593.40   597.82
eigval :      602.26   604.96   616.15   625.29   638.04   656.72
eigval :      659.00   659.33   664.84   666.86   673.88   688.31
eigval :      690.26   693.23   700.00   715.19   728.42   744.66
eigval :      756.25   756.39   756.78   759.24   761.78   762.14
eigval :      765.35   768.28   815.92   816.30   820.57   826.40
eigval :      831.46   843.37   845.51   854.74   869.86   872.05
eigval :      873.75   874.03   876.25   877.09   880.52   890.53
eigval :      890.82   891.97   894.22   900.34   910.15   910.93
eigval :      912.21   917.27   918.13   918.66   926.12   927.12
eigval :      927.21   927.87   928.29   928.44   929.17   929.82
eigval :      930.19   933.42   957.40   958.72   983.02   989.88
eigval :     1004.71  1005.50  1012.26  1023.96  1031.56  1070.27
eigval :     1074.63  1083.21  1083.87  1084.45  1085.35  1098.87
eigval :     1122.43  1122.69  1124.80  1126.21  1137.05  1140.23
eigval :     1143.17  1180.60  1180.80  1180.85  1181.38  1185.37
eigval :     1187.38  1192.80  1194.47  1195.15  1196.19  1197.86
eigval :     1212.00  1214.61  1216.32  1228.13  1249.72  1264.68
eigval :     1267.90  1271.04  1274.13  1279.12  1279.54  1280.94
eigval :     1283.39  1284.04  1311.82  1312.95  1319.13  1321.59
eigval :     1324.48  1326.71  1327.09  1327.88  1328.57  1330.03
eigval :     1336.93  1340.86  1372.19  1405.87  1407.53  1412.24
eigval :     1421.23  1429.64  1436.42  1436.71  1443.75  1444.23
eigval :     1462.01  1471.80  1472.79  1473.31  1477.53  1478.24
eigval :     1480.57  1489.00  1493.66  1499.17  1514.76  1528.64
eigval :     1542.42  1556.46  1558.21  1576.93  1577.59  1581.04
eigval :     1581.57  1590.31  1595.28  1595.55  1596.16  1600.19
eigval :     1602.36  1605.03  3074.68  3075.73  3075.94  3076.10
eigval :     3076.34  3076.61  3076.96  3077.36  3078.05  3078.19
eigval :     3080.06  3082.01  3085.08  3085.84  3086.76  3086.82
eigval :     3088.17  3089.04  3089.26  3089.82  3090.14  3090.53
eigval :     3092.89  3094.48  3095.36  3095.86  3097.45  3097.78
eigval :     3098.00  3104.31  3132.60  3136.57  3159.27  3159.55

   temp. (K)  partition function   enthalpy   heat capacity  entropy
                                   cal/mol     cal/K/mol   cal/K/mol   J/K/mol
 298.15  VIB  0.118E+23            27550.741    172.576    173.319
         ROT  0.187E+09              888.752      2.981     40.829
         INT  0.220E+31            28439.493    175.557    214.148
         TR   0.210E+29             1481.254      4.968     45.816
         TOT                       29920.7471   180.5255   259.9645  1087.6916

       T/K    H(0)-H(T)+PV         H(T)/Eh          T*S/Eh         G(T)/Eh
   ------------------------------------------------------------------------
    298.15    0.476817E-01    0.739160E+00    0.123518E+00    0.615642E+00
   ------------------------------------------------------------------------

         :::::::::::::::::::::::::::::::::::::::::::::::::::::
         ::                  THERMODYNAMIC                  ::
         :::::::::::::::::::::::::::::::::::::::::::::::::::::
         :: total free energy        -146.302429346444 Eh   ::
         ::.................................................::
         :: total energy             -146.918071528478 Eh   ::
         :: zero point energy           0.691477969841 Eh   ::
         :: G(RRHO) w/o ZPVE           -0.075835787808 Eh   ::
         :: G(RRHO) contrib.            0.615642182033 Eh   ::
         :::::::::::::::::::::::::::::::::::::::::::::::::::::

           -------------------------------------------------
          | TOTAL ENERGY             -146.918071528478 Eh   |
          | TOTAL ENTHALPY           -146.178911813133 Eh   |
          | TOTAL FREE ENERGY        -146.302429346444 Eh   |
          | GRADIENT NORM               0.000058123501 Eh/α |
          | HOMO-LUMO GAP               1.261725913941 eV   |
           -------------------------------------------------

 * finished run on 2025/09/11 at 08:16:20.572
