   * xtb version 6.7.1 (edcfbbe) compiled by 'albert@albert-system' on 2024-07-22

   ID    Z sym.   atoms
    1    6 C      1-4, 6-18, 20, 21, 23-29, 31-45, 47-52, 54-58
    2    7 N      5, 19, 22, 30
    3   16 S      46, 53
    4    1 H      59-92

          program call               : xtb data2507/gas/oDTPA-DTPZ/oDTPA-DTPZ.xyz --gfn 2 --ohess vtight --parallel 40 --molden --ceasefiles --namespace data2507/gas/oDTPA-DTPZ/oDTPA-DTPZ_gas_S0_preOpt
          :  Hamiltonian                  GFN2-xTB          :
 * total energy  :  -146.8800254 Eh     change       -0.1107878E-08 Eh
 * total energy  :  -146.8999613 Eh     change       -0.1993594E-01 Eh
 * total energy  :  -146.9084623 Eh     change       -0.8500950E-02 Eh
 * total energy  :  -146.9116364 Eh     change       -0.3174123E-02 Eh
 * total energy  :  -146.9139495 Eh     change       -0.2313061E-02 Eh
 * total energy  :  -146.9150959 Eh     change       -0.1146462E-02 Eh
 * total energy  :  -146.9155866 Eh     change       -0.4906321E-03 Eh
 * total energy  :  -146.9158795 Eh     change       -0.2928958E-03 Eh
 * total energy  :  -146.9160776 Eh     change       -0.1981334E-03 Eh
 * total energy  :  -146.9161774 Eh     change       -0.9978791E-04 Eh
 * total energy  :  -146.9170825 Eh     change       -0.7956577E-06 Eh
 * total energy  :  -146.9170833 Eh     change       -0.7917232E-06 Eh
 * total energy  :  -146.9170841 Eh     change       -0.7925563E-06 Eh
 * total energy  :  -146.9170849 Eh     change       -0.7845473E-06 Eh
 * total energy  :  -146.9170857 Eh     change       -0.7843340E-06 Eh
 * total energy  :  -146.9170865 Eh     change       -0.7783528E-06 Eh
 * total energy  :  -146.9170872 Eh     change       -0.7761405E-06 Eh
 * total energy  :  -146.9170880 Eh     change       -0.7706035E-06 Eh
 * total energy  :  -146.9170880 Eh     change       -0.7806364E-08 Eh
   *** GEOMETRY OPTIMIZATION CONVERGED AFTER 340 ITERATIONS ***

 final structure:
================
92
 xtb: 6.7.1 (edcfbbe)
C            2.50459934799421        7.90570688047414       -0.27141710515486
C            3.48469413713587        7.27232876959671        0.47494956512672
C            3.56060819271698        5.89351932344587        0.50722415045816
C            2.65507982176744        5.12322387300470       -0.22196565075929
N            2.71654961690082        3.72608037524275       -0.20391899345814
C            3.94067412234320        3.06550284676128       -0.06310164134606
C            4.03686028641968        1.91756080064144        0.72384710220290
C            5.25660886219146        1.29461490402086        0.89911707089270
C            6.39456513387103        1.79766269876296        0.28983759295375
C            6.30066301557030        2.92345529447900       -0.51159587591510
C            5.08531526862514        3.55456172840618       -0.69206645398816
C            1.52761790839674        2.98769036375331       -0.20207884943417
C            0.44198020825582        3.39991268206255        0.56952779233180
C           -0.71665606872553        2.65497619809914        0.59147577988953
C           -0.83462454971349        1.48343814209470       -0.15618557226314
C           -2.08312010849352        0.71062431009484       -0.07956029722071
C           -3.27687098150844        1.38465779994173       -0.15570174541838
C           -4.50992218027960        0.70986895919162       -0.08020894134918
N           -5.65478769509977        1.39743593992345       -0.15998143712496
C           -6.78423488604023        0.71659028982244       -0.08249065389506
C           -6.78409097908434       -0.71796873040198        0.08239279202481
N           -5.65450720183341       -1.39858553768507        0.15990315395490
C           -4.50977961528093       -0.71078674886837        0.08014948409788
C           -3.27659291176557       -1.38532596286079        0.15566044925989
C           -2.08297739452294       -0.71105091999095        0.07953559861314
C           -0.83432624392983       -1.48361151611252        0.15617911035543
C            0.24155782476659       -1.09555192821891        0.95453196372376
C            1.40916754858581       -1.82910936285158        0.97041704686508
C            1.52822192344371       -2.98738243216177        0.20210538253445
N            2.71730476390819       -3.72552911006160        0.20396098525523
C            3.94129545267380       -3.06470072148273        0.06315752864669
C            4.03725530950457       -1.91673930081855       -0.72379061875196
C            5.25687806646684       -1.29354319863005       -0.89904658773501
C            6.39493043833061       -1.79635728296993       -0.28975368501454
C            6.30124993516889       -2.92216877168187        0.51167916960665
C            5.08602957962619       -3.55352443573579        0.69213592602154
C            2.65612088130587       -5.12268511066916        0.22200827508375
C            1.67172729459305       -5.76593590943413        0.97286754954152
C            1.59894045856521       -7.14484927203649        0.99096502638889
C            2.50620979621012       -7.90519883561872        0.27146115265928
C            3.48618412860224       -7.27162084175322       -0.47489403955600
C            3.56181611943434       -5.89279591536744       -0.50716932907735
C            0.44267859966992       -3.39982661559431       -0.56951544404624
C           -0.71610909739800       -2.65512611143740       -0.59147969418619
C           -8.03701331170669       -1.37758822918877        0.15759465851315
S           -8.24994344225188       -3.08396104589576        0.35174896140895
C           -9.96176808814679       -2.88811245747078        0.32833006142950
C          -10.35518815512721       -1.59893218847852        0.18136990594036
C           -9.25578164342001       -0.70959216670590        0.08074421429349
C           -9.25592380185035        0.70771277693634       -0.08088823604022
C          -10.35550864342249        1.59682989533845       -0.18153520836713
C           -9.96234709879072        2.88608985244091       -0.32848812237648
S           -8.25056174123787        3.08228542333719       -0.35187448748395
C           -8.03728945467560        1.37595587639455       -0.15771555153602
C            0.24134965926382        1.09559781972781       -0.95452346590533
C            1.40881014687262        1.82939313994616       -0.97039229338419
C            1.67056395956005        5.76627389257576       -0.97283658407160
C            1.59749485373207        7.14517233429905       -0.99093331605453
H            2.44724456534948        8.98336478648234       -0.29082736564815
H            4.19136122907101        7.85651611692943        1.04604878974280
H            4.31767771640663        5.40449147624103        1.10254152992345
H            3.15227018807899        1.52886615906511        1.20686561488526
H            5.32173521909020        0.41526540366685        1.52242608076447
H            7.34764319938178        1.31370393057169        0.43787746193356
H            7.18028939525105        3.31383762453698       -1.00238709605019
H            5.01345621630247        4.43293288445117       -1.31671945738615
H            0.52343588789697        4.29892940978783        1.16278101629799
H           -1.53590441943992        2.96453147869609        1.22358900185286
H           -3.30167054797479        2.45400322763614       -0.30042695075647
H           -3.30117809801345       -2.45467638959825        0.30038533304391
H            0.15458207933528       -0.22087351807966        1.58154065182505
H            2.24162944201791       -1.51502774910619        1.58301318423939
H            3.15259113741703       -1.52822637268629       -1.20681965871168
H            5.32183127717565       -0.41418055162353       -1.52235512545953
H            7.34791088755979       -1.31220299952893       -0.43778264419182
H            7.18095067128545       -3.31237041768225        1.00248080389760
H            5.01434347694592       -4.43190997338340        1.31678857503450
H            0.96816895648789       -5.17540993051018        1.54141013938043
H            0.83241302852871       -7.62923158315154        1.57786741094008
H            2.44907560398135       -8.98286844750734        0.29087205445826
H            4.19297801971442       -7.85566408765725       -1.04598373858155
H            4.31879286188629       -5.40361370686152       -1.10247786857990
H            0.52432549888433       -4.29882711299370       -1.16276698100608
H           -1.53528577329928       -2.96484863449080       -1.22360388236947
H          -10.58462677833852       -3.75558141407631        0.42658576496275
H          -11.38299654954465       -1.28671665288327        0.14511903555461
H          -11.38325442524413        1.28440602811776       -0.14530404639653
H          -10.58537974864942        3.75343250200165       -0.42675603830909
H            0.15456075197099        0.22090184273939       -1.58153355013804
H            2.24134436853461        1.51548135452975       -1.58297718846500
H            0.96713374548370        5.17560448544037       -1.54138871428545
H            0.83087554834531        7.62939830031614       -1.57784471156881

          :  Hamiltonian                  GFN2-xTB          :
         :: gradient norm              0.000077803155 Eh/a0 ::
         :: HOMO-LUMO gap              1.246393505037 eV    ::
         :: SCC energy              -149.569142938053 Eh    ::
         :: -> dispersion             -0.143156270334 Eh    ::
         :: repulsion energy           2.652054914829 Eh    ::

    * Orbital Energies and Occupations

         #    Occupation            Energy/Eh            Energy/eV
      -------------------------------------------------------------
         1        2.0000           -0.7310425             -19.8927
       ...           ...                  ...                  ...
       125        2.0000           -0.4060631             -11.0495
       126        2.0000           -0.4058787             -11.0445
       127        2.0000           -0.4049904             -11.0203
       128        2.0000           -0.4044688             -11.0062
       129        2.0000           -0.4042969             -11.0015
       130        2.0000           -0.4027320             -10.9589
       131        2.0000           -0.3977779             -10.8241
       132        2.0000           -0.3911632             -10.6441
       133        2.0000           -0.3814189             -10.3789
       134        2.0000           -0.3774764             -10.2717
       135        2.0000           -0.3510625              -9.5529
       136        2.0000           -0.3484316              -9.4813
       137        2.0000           -0.3482822              -9.4772 (HOMO)
       138                         -0.3024781              -8.2308 (LUMO)
       139                         -0.2675050              -7.2792
       140                         -0.2461352              -6.6977
       141                         -0.2410733              -6.5599
       142                         -0.2322483              -6.3198
       143                         -0.2302595              -6.2657
       144                         -0.2295136              -6.2454
       145                         -0.2263680              -6.1598
       146                         -0.2255104              -6.1364
       147                         -0.2255000              -6.1362
       148                         -0.2216412              -6.0312
       ...                                ...                  ...
       276                          0.7352493              20.0072
      -------------------------------------------------------------
                  HL-Gap            0.0458041 Eh            1.2464 eV

     #   Z          covCN         q      C6AA      α(0)
     1   6 C        2.919    -0.039    28.960     8.825
     2   6 C        2.920    -0.029    28.731     8.790
     3   6 C        2.922    -0.048    29.203     8.862
     4   6 C        2.924     0.065    26.546     8.449
     5   7 N        2.753    -0.076    22.720     7.079
     6   6 C        2.924     0.065    26.541     8.448
     7   6 C        2.923    -0.047    29.180     8.858
     8   6 C        2.919    -0.027    28.664     8.780
     9   6 C        2.919    -0.037    28.932     8.821
    10   6 C        2.919    -0.030    28.741     8.791
    11   6 C        2.922    -0.048    29.196     8.861
    12   6 C        2.927     0.065    26.534     8.447
    13   6 C        2.920    -0.047    29.157     8.855
    14   6 C        2.926    -0.034    28.851     8.809
    15   6 C        2.978     0.006    27.892     8.663
    16   6 C        2.974     0.010    27.783     8.646
    17   6 C        2.925    -0.049    29.225     8.866
    18   6 C        2.967     0.081    26.180     8.393
    19   7 N        1.847    -0.241    27.155     7.723
    20   6 C        2.985     0.079    26.233     8.402
    21   6 C        2.985     0.079    26.233     8.402
    22   7 N        1.847    -0.241    27.155     7.723
    23   6 C        2.967     0.081    26.180     8.393
    24   6 C        2.925    -0.049    29.225     8.866
    25   6 C        2.974     0.010    27.783     8.646
    26   6 C        2.978     0.006    27.892     8.663
    27   6 C        2.922    -0.029    28.735     8.791
    28   6 C        2.920    -0.046    29.140     8.852
    29   6 C        2.927     0.065    26.534     8.447
    30   7 N        2.753    -0.076    22.720     7.079
    31   6 C        2.924     0.065    26.541     8.448
    32   6 C        2.923    -0.047    29.180     8.858
    33   6 C        2.919    -0.027    28.664     8.780
    34   6 C        2.919    -0.037    28.932     8.821
    35   6 C        2.919    -0.030    28.741     8.791
    36   6 C        2.922    -0.048    29.196     8.861
    37   6 C        2.924     0.065    26.546     8.449
    38   6 C        2.923    -0.048    29.194     8.861
    39   6 C        2.919    -0.029    28.724     8.789
    40   6 C        2.919    -0.039    28.960     8.825
    41   6 C        2.920    -0.029    28.731     8.790
    42   6 C        2.922    -0.048    29.203     8.862
    43   6 C        2.920    -0.047    29.157     8.855
    44   6 C        2.926    -0.034    28.851     8.809
    45   6 C        3.010     0.003    27.931     8.669
    46  16 S        2.273     0.009   140.677    19.962
    47   6 C        2.942    -0.019    28.483     8.753
    48   6 C        3.083    -0.048    29.087     8.841
    49   6 C        3.156    -0.005    27.851     8.630
    50   6 C        3.156    -0.005    27.851     8.630
    51   6 C        3.083    -0.048    29.087     8.841
    52   6 C        2.942    -0.019    28.483     8.753
    53  16 S        2.273     0.009   140.677    19.962
    54   6 C        3.010     0.003    27.931     8.669
    55   6 C        2.922    -0.029    28.735     8.791
    56   6 C        2.920    -0.046    29.140     8.852
    57   6 C        2.923    -0.048    29.194     8.861
    58   6 C        2.919    -0.029    28.724     8.789
    59   1 H        0.926     0.030     2.584     2.514
    60   1 H        0.926     0.031     2.570     2.507
    61   1 H        0.926     0.031     2.566     2.505
    62   1 H        0.926     0.028     2.614     2.528
    63   1 H        0.926     0.030     2.589     2.516
    64   1 H        0.926     0.030     2.588     2.516
    65   1 H        0.926     0.031     2.569     2.506
    66   1 H        0.926     0.032     2.552     2.498
    67   1 H        0.926     0.035     2.515     2.480
    68   1 H        0.926     0.038     2.481     2.463
    69   1 H        0.926     0.053     2.277     2.360
    70   1 H        0.926     0.053     2.277     2.360
    71   1 H        0.926     0.033     2.549     2.497
    72   1 H        0.926     0.033     2.538     2.491
    73   1 H        0.926     0.028     2.614     2.528
    74   1 H        0.926     0.030     2.589     2.516
    75   1 H        0.926     0.030     2.588     2.516
    76   1 H        0.926     0.031     2.569     2.506
    77   1 H        0.926     0.032     2.552     2.498
    78   1 H        0.926     0.031     2.575     2.509
    79   1 H        0.926     0.032     2.559     2.502
    80   1 H        0.926     0.030     2.584     2.514
    81   1 H        0.926     0.031     2.570     2.507
    82   1 H        0.926     0.031     2.566     2.505
    83   1 H        0.926     0.035     2.515     2.480
    84   1 H        0.926     0.038     2.481     2.463
    85   1 H        0.926     0.051     2.308     2.375
    86   1 H        0.926     0.043     2.405     2.425
    87   1 H        0.926     0.043     2.405     2.425
    88   1 H        0.926     0.051     2.308     2.375
    89   1 H        0.926     0.033     2.549     2.497
    90   1 H        0.926     0.033     2.538     2.491
    91   1 H        0.926     0.031     2.575     2.509
    92   1 H        0.926     0.032     2.559     2.502

molecular dipole:
                 x           y           z       tot (Debye)
 q only:        0.239       0.000      -0.000
   full:        0.002       0.000      -0.000       0.005

 projected vibrational frequencies (cm⁻¹)
eigval :       -0.00    -0.00     0.00     0.00     0.00     0.00
eigval :        5.90    11.06    13.28    14.36    20.95    30.92
eigval :       39.94    42.49    43.91    45.87    54.68    57.74
eigval :       61.02    75.12    77.69    79.02    86.20    93.71
eigval :      100.44   105.83   109.15   119.74   132.22   141.95
eigval :      143.87   157.14   180.79   187.54   204.96   210.33
eigval :      221.84   234.04   234.60   238.10   269.27   282.37
eigval :      296.18   302.92   307.70   320.34   331.13   331.53
eigval :      353.98   359.77   366.50   370.39   377.38   379.27
eigval :      381.23   382.07   386.37   387.80   393.73   396.66
eigval :      411.88   423.16   439.77   450.72   451.69   452.88
eigval :      478.27   487.39   492.44   494.80   495.08   509.80
eigval :      512.55   532.41   555.97   576.62   581.10   584.11
eigval :      585.67   587.31   590.31   590.51   593.81   599.69
eigval :      601.55   605.81   614.54   628.47   637.52   655.44
eigval :      657.94   658.72   663.93   665.45   673.09   688.31
eigval :      691.27   692.97   700.87   715.67   728.92   742.91
eigval :      755.99   756.80   756.92   759.59   761.59   762.69
eigval :      765.80   768.09   815.14   817.41   820.40   826.33
eigval :      831.39   845.52   847.63   857.45   868.64   872.15
eigval :      872.62   873.61   875.43   875.62   883.57   889.20
eigval :      891.10   891.53   894.08   900.24   910.55   910.68
eigval :      912.49   917.46   917.87   922.32   926.62   926.95
eigval :      927.89   928.25   928.95   929.32   930.05   930.83
eigval :      931.58   931.93   958.09   958.52   983.18   990.31
eigval :     1004.84  1005.07  1013.24  1025.44  1031.33  1072.45
eigval :     1074.64  1083.83  1083.85  1084.68  1084.72  1098.96
eigval :     1121.97  1122.11  1124.73  1124.90  1139.97  1140.29
eigval :     1143.25  1179.44  1180.06  1180.82  1180.83  1185.32
eigval :     1187.56  1195.12  1196.15  1196.31  1197.05  1203.39
eigval :     1214.24  1214.93  1216.80  1228.22  1253.05  1266.87
eigval :     1267.34  1273.71  1275.14  1278.96  1279.19  1282.90
eigval :     1283.01  1283.97  1312.24  1314.04  1320.87  1322.89
eigval :     1324.38  1325.81  1325.90  1325.94  1328.47  1328.58
eigval :     1337.85  1341.04  1375.94  1403.71  1406.86  1412.26
eigval :     1420.75  1429.39  1436.20  1436.26  1443.79  1444.02
eigval :     1462.54  1471.12  1472.34  1472.57  1476.65  1477.98
eigval :     1480.49  1487.48  1492.82  1498.12  1512.91  1523.67
eigval :     1540.21  1554.47  1554.70  1577.02  1577.09  1580.71
eigval :     1581.16  1582.92  1592.52  1595.01  1595.86  1598.06
eigval :     1601.43  1603.10  3075.45  3075.58  3076.16  3076.24
eigval :     3077.08  3077.09  3077.88  3078.86  3079.22  3079.46
eigval :     3080.92  3081.42  3086.01  3086.42  3086.85  3087.53
eigval :     3088.94  3089.40  3089.90  3090.56  3090.87  3091.34
eigval :     3093.42  3093.48  3095.91  3096.21  3097.69  3097.80
eigval :     3098.69  3100.44  3132.56  3136.53  3159.25  3159.52

   temp. (K)  partition function   enthalpy   heat capacity  entropy
                                   cal/mol     cal/K/mol   cal/K/mol   J/K/mol
 298.15  VIB  0.122E+23            27479.285    172.500    172.892
         ROT  0.102E+09              888.752      2.981     39.628
         INT  0.124E+31            28368.037    175.481    212.520
         TR   0.210E+29             1481.254      4.968     45.816
         TOT                       29849.2913   180.4490   258.3360  1080.8779

       T/K    H(0)-H(T)+PV         H(T)/Eh          T*S/Eh         G(T)/Eh
   ------------------------------------------------------------------------
    298.15    0.475679E-01    0.739243E+00    0.122744E+00    0.616499E+00
   ------------------------------------------------------------------------

         :::::::::::::::::::::::::::::::::::::::::::::::::::::
         ::                  THERMODYNAMIC                  ::
         :::::::::::::::::::::::::::::::::::::::::::::::::::::
         :: total free energy        -146.300589201529 Eh   ::
         ::.................................................::
         :: total energy             -146.917088023224 Eh   ::
         :: zero point energy           0.691674731947 Eh   ::
         :: G(RRHO) w/o ZPVE           -0.075175910252 Eh   ::
         :: G(RRHO) contrib.            0.616498821695 Eh   ::
         :::::::::::::::::::::::::::::::::::::::::::::::::::::

           -------------------------------------------------
          | TOTAL ENERGY             -146.917088023224 Eh   |
          | TOTAL ENTHALPY           -146.177845417826 Eh   |
          | TOTAL FREE ENERGY        -146.300589201529 Eh   |
          | GRADIENT NORM               0.000077803584 Eh/α |
          | HOMO-LUMO GAP               1.246393238120 eV   |
           -------------------------------------------------

 * finished run on 2025/09/11 at 08:07:13.013
