   * xtb version 6.7.1 (edcfbbe) compiled by 'albert@albert-system' on 2024-07-22

   ID    Z sym.   atoms
    1    6 C      1-4, 6-18, 20, 21, 23-29, 31-45, 47-52, 54-58
    2    7 N      5, 19, 22, 30
    3   16 S      46, 53
    4    1 H      59-92

          program call               : xtb data2507/gas/oDTPA-DTPZ/oDTPA-DTPZ_gas_T1_crest.xyz --gfn 2 --spinpol --tblite --uhf 2 --ohess vtight --parallel 40 --molden --ceasefiles --namespace data2507/gas/oDTPA-DTPZ/oDTPA-DTPZ_gas_T1_finalOpt
 * total energy  :  -146.8756203 Eh     change       -0.1346336E-08 Eh
 * total energy  :  -146.8756403 Eh     change       -0.1998614E-04 Eh
 * total energy  :  -146.8756447 Eh     change       -0.4416396E-05 Eh
 * total energy  :  -146.8756466 Eh     change       -0.1878126E-05 Eh
 * total energy  :  -146.8756489 Eh     change       -0.2318949E-05 Eh
 * total energy  :  -146.8756503 Eh     change       -0.1418259E-05 Eh
 * total energy  :  -146.8756520 Eh     change       -0.1708326E-05 Eh
 * total energy  :  -146.8756539 Eh     change       -0.1872126E-05 Eh
 * total energy  :  -146.8756558 Eh     change       -0.1868076E-05 Eh
 * total energy  :  -146.8756575 Eh     change       -0.1713686E-05 Eh
 * total energy  :  -146.8756619 Eh     change       -0.9343786E-06 Eh
 * total energy  :  -146.8756631 Eh     change       -0.1212376E-05 Eh
 * total energy  :  -146.8756643 Eh     change       -0.1153955E-05 Eh
 * total energy  :  -146.8756653 Eh     change       -0.9723454E-06 Eh
 * total energy  :  -146.8756658 Eh     change       -0.5683482E-06 Eh
 * total energy  :  -146.8756665 Eh     change       -0.6252450E-06 Eh
 * total energy  :  -146.8756670 Eh     change       -0.5265661E-06 Eh
 * total energy  :  -146.8756673 Eh     change       -0.2602887E-06 Eh
 * total energy  :  -146.8756673 Eh     change       -0.1702904E-07 Eh
   *** GEOMETRY OPTIMIZATION CONVERGED AFTER 22 ITERATIONS ***

 final structure:
================
92
 xtb: 6.7.1 (edcfbbe)
C            3.78699857792273        7.68997021735951        0.10311930411919
C            4.64667750005809        7.00508796259498       -0.74026554465494
C            4.62549436526345        5.62524959188962       -0.79445256853198
C            3.74241717550243        4.90469310462531        0.01033642412456
N            3.69844588273694        3.50937617445758       -0.02449243940858
C            4.82939238063645        2.74902995872676       -0.32646963995859
C            6.09182439860925        3.14275838594924        0.11870172831956
C            7.21110318667988        2.41302887525676       -0.23074786040151
C            7.09353428152490        1.27676627938684       -1.01407248920651
C            5.83884881977746        0.86035755812331       -1.42737967109765
C            4.71427110694173        1.58560581734353       -1.08989825431441
C            2.45450060758163        2.86540881748029        0.08060843962824
C            2.30727710686940        1.74834974732683        0.90140936234929
C            1.10709558752776        1.07198837611132        0.94833090511439
C            0.02957567976543        1.47332058928354        0.15688617473966
C           -1.21722827987235        0.69914300364398        0.08559566279428
C           -2.43090176131924        1.37091714406643        0.15858501069476
C           -3.65213563854213        0.71062301037742        0.08715681447693
N           -4.82048198747560        1.34098105991781        0.15944651487922
C           -5.97734537866856        0.70280447230677        0.08681352188871
C           -5.97252219627938       -0.73639108834468       -0.07766811015088
N           -4.81134347549988       -1.36710355475975       -0.14629044868643
C           -3.64748399028509       -0.72895197517369       -0.07246240856696
C           -2.42191677144222       -1.38118630830677       -0.14329159783641
C           -1.21294738836828       -0.70125918963955       -0.07126102813486
C            0.03791226489050       -1.46885662294469       -0.14406797725048
C            0.18487232434101       -2.61757938719964        0.63265500856973
C            1.37942643684773       -3.30498779888184        0.66639303981992
C            2.46865109192006       -2.85142827728376       -0.07461869822094
N            3.71409044532525       -3.49177789962021        0.02449645042161
C            3.75994457696502       -4.88780402343582        0.02241561776139
C            2.88440946664666       -5.60531751372485       -0.79417786565715
C            2.91013866143616       -6.98578856884529       -0.79993311964261
C            3.80799311044029       -7.67430958307975       -0.00041579635519
C            4.67702998875196       -6.96723614274869        0.81457577375752
C            4.65431901833146       -5.58648115201613        0.83390162688693
C            4.85139026660320       -2.72572619219625        0.28678675869730
C            6.10357087554515       -3.12995032187232       -0.17728266170791
C            7.23048100837649       -2.39395242817417        0.13224821668305
C            7.13033273107526       -1.24176922548194        0.89439917174276
C            5.88526423105492       -0.81631120952221        1.32724168330762
C            4.75333604793923       -1.54738487508742        1.02924990492507
C            2.31123052957480       -1.74077774818337       -0.90260479064021
C            1.10858704955872       -1.06853037725006       -0.94506504198338
C           -7.21037097029345       -1.38672180701327       -0.15494518550618
S           -7.41507000864563       -3.10365093586371       -0.35210890492569
C           -9.13313166689389       -2.91451571589104       -0.33526357995588
C           -9.53373354255935       -1.63044253976007       -0.18917339144371
C           -8.44480359569227       -0.72619175921788       -0.08242742507366
C           -8.44958318612778        0.67689053843860        0.07851421602757
C           -9.54477856805511        1.57434560571310        0.17823575352598
C           -9.15312576766638        2.86093246787972        0.32641479185122
S           -7.43642205707565        3.06081012005723        0.35373615081734
C           -7.21973980983738        1.34516233529579        0.15818596500467
C            0.16669705595425        2.62875693838175       -0.61181496279469
C            1.35817620562378        3.32158788475676       -0.64790023539474
C            2.87539997592846        5.60008205125025        0.85480090691957
C            2.89943489249806        6.97997985611421        0.89529456462682
H            3.80654223043967        8.76843023475720        0.14020793096367
H            5.33390490649740        7.55041498409818       -1.37037292114756
H            5.28480545265204        5.09779104111153       -1.46794147873538
H            6.18658516318666        4.02514833257807        0.73455157728557
H            8.18305134734348        2.73465247813069        0.11400356056115
H            7.97074079366705        0.71620280177979       -1.29743148846480
H            5.73953143672797       -0.03237215173726       -2.02710422705910
H            3.73917341287108        1.26825759634662       -1.42870369809922
H            3.14768023632414        1.41576660574237        1.49281863353397
H            0.99830367483142        0.22242235477749        1.60573232830739
H           -2.45001926269196        2.44028049594816        0.30316082793476
H           -2.43366739939068       -2.45075365077991       -0.28721086169359
H           -0.63665268430015       -2.94730314526592        1.25136562615584
H            1.48929505801336       -4.17953148145086        1.29105858975123
H            2.18877558110677       -5.06976372671924       -1.42356696225681
H            2.22863986149236       -7.52783788229288       -1.43881443895911
H            3.82835591153613       -8.75335174623339       -0.00995584335357
H            5.37275130019035       -7.49554105725880        1.44983145660628
H            5.32127754103024       -5.04100492042702        1.48516756336890
H            6.18439521845401       -4.02535113175434       -0.77610782478981
H            8.19453520914420       -2.72331162852928       -0.22702103005731
H            8.01369797920684       -0.67603369404791        1.14660205387941
H            5.79954111854757        0.08849654874329        1.91070756947235
H            3.78588429835751       -1.22279225305249        1.38277977148700
H            3.14581258894532       -1.40953238303434       -1.50292765811229
H            0.99218551011128       -0.22314069563070       -1.60662094302239
H           -9.74730206841556       -3.78766730389798       -0.43714322718063
H          -10.56438757641054       -1.32658712818380       -0.15731725383624
H          -10.57329055046231        1.26404235748058        0.13994171601494
H           -9.77337416539689        3.73024197923599        0.42422318093300
H           -0.66007478204098        2.96000174827140       -1.22264173533380
H            1.46034309789515        4.20212325942523       -1.26545075419952
H            2.18802155210900        5.04768598407167        1.47869051056752
H            2.22496469189849        7.50455486169278        1.55586111350920

 projected vibrational frequencies (cm⁻¹)
eigval :       -0.00     0.00     0.00     0.00     0.00     0.00
eigval :        9.78    10.20    14.10    16.35    20.99    36.79
eigval :       41.69    42.16    44.31    46.05    57.36    57.75
eigval :       61.45    75.84    77.59    81.23    91.96    93.35
eigval :       97.13   104.12   109.36   116.26   134.22   139.16
eigval :      147.06   158.64   179.79   193.94   205.81   212.81
eigval :      213.60   224.78   232.79   237.72   262.21   279.41
eigval :      286.00   303.78   308.52   317.37   327.06   330.10
eigval :      342.53   353.35   358.91   363.30   372.66   376.10
eigval :      378.93   381.92   384.71   386.25   395.23   396.01
eigval :      414.25   422.98   434.29   435.52   451.10   453.10
eigval :      475.31   487.02   491.95   493.01   494.00   507.35
eigval :      512.69   530.89   551.64   569.55   574.25   575.68
eigval :      583.47   586.15   588.42   590.12   593.37   597.76
eigval :      598.27   601.87   610.62   613.43   627.22   642.14
eigval :      654.32   656.59   657.70   658.79   662.39   671.61
eigval :      674.36   681.56   683.32   698.54   703.62   723.20
eigval :      741.65   748.96   754.59   754.77   756.78   759.17
eigval :      760.37   763.31   810.32   811.93   814.29   819.55
eigval :      824.20   829.17   833.97   836.87   842.56   867.55
eigval :      868.12   870.53   870.97   871.95   874.74   874.88
eigval :      888.62   890.78   892.11   895.93   900.08   910.08
eigval :      910.58   915.66   918.21   920.17   924.16   925.31
eigval :      926.67   927.22   927.70   927.79   928.53   930.69
eigval :      932.13   932.85   951.51   954.45   983.15   989.09
eigval :     1004.28  1004.53  1013.99  1019.19  1030.82  1074.00
eigval :     1076.11  1083.99  1084.04  1085.57  1085.72  1095.92
eigval :     1122.91  1122.99  1125.85  1126.08  1137.78  1138.02
eigval :     1140.35  1180.40  1180.46  1180.48  1180.78  1183.11
eigval :     1185.79  1193.73  1194.14  1196.60  1197.66  1201.23
eigval :     1209.89  1213.82  1215.16  1223.74  1237.53  1245.84
eigval :     1263.28  1268.07  1268.93  1270.79  1275.71  1278.82
eigval :     1279.00  1282.62  1283.89  1310.10  1313.69  1315.61
eigval :     1317.96  1321.40  1324.48  1324.98  1326.28  1329.01
eigval :     1329.63  1333.23  1358.48  1388.40  1394.22  1403.56
eigval :     1410.54  1412.78  1416.17  1435.65  1436.16  1444.10
eigval :     1444.41  1470.55  1471.14  1473.05  1473.31  1474.60
eigval :     1482.51  1488.98  1493.39  1497.50  1513.89  1527.37
eigval :     1534.21  1543.93  1553.66  1554.38  1574.90  1575.03
eigval :     1579.06  1579.18  1588.31  1591.22  1592.24  1592.57
eigval :     1598.59  1599.79  3075.90  3076.04  3077.11  3077.20
eigval :     3077.43  3077.55  3077.99  3078.05  3079.08  3079.19
eigval :     3080.85  3081.78  3087.06  3087.28  3088.24  3088.44
eigval :     3089.86  3090.09  3090.25  3090.65  3090.71  3091.25
eigval :     3092.89  3093.06  3093.31  3093.74  3098.94  3099.01
eigval :     3100.13  3101.11  3129.78  3133.90  3158.58  3158.76

   temp. (K)  partition function   enthalpy   heat capacity  entropy
                                   cal/mol     cal/K/mol   cal/K/mol   J/K/mol
 298.15  VIB  0.612E+22            27644.475    173.948    173.212
         ROT  0.197E+09              888.752      2.981     40.938
         INT  0.121E+31            28533.227    176.929    214.150
         TR   0.210E+29             1481.254      4.968     45.816
         TOT                       30014.4808   181.8972   259.9666  1087.7004

       T/K    H(0)-H(T)+PV         H(T)/Eh          T*S/Eh         G(T)/Eh
   ------------------------------------------------------------------------
    298.15    0.478311E-01    0.737322E+00    0.123519E+00    0.613804E+00
   ------------------------------------------------------------------------

         :::::::::::::::::::::::::::::::::::::::::::::::::::::
         ::                  THERMODYNAMIC                  ::
         :::::::::::::::::::::::::::::::::::::::::::::::::::::
         :: total free energy        -146.261863776643 Eh   ::
         ::.................................................::
         :: total energy             -146.875667277315 Eh   ::
         :: zero point energy           0.689490915056 Eh   ::
         :: G(RRHO) w/o ZPVE           -0.075687414384 Eh   ::
         :: G(RRHO) contrib.            0.613803500672 Eh   ::
         :::::::::::::::::::::::::::::::::::::::::::::::::::::

           -------------------------------------------------
          | TOTAL ENERGY             -146.875667277315 Eh   |
          | TOTAL ENTHALPY           -146.138345242509 Eh   |
          | TOTAL FREE ENERGY        -146.261863776643 Eh   |
          | GRADIENT NORM               0.000071430270 Eh/α |
           -------------------------------------------------

 * finished run on 2025/09/11 at 08:32:43.900
