   * xtb version 6.7.1 (edcfbbe) compiled by 'albert@albert-system' on 2024-07-22

   ID    Z sym.   atoms
    1    6 C      1-4, 6-18, 20, 21, 23-29, 31-45, 47-52, 54-58
    2    7 N      5, 19, 22, 30
    3   16 S      46, 53
    4    1 H      59-92

          program call               : xtb data2507/gas/oDTPA-DTPZ/oDTPA-DTPZ_gas_S0_finalOpt.xtbopt.xyz --gfn 2 --spinpol --tblite --uhf 2 --ohess vtight --parallel 40 --molden --ceasefiles --namespace data2507/gas/oDTPA-DTPZ/oDTPA-DTPZ_gas_T1_preOpt
 * total energy  :  -146.8712737 Eh     change       -0.2212630E-08 Eh
 * total energy  :  -146.8743410 Eh     change       -0.3067320E-02 Eh
 * total energy  :  -146.8755024 Eh     change       -0.1161378E-02 Eh
 * total energy  :  -146.8756470 Eh     change       -0.1446296E-03 Eh
 * total energy  :  -146.8756998 Eh     change       -0.5281151E-04 Eh
 * total energy  :  -146.8757041 Eh     change       -0.4228499E-05 Eh
 * total energy  :  -146.8757063 Eh     change       -0.2221436E-05 Eh
 * total energy  :  -146.8757081 Eh     change       -0.1862593E-05 Eh
 * total energy  :  -146.8757096 Eh     change       -0.1492546E-05 Eh
 * total energy  :  -146.8757113 Eh     change       -0.1615464E-05 Eh
 * total energy  :  -146.8757138 Eh     change       -0.6545189E-06 Eh
 * total energy  :  -146.8757144 Eh     change       -0.6522511E-06 Eh
 * total energy  :  -146.8757150 Eh     change       -0.5244083E-06 Eh
 * total energy  :  -146.8757153 Eh     change       -0.3254882E-06 Eh
 * total energy  :  -146.8757157 Eh     change       -0.4294255E-06 Eh
 * total energy  :  -146.8757162 Eh     change       -0.4925702E-06 Eh
 * total energy  :  -146.8757167 Eh     change       -0.4473941E-06 Eh
 * total energy  :  -146.8757171 Eh     change       -0.4576586E-06 Eh
 * total energy  :  -146.8757172 Eh     change       -0.8014115E-07 Eh
   *** GEOMETRY OPTIMIZATION CONVERGED AFTER 22 ITERATIONS ***

 final structure:
================
92
 xtb: 6.7.1 (edcfbbe)
C            5.48359963281549        4.60002304293033       -3.58277062513287
C            6.29120060924065        4.02639894014248       -2.61457315317037
C            5.74410429626997        3.53101981850930       -1.44736298534100
C            4.36785128517748        3.60802708387915       -1.22555304900242
N            3.79713240891215        3.10867374526604       -0.05558926827304
C            4.50767709189928        3.07708493973427        1.14880037895188
C            5.35959294630242        4.12184270506103        1.50586265814544
C            6.06438867700424        4.06741254760824        2.69256005317890
C            5.92794822866904        2.98115769853360        3.54166657342177
C            5.07351296366823        1.94662515588806        3.19657533408900
C            4.36668344554689        1.98935672461010        2.01148549107240
C            2.50220824728290        2.56711207960387       -0.08091769485488
C            1.59339415899665        2.88252483171682        0.92754330099216
C            0.33590988910688        2.31420621416726        0.93583496427032
C           -0.03473275289945        1.39624394087461       -0.04267080846704
C           -1.33036021111533        0.69827795429650        0.01626388635838
C           -2.51472843307493        1.41635480305933        0.04556881955694
C           -3.75461033505684        0.78385214242033        0.03703491921122
N           -4.90398448722633        1.45089981773824        0.06435153230229
C           -6.08021972186814        0.84568228142804        0.04191895809957
C           -6.11903656918584       -0.60153771255062       -0.01341109812233
N           -4.97731675205235       -1.26884791416178       -0.04021165086172
C           -3.79305689648603       -0.66439684555261       -0.01568545564517
C           -2.58967219323541       -1.36239518626449       -0.02440074134724
C           -1.36700318632361       -0.70911231747887        0.00699377550887
C           -0.10913358368933       -1.46559946450771        0.07070275415964
C            0.84970268740130       -1.13490963684476        1.02911470747549
C            2.07869757411543       -1.75214741320737        1.03961822102475
C            2.39039367378985       -2.72085602688547        0.08452584500318
N            3.68214816084894       -3.25781418237848        0.04568781462049
C            3.88781605458867       -4.61159220891737       -0.21862137867973
C            2.96255184893867       -5.56247896938420        0.21454935938009
C            3.16414047457603       -6.90195927275410       -0.05329187910311
C            4.28894640264881       -7.31851976660453       -0.74669143486231
C            5.21235473330866       -6.37910658275937       -1.17602159224427
C            5.01656635542316       -5.03618501951749       -0.92097743516097
C            4.76118686251376       -2.38871278937545        0.25204756793021
C            4.72235499095229       -1.09510083774590       -0.26985031340751
C            5.77188963576416       -0.22512076352951       -0.05374738462587
C            6.87319289547177       -0.62567298469074        0.68502841102866
C            6.91959140117780       -1.91086480367496        1.20017919999999
C            5.87492678617172       -2.79021093183535        0.98819308602823
C            1.41144670429540       -3.10722742902576       -0.82961642068967
C            0.17672249484962       -2.48936481906315       -0.82840064401092
C           -7.37621253396663       -1.21802285772652       -0.03432285026222
S           -7.63357393465000       -2.93809211226327       -0.09811904379805
C           -9.34510906249906       -2.69625734075887       -0.08522746958799
C           -9.70612507632691       -1.39328064299494       -0.03546786892338
C           -8.58995463326502       -0.51684418918787       -0.00506086227060
C           -8.55200938611563        0.89373809187349        0.04863039735305
C           -9.61927587991027        1.82878188077305        0.08689279728788
C           -9.18851323023748        3.11046499074101        0.13506388032605
S           -7.46638243696069        3.26012256202330        0.13684050684658
C           -7.30217294920239        1.52876134671638        0.07034422704945
C            0.86467955791115        1.11410747185431       -1.06977195123109
C            2.11319208050008        1.69687757259095       -1.09782452076246
C            3.56013281384624        4.19074174136488       -2.20420667105098
C            4.11673221661039        4.67723545583716       -3.37017573377007
H            5.91563909370411        4.98414209550419       -4.49410752200654
H            7.35754901727201        3.95606489075179       -2.77181029332385
H            6.38269979236059        3.08011451678862       -0.70166945727350
H            5.45930963921629        4.97465528878757        0.85036563532484
H            6.71985345702633        4.88339474291575        2.95942028688054
H            6.48217510838349        2.94269007214101        4.46707188034081
H            4.96384585942931        1.09411671864881        3.85049634216047
H            3.70926789362821        1.17747837614764        1.73728730088226
H            1.88722670293430        3.56987052422807        1.70756345591902
H           -0.35959980031829        2.55810803011462        1.72585734346503
H           -2.49751216191422        2.49554593747163        0.05036715945290
H           -2.63128643310344       -2.44083783241829       -0.02641656539640
H            0.62085739940776       -0.39032785279310        1.77632761491431
H            2.81759252624393       -1.48420161810840        1.78085844798567
H            2.09137501442740       -5.24210496888385        0.76687716685037
H            2.44107199861116       -7.62719454076854        0.28981953774076
H            4.44448225428828       -8.36674986343712       -0.95124759611738
H            6.08911581326288       -6.69361357273788       -1.72285507852711
H            5.73147337642742       -4.30559058140956       -1.27001775675991
H            3.86334966905999       -0.78071186749871       -0.84458927017519
H            5.73192746803468        0.76807857595338       -0.47383897432811
H            7.68904921947020        0.05938526679127        0.85838819348009
H            7.77328296750088       -2.23030841298525        1.77962619880362
H            5.90891067770948       -3.78906189141150        1.39819844361787
H            1.63619666776132       -3.87245507077026       -1.55822543459303
H           -0.56187098565112       -2.77025122000693       -1.56504183552735
H           -9.98578657586214       -3.55565226876937       -0.11604322837322
H          -10.72692962152778       -1.05667235633107       -0.02044005455065
H          -10.65676672084997        1.54750876679486        0.07845360671157
H           -9.78189626158671        4.00298896541763        0.17072125376060
H            0.57949140707111        0.42227963804642       -1.84858651433431
H            2.80455247371941        1.47031179101121       -1.89672025186062
H            2.49537087336700        4.26361576158011       -2.03838244754009
H            3.47815348067463        5.12818205635070       -4.11542110712299

 projected vibrational frequencies (cm⁻¹)
eigval :       -0.00    -0.00    -0.00    -0.00     0.00     0.00
eigval :        8.62    13.32    14.43    14.97    21.09    23.01
eigval :       35.37    41.33    46.86    52.36    57.06    58.51
eigval :       63.93    69.58    75.55    78.59    80.36    91.06
eigval :       93.64   106.80   110.23   111.96   131.16   133.77
eigval :      140.15   157.52   175.95   188.76   208.76   210.20
eigval :      213.07   223.48   232.18   234.47   260.18   275.21
eigval :      290.78   302.53   307.64   318.13   323.82   330.31
eigval :      345.10   352.61   358.13   360.23   366.31   377.75
eigval :      378.59   379.68   381.84   388.52   389.78   395.93
eigval :      412.37   426.74   433.72   435.57   449.28   453.03
eigval :      477.53   486.01   489.89   493.44   494.74   504.16
eigval :      514.07   527.25   551.15   569.51   572.49   576.14
eigval :      583.30   586.21   589.03   590.54   592.95   595.88
eigval :      599.64   602.66   609.89   615.11   624.71   642.57
eigval :      653.96   658.01   658.61   658.92   663.76   671.23
eigval :      676.18   680.93   683.10   697.54   701.55   723.56
eigval :      742.73   748.63   754.65   755.87   756.19   759.19
eigval :      761.12   761.68   810.29   811.39   814.03   819.03
eigval :      824.20   829.19   831.06   837.02   839.29   868.68
eigval :      869.31   871.32   872.76   873.06   875.47   876.07
eigval :      890.73   891.10   892.31   894.73   900.83   910.12
eigval :      910.73   916.86   918.07   918.30   925.97   927.00
eigval :      927.29   927.69   928.12   928.22   928.91   929.48
eigval :      930.11   933.39   951.52   954.17   983.09   989.11
eigval :     1004.30  1005.02  1013.34  1017.45  1030.89  1073.67
eigval :     1076.45  1083.22  1083.79  1084.14  1084.95  1095.69
eigval :     1122.56  1122.87  1125.01  1126.35  1136.46  1139.35
eigval :     1140.23  1180.37  1180.58  1180.59  1181.13  1183.33
eigval :     1185.24  1193.24  1194.17  1195.46  1196.68  1197.16
eigval :     1208.99  1211.92  1213.81  1222.71  1233.77  1243.58
eigval :     1259.53  1267.20  1268.40  1269.11  1275.24  1278.70
eigval :     1279.10  1282.40  1283.32  1309.45  1312.39  1316.15
eigval :     1319.77  1323.94  1324.80  1326.22  1327.64  1328.18
eigval :     1328.63  1333.75  1356.93  1389.38  1396.19  1408.41
eigval :     1409.74  1413.81  1418.02  1435.65  1435.94  1443.25
eigval :     1443.75  1470.12  1471.02  1473.14  1473.94  1474.85
eigval :     1485.93  1490.67  1493.90  1497.89  1511.20  1530.85
eigval :     1534.69  1546.79  1555.65  1557.16  1574.97  1575.37
eigval :     1579.08  1579.37  1591.89  1591.91  1592.81  1593.11
eigval :     1599.57  1600.02  3075.41  3075.99  3076.81  3076.85
eigval :     3077.26  3077.37  3077.69  3078.17  3078.42  3078.53
eigval :     3079.13  3083.09  3085.69  3086.67  3087.49  3087.82
eigval :     3088.09  3089.22  3089.75  3090.41  3090.57  3090.73
eigval :     3091.90  3092.69  3093.41  3095.74  3098.11  3098.45
eigval :     3098.89  3103.36  3129.78  3133.87  3158.30  3158.56

   temp. (K)  partition function   enthalpy   heat capacity  entropy
                                   cal/mol     cal/K/mol   cal/K/mol   J/K/mol
 298.15  VIB  0.130E+23            27741.864    173.808    174.261
         ROT  0.188E+09              888.752      2.981     40.842
         INT  0.244E+31            28630.617    176.788    215.103
         TR   0.210E+29             1481.254      4.968     45.816
         TOT                       30111.8708   181.7566   260.9189  1091.6848

       T/K    H(0)-H(T)+PV         H(T)/Eh          T*S/Eh         G(T)/Eh
   ------------------------------------------------------------------------
    298.15    0.479863E-01    0.737250E+00    0.123971E+00    0.613279E+00
   ------------------------------------------------------------------------

         :::::::::::::::::::::::::::::::::::::::::::::::::::::
         ::                  THERMODYNAMIC                  ::
         :::::::::::::::::::::::::::::::::::::::::::::::::::::
         :: total free energy        -146.262438206978 Eh   ::
         ::.................................................::
         :: total energy             -146.875717199457 Eh   ::
         :: zero point energy           0.689263680221 Eh   ::
         :: G(RRHO) w/o ZPVE           -0.075984687741 Eh   ::
         :: G(RRHO) contrib.            0.613278992480 Eh   ::
         :::::::::::::::::::::::::::::::::::::::::::::::::::::

           -------------------------------------------------
          | TOTAL ENERGY             -146.875717199457 Eh   |
          | TOTAL ENTHALPY           -146.138467198720 Eh   |
          | TOTAL FREE ENERGY        -146.262438206978 Eh   |
          | GRADIENT NORM               0.000087824721 Eh/α |
           -------------------------------------------------

 * finished run on 2025/09/11 at 08:16:33.987
