   * xtb version 6.7.1 (edcfbbe) compiled by 'albert@albert-system' on 2024-07-22

   ID    Z sym.   atoms
    1    6 C      1-6, 8-11, 13-21, 23-28, 30-52
    2    5 B      7
    3    7 N      12, 22
    4    8 O      29
    5    1 H      53-93

          program call               : xtb data2507/toluene/PCDMB/PCDMB_toluene_T1_crest.xyz --gfn 2 --uhf 2 --gbsa toluene --ohess vtight --parallel 40 --molden --ceasefiles --namespace data2507/toluene/PCDMB/PCDMB_toluene_T1_finalOpt
      * Solvation model:               GBSA
        Solvent                        toluene
        Solvent mass                       9.2140E+01 g/mol
          :  Hamiltonian                  GFN2-xTB          :
 * total energy  :  -134.8789660 Eh     change        0.1882572E-07 Eh
 * total energy  :  -134.8790708 Eh     change       -0.1047790E-03 Eh
 * total energy  :  -134.8791350 Eh     change       -0.6425133E-04 Eh
 * total energy  :  -134.8791527 Eh     change       -0.1770599E-04 Eh
 * total energy  :  -134.8791632 Eh     change       -0.1047898E-04 Eh
 * total energy  :  -134.8791714 Eh     change       -0.8160797E-05 Eh
 * total energy  :  -134.8791787 Eh     change       -0.7304309E-05 Eh
 * total energy  :  -134.8791835 Eh     change       -0.4776859E-05 Eh
 * total energy  :  -134.8791874 Eh     change       -0.3953886E-05 Eh
 * total energy  :  -134.8791911 Eh     change       -0.3724722E-05 Eh
 * total energy  :  -134.8792226 Eh     change       -0.4629792E-06 Eh
 * total energy  :  -134.8792230 Eh     change       -0.4461308E-06 Eh
 * total energy  :  -134.8792234 Eh     change       -0.3916540E-06 Eh
 * total energy  :  -134.8792238 Eh     change       -0.4135994E-06 Eh
 * total energy  :  -134.8792243 Eh     change       -0.4993003E-06 Eh
 * total energy  :  -134.8792249 Eh     change       -0.5918540E-06 Eh
 * total energy  :  -134.8792255 Eh     change       -0.5760659E-06 Eh
 * total energy  :  -134.8792260 Eh     change       -0.4581022E-06 Eh
 * total energy  :  -134.8792260 Eh     change       -0.4678157E-08 Eh
   *** GEOMETRY OPTIMIZATION CONVERGED AFTER 44 ITERATIONS ***

 final structure:
================
93
 xtb: 6.7.1 (edcfbbe)
C           -9.06618538463034        3.38407863097345       -1.34109685435426
C           -7.95718537787500        2.42744561590524       -1.01796163376132
C           -7.70398248976169        1.33672682834805       -1.84210516149771
C           -6.68955183385748        0.43736394629626       -1.56512459741822
C           -6.45532818529835       -0.70507693764457       -2.51046192567682
C           -5.87229811252553        0.60104860721820       -0.42855167096606
B           -4.70288740149368       -0.40680708286141       -0.11526595921167
C           -3.27019291152789        0.13807630949058        0.07249071284240
C           -2.87646500132090        1.39725100119102       -0.43156802416296
C           -1.60438330596083        1.88725179732794       -0.27035079974732
C           -0.64214796860480        1.13770489614182        0.41744215002628
N            0.65793361945412        1.62919068273999        0.58231573692453
C            0.99410610830868        2.89582042795177        1.03273478406820
C            0.17368958808485        3.92716160805766        1.45685613796855
C            0.77469426147776        5.10153027984385        1.88415309394031
C            2.16134833104131        5.24429856457953        1.89207669843947
C            2.98804748157883        4.21227851680886        1.49487498457085
C            2.40753872731099        3.01871699538875        1.07097164474815
C            2.93524227535279        1.76929813316210        0.62598169512430
C            4.22476821135200        1.28766099618255        0.43833921175379
C            4.38565858538251       -0.00560944433028       -0.03889998037817
N            5.68674430018639       -0.52193859969370       -0.23097344224521
C            6.10140346239432       -1.64146544195939        0.46729483886146
C            5.30748380365257       -2.26905821012138        1.43273395744501
C            5.76023915377530       -3.38325399137973        2.10319559859847
C            7.03309412641248       -3.90317951244930        1.84192442273301
C            7.85358216725622       -3.27696353218815        0.92711115227071
C            7.41097753920180       -2.15022260667170        0.24526992136187
O            8.27848255750403       -1.54952659149239       -0.60998944883064
C            7.86485448420743       -0.44266543829740       -1.27996125953599
C            8.76303474447196        0.15349438237729       -2.15632867576132
C            8.38571999171990        1.25380524975205       -2.89729655967928
C            7.08258519568952        1.75217466712808       -2.78565919640844
C            6.18331400710486        1.17420262117548       -1.91799411974001
C            6.55388934363897        0.08645700474083       -1.12046271790525
C            3.27730207433371       -0.81089736754192       -0.35196430215147
C            1.98848318618504       -0.34195395459379       -0.17956528384644
C            1.81419061218656        0.93654674103192        0.33146219562792
C           -1.00138383549774       -0.11441610150756        0.93175627427427
C           -2.27586718348885       -0.59365791781582        0.75783955440601
C           -4.95368342605100       -1.95770394464729        0.00888186394242
C           -4.23391500828824       -2.88321101429643       -0.76540864286768
C           -3.21246345922276       -2.44666288770073       -1.77935441936166
C           -4.46252990936195       -4.24620318354977       -0.63507192360776
C           -5.39520975530091       -4.74547756028095        0.25989186271801
C           -5.64767647596119       -6.21854325782168        0.38577174107123
C           -6.11043251277083       -3.83398819444432        1.02706836373077
C           -5.90453804934012       -2.46976139367799        0.91363915297354
C           -6.69334545832893       -1.54263528103137        1.79217300749357
C           -6.13440041566430        1.70302617701016        0.40282497065649
C           -5.34272227183322        1.95666632242289        1.65609378528966
C           -7.16061106430705        2.58928261780244        0.10366265088447
H           -9.08885660924458        4.20827377926482       -0.63173623858772
H          -10.02867695212811        2.87238435909713       -1.30924061547153
H           -8.93978670911508        3.78984687131579       -2.34477301602168
H           -8.31678161320904        1.19246401638468       -2.72300136477346
H           -6.52878459422945       -1.65573495585509       -1.98584996401717
H           -5.45698808784270       -0.64344777541824       -2.94080043353491
H           -7.18303429528683       -0.69332129109537       -3.31943890229477
H           -3.60072357390129        1.98279493380133       -0.98114417695899
H           -1.32446951916214        2.83996565313667       -0.69835084382145
H           -0.90037611389205        3.82159029242566        1.46521899286113
H            0.15499078762181        5.91989459234931        2.21958407012374
H            2.59224962427400        6.17725834727950        2.22566399366790
H            4.06196352933655        4.32162782664886        1.51636756021962
H            5.08368765551803        1.89474521237378        0.67976993176635
H            4.33166337840427       -1.86743442086096        1.65358210309656
H            5.12939511461104       -3.85327120083841        2.84093028714982
H            7.37876643041407       -4.77955862496154        2.36590262936486
H            8.85004516911848       -3.63586896795193        0.72289494694907
H            9.75046696213068       -0.27253524178932       -2.23986742128065
H            9.08676054901273        1.71586348151890       -3.57338663965277
H            6.77524914034359        2.59184764601589       -3.38861657756288
H            5.17709738719414        1.55626949406521       -1.85336625207577
H            3.44412994847973       -1.79524463730656       -0.76110795735032
H            1.14280217956987       -0.95127237577828       -0.45730079125530
H           -0.27311084283974       -0.68300281695800        1.49353850775210
H           -2.53923738384170       -1.55533730459172        1.17627715388871
H           -3.33294443982994       -3.01153189609404       -2.70337968798504
H           -2.20616581067525       -2.63353450603679       -1.40285030253804
H           -3.29940858752690       -1.38636725461020       -1.99591566329495
H           -3.89717405400584       -4.93446346902659       -1.25082179065368
H           -6.54833104972699       -6.49250776241319       -0.16643698243360
H           -4.81530936831795       -6.79215105144778       -0.01632475766192
H           -5.79839942894383       -6.49698419937483        1.42759380334249
H           -6.84431209198844       -4.20310718091455        1.73236576752886
H           -7.40078635309370       -2.09799027469841        2.40479328653647
H           -6.02831235046575       -0.98496645083148        2.45003200399521
H           -7.24135686132460       -0.82033860915521        1.19031371087537
H           -4.77403409054171        1.07914174735463        1.94832674823377
H           -6.00730532279208        2.24011784465818        2.47181518967636
H           -4.64085099552833        2.77632670250129        1.49775743750052
H           -7.34189689176108        3.42518383416338        0.76768812596892

          :  Hamiltonian                  GFN2-xTB          :
         :: gradient norm              0.000047208143 Eh/a0 ::
         :: HOMO-LUMO gap              0.043001968984 eV    ::
         :: SCC energy              -137.273662472856 Eh    ::
         :: -> dispersion             -0.126159696244 Eh    ::
         :: -> Gsolv                  -0.053387206573 Eh    ::
         :: repulsion energy           2.394436510023 Eh    ::

    * Orbital Energies and Occupations

         #    Occupation            Energy/Eh            Energy/eV
      -------------------------------------------------------------
         1        2.0000           -0.7528771             -20.4868
       ...           ...                  ...                  ...
       115        2.0000           -0.4032572             -10.9732
       116        2.0000           -0.3934695             -10.7068
       117        2.0000           -0.3926126             -10.6835
       118        2.0000           -0.3858198             -10.4987
       119        2.0000           -0.3821632             -10.3992
       120        2.0000           -0.3788180             -10.3082
       121        2.0000           -0.3717762             -10.1165
       122        2.0000           -0.3707783             -10.0894
       123        2.0000           -0.3657613              -9.9529
       124        1.9983           -0.3598988              -9.7933
       125        1.8926           -0.3558689              -9.6837
       126        1.1091           -0.3518625              -9.5747
       127        0.6954           -0.2569798              -6.9928 (HOMO)
       128        0.3021           -0.2553998              -6.9498 (LUMO)
       129        0.0025           -0.2504957              -6.8163
       130                         -0.2392429              -6.5101
       131                         -0.2346106              -6.3841
       132                         -0.2227943              -6.0625
       133                         -0.2116249              -5.7586
       134                         -0.2081449              -5.6639
       135                         -0.2077002              -5.6518
       136                         -0.2014232              -5.4810
       137                         -0.1978588              -5.3840
       138                         -0.1967140              -5.3529
       ...                                ...                  ...
       249                          0.7404388              20.1484
      -------------------------------------------------------------
                  HL-Gap            0.0015800 Eh            0.0430 eV

     #   Z          covCN         q      C6AA      α(0)
     1   6 C        3.757    -0.104    22.543     6.769
     2   6 C        2.962     0.004    27.934     8.669
     3   6 C        2.928    -0.060    29.496     8.907
     4   6 C        2.966     0.006    27.896     8.663
     5   6 C        3.759    -0.109    22.630     6.782
     6   6 C        2.887    -0.079    29.984     8.977
     7   5 B        2.709     0.205    18.347     7.183
     8   6 C        2.882    -0.070    29.747     8.941
     9   6 C        2.921    -0.036    28.896     8.815
    10   6 C        2.914    -0.048    29.194     8.860
    11   6 C        2.913     0.041    27.076     8.533
    12   7 N        2.798    -0.024    21.706     6.920
    13   6 C        3.078     0.044    26.920     8.506
    14   6 C        2.909    -0.047    29.169     8.856
    15   6 C        2.922    -0.041    29.007     8.832
    16   6 C        2.918    -0.039    28.969     8.826
    17   6 C        2.911    -0.038    28.945     8.822
    18   6 C        3.061    -0.021    28.472     8.750
    19   6 C        3.066    -0.020    28.445     8.745
    20   6 C        2.912    -0.046    29.141     8.852
    21   6 C        2.925     0.045    26.980     8.518
    22   7 N        2.752    -0.004    21.337     6.861
    23   6 C        2.924     0.034    27.249     8.560
    24   6 C        2.917    -0.049    29.221     8.864
    25   6 C        2.916    -0.038    28.934     8.821
    26   6 C        2.917    -0.036    28.884     8.813
    27   6 C        2.913    -0.052    29.304     8.877
    28   6 C        2.885     0.123    25.304     8.247
    29   8 O        1.710    -0.217    17.608     5.666
    30   6 C        2.885     0.123    25.303     8.247
    31   6 C        2.913    -0.052    29.300     8.876
    32   6 C        2.917    -0.035    28.883     8.813
    33   6 C        2.916    -0.037    28.932     8.820
    34   6 C        2.917    -0.049    29.219     8.864
    35   6 C        2.924     0.033    27.252     8.561
    36   6 C        2.922    -0.053    29.329     8.881
    37   6 C        2.908    -0.047    29.172     8.856
    38   6 C        3.073     0.046    26.890     8.502
    39   6 C        2.914    -0.049    29.215     8.863
    40   6 C        2.921    -0.036    28.903     8.816
    41   6 C        2.887    -0.079    29.978     8.976
    42   6 C        2.966     0.006    27.884     8.662
    43   6 C        3.759    -0.107    22.599     6.777
    44   6 C        2.929    -0.060    29.491     8.906
    45   6 C        2.962     0.004    27.938     8.670
    46   6 C        3.757    -0.104    22.543     6.769
    47   6 C        2.928    -0.060    29.492     8.906
    48   6 C        2.967     0.005    27.898     8.664
    49   6 C        3.759    -0.109    22.626     6.781
    50   6 C        2.966     0.006    27.884     8.662
    51   6 C        3.759    -0.107    22.589     6.776
    52   6 C        2.928    -0.060    29.484     8.905
    53   1 H        0.925     0.035     2.512     2.479
    54   1 H        0.924     0.040     2.448     2.447
    55   1 H        0.925     0.039     2.456     2.451
    56   1 H        0.925     0.014     2.819     2.626
    57   1 H        0.925     0.046     2.371     2.408
    58   1 H        0.925     0.040     2.443     2.444
    59   1 H        0.925     0.032     2.560     2.502
    60   1 H        0.925     0.020     2.730     2.584
    61   1 H        0.925     0.021     2.711     2.575
    62   1 H        0.926     0.031     2.568     2.506
    63   1 H        0.926     0.028     2.621     2.532
    64   1 H        0.926     0.028     2.612     2.528
    65   1 H        0.926     0.031     2.575     2.509
    66   1 H        0.926     0.043     2.405     2.425
    67   1 H        0.926     0.052     2.290     2.367
    68   1 H        0.926     0.049     2.333     2.389
    69   1 H        0.926     0.051     2.310     2.377
    70   1 H        0.926     0.058     2.228     2.334
    71   1 H        0.926     0.058     2.227     2.333
    72   1 H        0.926     0.051     2.308     2.376
    73   1 H        0.926     0.049     2.331     2.387
    74   1 H        0.926     0.052     2.292     2.368
    75   1 H        0.926     0.041     2.438     2.442
    76   1 H        0.926     0.043     2.409     2.427
    77   1 H        0.925     0.022     2.698     2.569
    78   1 H        0.925     0.021     2.715     2.577
    79   1 H        0.925     0.036     2.508     2.476
    80   1 H        0.924     0.038     2.476     2.461
    81   1 H        0.925     0.040     2.450     2.448
    82   1 H        0.925     0.015     2.805     2.619
    83   1 H        0.924     0.041     2.440     2.443
    84   1 H        0.925     0.036     2.498     2.472
    85   1 H        0.925     0.038     2.478     2.462
    86   1 H        0.925     0.014     2.827     2.629
    87   1 H        0.925     0.032     2.562     2.503
    88   1 H        0.925     0.040     2.452     2.449
    89   1 H        0.925     0.046     2.373     2.409
    90   1 H        0.925     0.040     2.449     2.447
    91   1 H        0.925     0.035     2.512     2.479
    92   1 H        0.924     0.037     2.484     2.465
    93   1 H        0.925     0.015     2.817     2.625

molecular dipole:
                 x           y           z       tot (Debye)
 q only:        3.728      -0.338      -0.168
   full:        3.622      -0.324      -0.171       9.252

 projected vibrational frequencies (cm⁻¹)
eigval :       -0.00    -0.00    -0.00    -0.00     0.00     0.00
eigval :        4.74     7.83    13.29    21.06    26.27    28.52
eigval :       30.28    37.22    42.17    47.45    57.30    66.68
eigval :       68.82    69.25    71.02    81.72    93.63    97.37
eigval :      101.38   107.13   114.21   131.00   135.75   140.09
eigval :      140.62   143.60   149.69   165.41   179.68   184.96
eigval :      188.85   199.08   204.96   210.13   221.84   236.59
eigval :      240.87   263.36   272.59   275.01   275.65   284.98
eigval :      299.73   310.59   317.45   323.18   324.56   342.73
eigval :      369.11   374.13   383.75   386.14   395.06   403.10
eigval :      412.64   419.21   427.36   444.20   447.42   466.44
eigval :      469.31   472.44   480.79   485.86   492.41   494.99
eigval :      502.87   508.44   510.52   516.15   520.82   530.22
eigval :      537.55   540.37   550.41   565.89   572.83   585.02
eigval :      591.23   596.25   598.20   598.96   611.02   622.90
eigval :      628.94   638.37   647.73   655.25   664.04   669.08
eigval :      675.17   679.32   694.17   717.49   738.15   756.87
eigval :      758.33   759.17   801.48   806.79   812.17   835.68
eigval :      839.99   847.28   849.71   851.16   857.29   858.75
eigval :      861.19   868.33   875.44   880.27   882.24   886.36
eigval :      889.89   892.24   894.60   895.91   899.77   900.74
eigval :      901.92   904.61   915.61   922.69   930.26   933.12
eigval :      961.71   962.28   971.14   972.60   978.47  1005.23
eigval :     1019.64  1020.85  1022.27  1026.78  1027.42  1030.01
eigval :     1031.65  1032.68  1032.82  1035.24  1040.06  1041.95
eigval :     1042.59  1065.09  1066.57  1076.94  1095.22  1110.70
eigval :     1118.35  1121.09  1129.79  1139.58  1144.30  1165.34
eigval :     1168.32  1173.61  1178.13  1181.02  1189.59  1201.52
eigval :     1201.73  1203.35  1218.47  1220.90  1232.06  1234.75
eigval :     1235.72  1241.81  1245.26  1265.32  1268.02  1277.21
eigval :     1286.61  1299.50  1302.00  1308.06  1312.93  1317.60
eigval :     1319.70  1336.17  1346.25  1349.42  1355.13  1360.26
eigval :     1370.68  1396.12  1396.63  1398.38  1401.03  1401.72
eigval :     1401.87  1404.83  1405.03  1410.27  1414.70  1423.15
eigval :     1423.24  1425.62  1426.17  1427.93  1442.91  1451.42
eigval :     1451.85  1462.64  1469.20  1474.01  1474.96  1475.94
eigval :     1478.18  1478.47  1480.66  1482.34  1482.80  1484.05
eigval :     1484.67  1486.23  1486.84  1487.08  1494.05  1495.10
eigval :     1499.24  1509.77  1526.02  1536.58  1539.55  1550.91
eigval :     1562.16  1570.52  1572.53  1589.82  2982.23  2988.21
eigval :     2988.85  2991.36  3004.71  3006.21  3007.10  3007.84
eigval :     3008.85  3017.37  3022.68  3023.10  3027.74  3028.01
eigval :     3030.66  3033.31  3042.42  3043.01  3045.69  3046.31
eigval :     3051.46  3052.20  3055.95  3057.45  3067.72  3071.09
eigval :     3071.22  3079.42  3086.76  3092.09  3094.15  3095.31
eigval :     3096.20  3096.85  3100.67  3101.52  3102.83  3108.20
eigval :     3109.51  3113.50  3114.55

   temp. (K)  partition function   enthalpy   heat capacity  entropy
                                   cal/mol     cal/K/mol   cal/K/mol   J/K/mol
 298.15  VIB  0.794E+23            28080.280    170.443    178.199
         ROT  0.132E+09              888.752      2.981     40.136
         INT  0.105E+32            28969.032    173.424    218.335
         TR   0.169E+29             1481.254      4.968     45.379
         TOT                       30450.2861   178.3923   263.7142  1103.3801

       T/K    H(0)-H(T)+PV         H(T)/Eh          T*S/Eh         G(T)/Eh
   ------------------------------------------------------------------------
    298.15    0.485256E-01    0.780735E+00    0.125299E+00    0.655436E+00
   ------------------------------------------------------------------------

         :::::::::::::::::::::::::::::::::::::::::::::::::::::
         ::                  THERMODYNAMIC                  ::
         :::::::::::::::::::::::::::::::::::::::::::::::::::::
         :: total free energy        -134.223789938965 Eh   ::
         ::.................................................::
         :: total energy             -134.879225967887 Eh   ::
         :: zero point energy           0.732209522721 Eh   ::
         :: G(RRHO) w/o ZPVE           -0.076773493799 Eh   ::
         :: G(RRHO) contrib.            0.655436028922 Eh   ::
         :::::::::::::::::::::::::::::::::::::::::::::::::::::

           -------------------------------------------------
          | TOTAL ENERGY             -134.879225967887 Eh   |
          | TOTAL ENTHALPY           -134.098490825555 Eh   |
          | TOTAL FREE ENERGY        -134.223789938965 Eh   |
          | GRADIENT NORM               0.000045169209 Eh/α |
          | HOMO-LUMO GAP               0.042994834553 eV   |
           -------------------------------------------------

 * finished run on 2025/07/19 at 05:49:33.409
