   * xtb version 6.7.1 (edcfbbe) compiled by 'albert@albert-system' on 2024-07-22

   ID    Z sym.   atoms
    1    6 C      1-6, 8-11, 13-21, 23-28, 30-52
    2    5 B      7
    3    7 N      12, 22
    4    8 O      29
    5    1 H      53-93

          program call               : xtb data2507/toluene/PCDMB/PCDMB.xyz --gfn 2 --gbsa toluene --ohess vtight --parallel 40 --molden --ceasefiles --namespace data2507/toluene/PCDMB/PCDMB_toluene_S0_preOpt
      * Solvation model:               GBSA
        Solvent                        toluene
        Solvent mass                       9.2140E+01 g/mol
          :  Hamiltonian                  GFN2-xTB          :
 * total energy  :  -134.9193353 Eh     change       -0.1244388E-08 Eh
 * total energy  :  -134.9546575 Eh     change       -0.3532221E-01 Eh
 * total energy  :  -134.9637509 Eh     change       -0.9093455E-02 Eh
 * total energy  :  -134.9655721 Eh     change       -0.1821123E-02 Eh
 * total energy  :  -134.9665310 Eh     change       -0.9589070E-03 Eh
 * total energy  :  -134.9669798 Eh     change       -0.4488577E-03 Eh
 * total energy  :  -134.9672951 Eh     change       -0.3152330E-03 Eh
 * total energy  :  -134.9675119 Eh     change       -0.2168738E-03 Eh
 * total energy  :  -134.9676732 Eh     change       -0.1612447E-03 Eh
 * total energy  :  -134.9678110 Eh     change       -0.1378356E-03 Eh
 * total energy  :  -134.9695134 Eh     change       -0.9150795E-06 Eh
 * total energy  :  -134.9695130 Eh     change        0.3509097E-06 Eh
 * total energy  :  -134.9695137 Eh     change       -0.6994922E-06 Eh
 * total energy  :  -134.9695140 Eh     change       -0.2695815E-06 Eh
 * total energy  :  -134.9695143 Eh     change       -0.3098276E-06 Eh
 * total energy  :  -134.9695146 Eh     change       -0.3174018E-06 Eh
 * total energy  :  -134.9695146 Eh     change        0.1871797E-08 Eh
 * total energy  :  -134.9695148 Eh     change       -0.1420722E-06 Eh
 * total energy  :  -134.9695148 Eh     change       -0.8309826E-08 Eh
   *** GEOMETRY OPTIMIZATION CONVERGED AFTER 114 ITERATIONS ***

 final structure:
================
93
 xtb: 6.7.1 (edcfbbe)
C           -8.11470896507773        3.92248414744018       -0.83270828021025
C           -7.07213385983863        2.86576733075874       -0.62230370788219
C           -6.89952540008394        1.84357219666415       -1.54658976857054
C           -5.95815248151366        0.84508343783648       -1.35958737164416
C           -5.81107603853670       -0.21880024446609       -2.40860452270674
C           -5.13014316976895        0.84828182768586       -0.22160211671219
B           -4.00483969218214       -0.23248470837338       -0.04507955393884
C           -2.52915084323084        0.25971384357525        0.14073686049205
C           -2.10524169129753        1.49894140845511       -0.35346690394409
C           -0.80501067336323        1.93567065032873       -0.20201742281087
C            0.11697386788568        1.14820598528824        0.48218971797730
N            1.43685357764317        1.59538236918063        0.65742746375218
C            1.81177079304753        2.82479376843833        1.16219480214068
C            1.02329704138050        3.86150410855331        1.64293758230112
C            1.66219128309992        4.99017784954850        2.11895181779501
C            3.05261933125022        5.09150875977011        2.12916271041357
C            3.84315367532638        4.05481973790236        1.67546014710960
C            3.22323239944359        2.90907561123387        1.19186210004562
C            3.71456814996231        1.66426052029126        0.67233951080091
C            4.98886205422819        1.16406940888128        0.44607511347085
C            5.11338394795823       -0.09744359337092       -0.11247618578066
N            6.40583441829282       -0.63396199021336       -0.36052187616831
C            6.90335646059580       -1.66703360018622        0.42884028848636
C            6.17631953649573       -2.20934359833048        1.48145399839005
C            6.69845725148886       -3.24056942192554        2.24838641292392
C            7.95626205902106       -3.74123733144968        1.98132819709764
C            8.70270767095175       -3.19872227907817        0.94329858707402
C            8.18685067177713       -2.17179850713202        0.17671566032057
O            8.99115734902561       -1.67323660434696       -0.82527659859566
C            8.48042410440079       -0.64973834143048       -1.59415367855794
C            9.28789282422325       -0.15873405006033       -2.60179373543756
C            8.83452737396523        0.86087882464427       -3.42869816703395
C            7.56731960107976        1.37436372712732       -3.24252518031308
C            6.75343715513825        0.88539899629295       -2.23128120738084
C            7.19822028920912       -0.12264785995948       -1.38469877543843
C            3.98366129920687       -0.85046833014745       -0.44975038605559
C            2.70925538123294       -0.37403463660693       -0.21923341249995
C            2.57639556053311        0.88284513877532        0.35724577184368
C           -0.28095787726320       -0.08425520070424        0.99309536778907
C           -1.57770626298456       -0.51929491098728        0.80961931790820
C           -4.27909356266707       -1.77840217337079       -0.04604089201858
C           -3.60446399216263       -2.64183779673729       -0.92163124545986
C           -2.65987211216570       -2.13297782142549       -1.97533284248051
C           -3.82339444244182       -4.01240864119496       -0.87077056637430
C           -4.70107099108439       -4.57398527744511        0.04135217084522
C           -4.90990757257088       -6.05716866384694        0.10770992998458
C           -5.37199248442371       -3.72089107574273        0.90785615203968
C           -5.18017046692864       -2.34966139807626        0.87156511208158
C           -5.92382752221005       -1.48620051354499        1.84893304636729
C           -5.31091059534936        1.87790977614841        0.71352151837447
C           -4.51914504498079        1.94595298401851        1.99016188877643
C           -6.27070773636240        2.86041673926672        0.50671977246945
H           -8.19243013719633        4.18520084658143       -1.88613341601455
H           -7.88210165670592        4.81824267542312       -0.26085051085268
H           -9.08904449486722        3.55491682568870       -0.50678552575396
H           -7.51882972248756        1.82760042912515       -2.43378367245834
H           -4.83732926059316       -0.14724818934090       -2.89070331156468
H           -6.58006626364958       -0.11591232484472       -3.17124382640633
H           -5.88876188038238       -1.20823107896342       -1.96353466168721
H           -2.81348695135941        2.12234338311567       -0.88037270361841
H           -0.49176306122344        2.88305131970916       -0.61616550232441
H           -0.05340271951464        3.78715347124194        1.65371438992424
H            1.07087512023739        5.81199401859387        2.49559478181896
H            3.51332291571200        5.99236519916894        2.50703770578688
H            4.92029823512642        4.12630663189395        1.69720657749241
H            5.86705091319447        1.74374682997450        0.68738648152781
H            5.19611128225259       -1.81706260683159        1.70263168470141
H            6.11028852210088       -3.64545244314992        3.05792727538641
H            8.36766920267985       -4.54418397808189        2.57275329336088
H            9.69344745851575       -3.56009677292061        0.71520548091168
H           10.26944478342410       -0.58896719106263       -2.72677695376104
H            9.47331521108278        1.23821257549348       -4.21186888824859
H            7.19705018984435        2.16024300317948       -3.88330317765406
H            5.76139405090310        1.28746035569723       -2.09732926792639
H            4.12383052394883       -1.82255900818052       -0.89907920083312
H            1.84507799564391       -0.95824165914397       -0.49483677857260
H            0.42905631174971       -0.68844428606533        1.53906934119631
H           -1.87351581414752       -1.47984768256685        1.20675557218028
H           -2.97458467250960       -2.48510364799246       -2.95769642093395
H           -1.65539566110393       -2.51596720328889       -1.79448616583098
H           -2.61950029402979       -1.04883833969036       -1.98951709014346
H           -3.29457609620880       -4.65322487821140       -1.56421421745556
H           -4.68475181602973       -6.52529205041191       -0.84814590536261
H           -4.25161417042300       -6.49286971047677        0.86111058266814
H           -5.93599141129875       -6.29201408107166        0.38401587524105
H           -6.06443800052997       -4.13970359738584        1.62622040273800
H           -6.62873509891960       -2.07910260382848        2.42780939240912
H           -5.23064386173645       -1.00668390006670        2.53824795843858
H           -6.46905074387463       -0.70203127078666        1.32846254597796
H           -3.84521248777120        1.10168322334882        2.09123274156811
H           -5.19458725185259        1.95951158307172        2.84562862608725
H           -3.93284892175093        2.86450784651707        2.01902232645033
H           -6.39134491561956        3.63879970846123        1.24879354047562

          :  Hamiltonian                  GFN2-xTB          :
         :: gradient norm              0.000069333891 Eh/a0 ::
         :: HOMO-LUMO gap              1.835075867218 eV    ::
         :: SCC energy              -137.382319230706 Eh    ::
         :: -> dispersion             -0.125519008678 Eh    ::
         :: -> Gsolv                  -0.053409094806 Eh    ::
         :: repulsion energy           2.412804459344 Eh    ::

    * Orbital Energies and Occupations

         #    Occupation            Energy/Eh            Energy/eV
      -------------------------------------------------------------
         1        2.0000           -0.7259975             -19.7554
       ...           ...                  ...                  ...
       114        2.0000           -0.4096798             -11.1480
       115        2.0000           -0.4084830             -11.1154
       116        2.0000           -0.4064325             -11.0596
       117        2.0000           -0.3991045             -10.8602
       118        2.0000           -0.3913488             -10.6491
       119        2.0000           -0.3881880             -10.5631
       120        2.0000           -0.3846191             -10.4660
       121        2.0000           -0.3789312             -10.3112
       122        2.0000           -0.3777630             -10.2795
       123        2.0000           -0.3727512             -10.1431
       124        2.0000           -0.3671478              -9.9906
       125        2.0000           -0.3660876              -9.9618
       126        2.0000           -0.3386884              -9.2162 (HOMO)
       127                         -0.2712505              -7.3811 (LUMO)
       128                         -0.2514573              -6.8425
       129                         -0.2352352              -6.4011
       130                         -0.2306411              -6.2761
       131                         -0.2269571              -6.1758
       132                         -0.2259229              -6.1477
       133                         -0.2200002              -5.9865
       134                         -0.2122976              -5.7769
       135                         -0.2093678              -5.6972
       136                         -0.2057415              -5.5985
       137                         -0.2047827              -5.5724
       ...                                ...                  ...
       249                          0.7386837              20.1006
      -------------------------------------------------------------
                  HL-Gap            0.0674378 Eh            1.8351 eV

     #   Z          covCN         q      C6AA      α(0)
     1   6 C        3.757    -0.106    22.587     6.776
     2   6 C        2.962     0.010    27.794     8.647
     3   6 C        2.929    -0.058    29.443     8.899
     4   6 C        2.967     0.010    27.781     8.645
     5   6 C        3.758    -0.113    22.707     6.794
     6   6 C        2.889    -0.083    30.080     8.992
     7   5 B        2.709     0.250    17.704     7.056
     8   6 C        2.883    -0.061    29.514     8.907
     9   6 C        2.924    -0.026    28.652     8.778
    10   6 C        2.917    -0.044    29.083     8.843
    11   6 C        2.914     0.063    26.579     8.454
    12   7 N        2.802    -0.040    22.007     6.967
    13   6 C        3.079     0.048    26.839     8.493
    14   6 C        2.909    -0.050    29.247     8.868
    15   6 C        2.924    -0.033    28.833     8.806
    16   6 C        2.920    -0.041    29.025     8.835
    17   6 C        2.912    -0.034    28.835     8.805
    18   6 C        3.067    -0.018    28.385     8.736
    19   6 C        3.069    -0.017    28.356     8.732
    20   6 C        2.914    -0.044    29.095     8.845
    21   6 C        2.921     0.052    26.825     8.493
    22   7 N        2.752    -0.079    22.783     7.089
    23   6 C        2.923     0.045    26.995     8.520
    24   6 C        2.924    -0.062    29.551     8.915
    25   6 C        2.919    -0.040    29.003     8.831
    26   6 C        2.919    -0.044    29.089     8.844
    27   6 C        2.919    -0.060    29.485     8.904
    28   6 C        2.881     0.120    25.358     8.255
    29   8 O        1.708    -0.279    18.632     5.828
    30   6 C        2.881     0.120    25.358     8.255
    31   6 C        2.919    -0.060    29.484     8.904
    32   6 C        2.919    -0.044    29.088     8.844
    33   6 C        2.919    -0.040    29.000     8.831
    34   6 C        2.924    -0.062    29.546     8.914
    35   6 C        2.923     0.045    26.996     8.521
    36   6 C        2.925    -0.044    29.103     8.847
    37   6 C        2.909    -0.050    29.244     8.867
    38   6 C        3.076     0.047    26.875     8.499
    39   6 C        2.917    -0.044    29.095     8.845
    40   6 C        2.924    -0.026    28.654     8.778
    41   6 C        2.889    -0.083    30.080     8.992
    42   6 C        2.966     0.011    27.773     8.644
    43   6 C        3.759    -0.111    22.664     6.787
    44   6 C        2.930    -0.059    29.459     8.901
    45   6 C        2.962     0.010    27.794     8.647
    46   6 C        3.757    -0.106    22.587     6.776
    47   6 C        2.929    -0.058    29.441     8.898
    48   6 C        2.967     0.010    27.780     8.645
    49   6 C        3.758    -0.113    22.708     6.794
    50   6 C        2.967     0.011    27.773     8.644
    51   6 C        3.759    -0.110    22.662     6.787
    52   6 C        2.930    -0.059    29.458     8.901
    53   1 H        0.925     0.040     2.446     2.446
    54   1 H        0.925     0.039     2.463     2.454
    55   1 H        0.924     0.044     2.397     2.421
    56   1 H        0.925     0.021     2.723     2.580
    57   1 H        0.925     0.043     2.410     2.428
    58   1 H        0.925     0.036     2.497     2.471
    59   1 H        0.925     0.049     2.328     2.386
    60   1 H        0.926     0.037     2.484     2.465
    61   1 H        0.926     0.037     2.491     2.468
    62   1 H        0.926     0.034     2.523     2.484
    63   1 H        0.926     0.033     2.544     2.494
    64   1 H        0.926     0.030     2.582     2.513
    65   1 H        0.926     0.032     2.556     2.500
    66   1 H        0.926     0.039     2.466     2.456
    67   1 H        0.926     0.037     2.490     2.468
    68   1 H        0.926     0.038     2.473     2.459
    69   1 H        0.926     0.038     2.470     2.458
    70   1 H        0.926     0.044     2.401     2.423
    71   1 H        0.926     0.044     2.400     2.423
    72   1 H        0.926     0.038     2.470     2.458
    73   1 H        0.926     0.038     2.474     2.460
    74   1 H        0.926     0.037     2.496     2.470
    75   1 H        0.926     0.039     2.457     2.451
    76   1 H        0.926     0.042     2.421     2.433
    77   1 H        0.926     0.036     2.500     2.472
    78   1 H        0.926     0.037     2.484     2.465
    79   1 H        0.925     0.043     2.415     2.430
    80   1 H        0.925     0.041     2.435     2.440
    81   1 H        0.925     0.041     2.437     2.441
    82   1 H        0.925     0.022     2.708     2.573
    83   1 H        0.925     0.039     2.461     2.453
    84   1 H        0.924     0.044     2.396     2.421
    85   1 H        0.925     0.040     2.451     2.448
    86   1 H        0.925     0.021     2.723     2.580
    87   1 H        0.925     0.036     2.497     2.471
    88   1 H        0.925     0.043     2.408     2.427
    89   1 H        0.925     0.049     2.327     2.386
    90   1 H        0.925     0.041     2.439     2.442
    91   1 H        0.925     0.043     2.412     2.429
    92   1 H        0.925     0.041     2.436     2.441
    93   1 H        0.925     0.022     2.707     2.573

molecular dipole:
                 x           y           z       tot (Debye)
 q only:       -1.992       0.359       0.190
   full:       -1.951       0.360       0.201       5.068

 projected vibrational frequencies (cm⁻¹)
eigval :       -0.00    -0.00    -0.00    -0.00     0.00     0.00
eigval :       10.03    11.72    13.61    21.36    26.12    27.71
eigval :       28.99    33.53    37.24    40.06    42.58    49.56
eigval :       51.55    62.75    65.68    73.72    80.76    98.58
eigval :      100.41   109.48   112.09   124.83   131.89   134.18
eigval :      135.96   140.02   146.77   163.37   177.41   182.85
eigval :      188.23   199.93   206.83   208.75   215.71   230.18
eigval :      251.88   266.08   268.67   275.64   276.82   282.06
eigval :      301.40   307.84   316.29   324.03   335.68   346.88
eigval :      364.89   374.08   388.50   394.77   398.10   407.79
eigval :      422.85   426.55   433.61   438.79   453.26   464.07
eigval :      479.57   485.34   490.89   498.48   499.11   505.41
eigval :      510.21   511.90   517.55   522.14   523.07   534.76
eigval :      536.49   539.54   558.99   575.31   578.12   597.10
eigval :      598.66   600.39   602.41   603.87   619.62   626.77
eigval :      638.31   659.56   660.34   670.95   679.51   681.17
eigval :      684.31   695.43   706.65   724.38   763.57   772.77
eigval :      775.45   778.75   809.47   814.24   823.70   839.82
eigval :      841.94   850.74   860.00   860.11   868.57   876.75
eigval :      877.94   878.65   882.93   890.42   890.77   891.86
eigval :      893.27   895.65   901.76   910.58   910.64   914.87
eigval :      917.16   919.88   930.11   935.70   942.47   963.35
eigval :      963.72   964.50   972.02   972.91  1018.92  1021.34
eigval :     1022.67  1026.16  1028.53  1029.50  1031.01  1032.27
eigval :     1032.63  1033.51  1038.87  1040.18  1042.77  1043.40
eigval :     1069.50  1088.38  1089.73  1102.01  1104.39  1108.79
eigval :     1123.50  1134.55  1149.32  1162.72  1167.78  1174.67
eigval :     1176.28  1179.87  1182.31  1188.73  1194.15  1197.75
eigval :     1204.26  1215.83  1221.79  1230.16  1234.30  1234.70
eigval :     1240.26  1243.75  1257.92  1270.02  1274.28  1288.88
eigval :     1301.52  1302.50  1304.30  1306.29  1318.53  1333.83
eigval :     1336.31  1336.46  1348.86  1353.93  1357.77  1372.88
eigval :     1394.71  1395.40  1397.30  1402.22  1402.32  1403.83
eigval :     1406.60  1419.40  1423.26  1425.40  1426.98  1427.91
eigval :     1442.16  1451.04  1455.12  1470.23  1474.00  1476.76
eigval :     1480.31  1480.64  1481.49  1481.76  1482.55  1483.02
eigval :     1483.23  1483.95  1485.71  1486.34  1487.02  1493.60
eigval :     1494.64  1505.41  1545.58  1559.53  1559.97  1563.85
eigval :     1565.19  1579.41  1581.00  1583.97  1587.41  1594.57
eigval :     1598.88  1601.05  1603.45  1612.10  2986.21  2987.27
eigval :     2993.38  2994.32  3007.32  3008.48  3011.28  3012.02
eigval :     3023.58  3026.16  3029.42  3029.97  3031.78  3032.13
eigval :     3035.38  3036.06  3052.83  3053.00  3056.16  3056.86
eigval :     3065.16  3065.95  3071.85  3072.85  3073.24  3079.55
eigval :     3083.21  3084.25  3084.48  3084.63  3085.64  3087.53
eigval :     3091.35  3092.79  3093.39  3095.07  3097.92  3101.67
eigval :     3102.00  3106.44  3107.43

   temp. (K)  partition function   enthalpy   heat capacity  entropy
                                   cal/mol     cal/K/mol   cal/K/mol   J/K/mol
 298.15  VIB  0.115E+24            28001.618    167.205    177.408
         ROT  0.132E+09              888.752      2.981     40.134
         INT  0.152E+32            28890.371    170.185    217.542
         TR   0.169E+29             1481.254      4.968     45.379
         TOT                       30371.6246   175.1536   262.9213  1100.0628

       T/K    H(0)-H(T)+PV         H(T)/Eh          T*S/Eh         G(T)/Eh
   ------------------------------------------------------------------------
    298.15    0.484003E-01    0.785921E+00    0.124922E+00    0.660998E+00
   ------------------------------------------------------------------------

         :::::::::::::::::::::::::::::::::::::::::::::::::::::
         ::                  THERMODYNAMIC                  ::
         :::::::::::::::::::::::::::::::::::::::::::::::::::::
         :: total free energy        -134.308516366501 Eh   ::
         ::.................................................::
         :: total energy             -134.969514770388 Eh   ::
         :: zero point energy           0.737520546937 Eh   ::
         :: G(RRHO) w/o ZPVE           -0.076522143049 Eh   ::
         :: G(RRHO) contrib.            0.660998403888 Eh   ::
         :::::::::::::::::::::::::::::::::::::::::::::::::::::

           -------------------------------------------------
          | TOTAL ENERGY             -134.969514770388 Eh   |
          | TOTAL ENTHALPY           -134.183593958765 Eh   |
          | TOTAL FREE ENERGY        -134.308516366501 Eh   |
          | GRADIENT NORM               0.000069329385 Eh/α |
          | HOMO-LUMO GAP               1.835077279313 eV   |
           -------------------------------------------------

 * finished run on 2025/07/19 at 05:24:57.356
