   * xtb version 6.7.1 (edcfbbe) compiled by 'albert@albert-system' on 2024-07-22

   ID    Z sym.   atoms
    1    6 C      1-6, 8-11, 13-21, 23-28, 30-52
    2    5 B      7
    3    7 N      12, 22
    4    8 O      29
    5    1 H      53-93

          program call               : xtb data2507/toluene/PCDMB/PCDMB_toluene_S0_crest.xyz --gfn 2 --gbsa toluene --ohess vtight --parallel 40 --molden --ceasefiles --namespace data2507/toluene/PCDMB/PCDMB_toluene_S0_finalOpt
      * Solvation model:               GBSA
        Solvent                        toluene
        Solvent mass                       9.2140E+01 g/mol
          :  Hamiltonian                  GFN2-xTB          :
 * total energy  :  -134.9693049 Eh     change       -0.1212669E-08 Eh
 * total energy  :  -134.9693916 Eh     change       -0.8668967E-04 Eh
 * total energy  :  -134.9694471 Eh     change       -0.5544766E-04 Eh
 * total energy  :  -134.9694635 Eh     change       -0.1647230E-04 Eh
 * total energy  :  -134.9694754 Eh     change       -0.1185344E-04 Eh
 * total energy  :  -134.9694827 Eh     change       -0.7342857E-05 Eh
 * total energy  :  -134.9694891 Eh     change       -0.6317390E-05 Eh
 * total energy  :  -134.9694931 Eh     change       -0.4041568E-05 Eh
 * total energy  :  -134.9694951 Eh     change       -0.2002065E-05 Eh
 * total energy  :  -134.9694965 Eh     change       -0.1377785E-05 Eh
 * total energy  :  -134.9695178 Eh     change       -0.5198153E-06 Eh
 * total energy  :  -134.9695183 Eh     change       -0.4860867E-06 Eh
 * total energy  :  -134.9695182 Eh     change        0.3648850E-07 Eh
 * total energy  :  -134.9695187 Eh     change       -0.4997364E-06 Eh
 * total energy  :  -134.9695193 Eh     change       -0.5020854E-06 Eh
 * total energy  :  -134.9695194 Eh     change       -0.1041237E-06 Eh
 * total energy  :  -134.9695195 Eh     change       -0.1172445E-06 Eh
 * total energy  :  -134.9695197 Eh     change       -0.2247199E-06 Eh
 * total energy  :  -134.9695197 Eh     change       -0.1082640E-07 Eh
   *** GEOMETRY OPTIMIZATION CONVERGED AFTER 47 ITERATIONS ***

 final structure:
================
93
 xtb: 6.7.1 (edcfbbe)
C           -8.96766144638571        3.48899764103922       -1.28228112597589
C           -7.89208466486795        2.48839770956807       -0.98241008673370
C           -7.66165518218666        1.41554598672292       -1.83367424605272
C           -6.68914357428192        0.46738511451644       -1.56244890566318
C           -6.47730699594682       -0.65377526110327       -2.53802431100925
C           -5.88923337755457        0.57417678957093       -0.40964977560189
B           -4.73369562671144       -0.45348381202145       -0.13511042151205
C           -3.27985163239785        0.09971848182692        0.05145793125433
C           -2.88872812745484        1.32626975715790       -0.49859064469344
C           -1.60839040928006        1.81720275485476       -0.34366371264394
C           -0.67392084423965        1.09896884620933        0.39740798612221
N            0.62527619022143        1.60225259806700        0.57636351130853
C            0.94526853419879        2.86417978160558        1.03652783967801
C            0.11000740802227        3.89242067591179        1.45191443814907
C            0.69791031458637        5.06208904084122        1.89339239764737
C            2.08341281807390        5.21220776217987        1.93303875443097
C            2.91998128095210        4.18554945278044        1.54370240778502
C            2.35184405415979        2.99920457605481        1.09574587683243
C            2.89825229705292        1.75169668124543        0.64188437884887
C            4.19389512133606        1.28700718941189        0.46772089402662
C            4.37480386874947        0.00773941257743       -0.03216804424309
N            5.69040820203504       -0.49288855814054       -0.22752819003728
C            6.20175339750860       -1.47853571597862        0.61202809908836
C            5.47028167771709       -1.99866032879664        1.67275203441445
C            6.00617215145625       -2.98304796530635        2.49006818389498
C            7.28190032682721       -3.45853592541764        2.26529253357716
C            8.03304581967224       -2.93598872487562        1.22043738689630
C            7.50378220303203       -1.95516762504255        0.40420090382481
O            8.31369174758458       -1.47200637114962       -0.60077120402041
C            7.79018372236108       -0.49323936800262       -1.41774999161173
C            8.60447225902083       -0.01595366966082       -2.42650238523863
C            8.13932056925771        0.95796507767708       -3.30060240633710
C            6.85363913942236        1.43920027207680       -3.16064786447492
C            6.03270926572240        0.96380268410045       -2.14862990055789
C            6.48885701911111        0.00259191980908       -1.25488055404078
C            3.28009025354425       -0.79815636093656       -0.36266269101636
C            1.98494225172363       -0.35685907266312       -0.18345288768491
C            1.79553266198473        0.91837898253230        0.33385553502563
C           -1.03907947673693       -0.11967505544767        0.96296829767159
C           -2.31605679453956       -0.60925706294120        0.77820343317962
C           -4.96038095206655       -2.00442478255413       -0.03672204424264
C           -4.24997287610851       -2.90245468570420       -0.84596168233710
C           -3.31073020572120       -2.43631333997633       -1.92370228457931
C           -4.42889591578110       -4.27362253841738       -0.70772033269016
C           -5.30109973162097       -4.80060839467481        0.22848042478288
C           -5.49955329687948       -6.27977232335118        0.37266924940159
C           -6.00800534962894       -3.91268893301925        1.03026445309619
C           -5.85558547272243       -2.54217035678914        0.90740859955069
C           -6.63250068695313       -1.64088188487641        1.82273916670942
C           -6.12735790911560        1.65573219277495        0.45116003970012
C           -5.36432649039381        1.83770372207976        1.73431329508441
C           -7.11621160219713        2.58668101142158        0.16026963763286
H           -9.03172396677528        3.67963360033177       -2.35200126742196
H           -8.78063494004889        4.42814777808164       -0.76608079583501
H           -9.93483660069665        3.10678907922094       -0.95194204298043
H           -8.25917212617684        1.31869874553127       -2.73063629197786
H           -5.49738894393739       -0.57137240712784       -3.00571060152322
H           -7.23380080088760       -0.63175216555112       -3.31954339984718
H           -6.52344691441991       -1.61514220039628       -2.03156642808889
H           -3.60649589959366        1.89548744897099       -1.07182595371595
H           -1.31962889120728        2.75314703713222       -0.79957817190276
H           -0.96349115082636        3.78095942937922        1.43915284222858
H            0.06971531500916        5.87863192614545        2.21835416701512
H            2.50359225648166        6.14400974196851        2.28201089869842
H            3.99318962784403        4.29579273637670        1.58771442620266
H            5.04579785952963        1.90653742861292        0.70409328042956
H            4.47561213966911       -1.62559500091157        1.86023662972790
H            5.41445597845307       -3.37160281585613        3.30502607478513
H            7.70375252766117       -4.22588191462498        2.89537194451918
H            9.03768570706103       -3.27766230839130        1.02505311948807
H            9.60064270744803       -0.42087648845486       -2.51529808565195
H            8.78366092025988        1.32517399582224       -4.08405007779036
H            6.47431882470508        2.18886398084214       -3.83844315207537
H            5.02629046935845        1.33988814880953       -2.05094846470819
H            3.46425666444207       -1.78321562059350       -0.76536610578604
H            1.14791076854253       -0.98203668344711       -0.45297734536630
H           -0.31974206935012       -0.67023606399744        1.55174763356008
H           -2.58634274396023       -1.55829077588418        1.21879795613359
H           -3.64447958271192       -2.80931008916189       -2.89222438031282
H           -2.31020810755191       -2.83071325819007       -1.74624337623849
H           -3.25525368991917       -1.35362576137787       -1.96820238345522
H           -3.87092366129875       -4.94090276338487       -1.35164665719080
H           -4.77233034027882       -6.83051666733407       -0.21945577566063
H           -5.40249525978538       -6.57920728155997        1.41552934021799
H           -6.49937296379509       -6.55940085720035        0.03877669450309
H           -6.69575459204217       -4.30549410023433        1.76759763323419
H           -7.34454180964854       -2.21348150436180        2.41319309381655
H           -5.96119437195109       -1.12092119369288        2.50470065179452
H           -7.17295454431327       -0.88932620393640        1.25204871734183
H           -4.69367334441840        1.00635384437170        1.92462056292471
H           -6.05822204504224        1.92747311719930        2.56992361960037
H           -4.77678666624074        2.75512447524455        1.69353195907463
H           -7.28090512435071        3.40716011376521        0.84642543072033

          :  Hamiltonian                  GFN2-xTB          :
         :: gradient norm              0.000135878330 Eh/a0 ::
         :: HOMO-LUMO gap              1.829824958431 eV    ::
         :: SCC energy              -137.382188728687 Eh    ::
         :: -> dispersion             -0.125490977117 Eh    ::
         :: -> Gsolv                  -0.053406864242 Eh    ::
         :: repulsion energy           2.412669020786 Eh    ::

    * Orbital Energies and Occupations

         #    Occupation            Energy/Eh            Energy/eV
      -------------------------------------------------------------
         1        2.0000           -0.7259884             -19.7551
       ...           ...                  ...                  ...
       114        2.0000           -0.4096785             -11.1479
       115        2.0000           -0.4085654             -11.1176
       116        2.0000           -0.4064287             -11.0595
       117        2.0000           -0.3992896             -10.8652
       118        2.0000           -0.3912549             -10.6466
       119        2.0000           -0.3881719             -10.5627
       120        2.0000           -0.3845909             -10.4653
       121        2.0000           -0.3789362             -10.3114
       122        2.0000           -0.3777232             -10.2784
       123        2.0000           -0.3727270             -10.1424
       124        2.0000           -0.3671017              -9.9893
       125        2.0000           -0.3661815              -9.9643
       126        2.0000           -0.3386531              -9.2152 (HOMO)
       127                         -0.2714083              -7.3854 (LUMO)
       128                         -0.2514189              -6.8415
       129                         -0.2352213              -6.4007
       130                         -0.2306008              -6.2750
       131                         -0.2269344              -6.1752
       132                         -0.2260015              -6.1498
       133                         -0.2197247              -5.9790
       134                         -0.2122729              -5.7762
       135                         -0.2093855              -5.6977
       136                         -0.2058864              -5.6025
       137                         -0.2046490              -5.5688
       ...                                ...                  ...
       249                          0.7388182              20.1043
      -------------------------------------------------------------
                  HL-Gap            0.0672447 Eh            1.8298 eV

     #   Z          covCN         q      C6AA      α(0)
     1   6 C        3.757    -0.106    22.587     6.776
     2   6 C        2.962     0.010    27.794     8.647
     3   6 C        2.929    -0.058    29.443     8.899
     4   6 C        2.967     0.010    27.780     8.645
     5   6 C        3.759    -0.113    22.711     6.794
     6   6 C        2.889    -0.083    30.084     8.992
     7   5 B        2.709     0.251    17.703     7.056
     8   6 C        2.883    -0.061    29.517     8.907
     9   6 C        2.924    -0.026    28.650     8.778
    10   6 C        2.917    -0.044    29.082     8.843
    11   6 C        2.914     0.064    26.576     8.454
    12   7 N        2.802    -0.040    22.009     6.968
    13   6 C        3.079     0.048    26.838     8.493
    14   6 C        2.909    -0.050    29.247     8.868
    15   6 C        2.924    -0.033    28.832     8.806
    16   6 C        2.920    -0.041    29.026     8.835
    17   6 C        2.912    -0.034    28.835     8.805
    18   6 C        3.067    -0.018    28.385     8.736
    19   6 C        3.069    -0.017    28.356     8.732
    20   6 C        2.914    -0.044    29.096     8.845
    21   6 C        2.921     0.052    26.826     8.494
    22   7 N        2.752    -0.079    22.782     7.089
    23   6 C        2.923     0.045    26.996     8.520
    24   6 C        2.924    -0.062    29.550     8.914
    25   6 C        2.919    -0.040    29.002     8.831
    26   6 C        2.919    -0.044    29.089     8.844
    27   6 C        2.919    -0.060    29.485     8.904
    28   6 C        2.881     0.120    25.358     8.255
    29   8 O        1.708    -0.279    18.631     5.828
    30   6 C        2.881     0.120    25.358     8.255
    31   6 C        2.919    -0.060    29.485     8.904
    32   6 C        2.919    -0.044    29.088     8.844
    33   6 C        2.919    -0.040    29.000     8.831
    34   6 C        2.924    -0.062    29.547     8.914
    35   6 C        2.923     0.045    26.996     8.521
    36   6 C        2.925    -0.044    29.102     8.847
    37   6 C        2.909    -0.050    29.244     8.867
    38   6 C        3.077     0.047    26.874     8.499
    39   6 C        2.917    -0.044    29.092     8.845
    40   6 C        2.924    -0.026    28.651     8.778
    41   6 C        2.889    -0.083    30.080     8.992
    42   6 C        2.967     0.011    27.775     8.645
    43   6 C        3.759    -0.111    22.668     6.788
    44   6 C        2.930    -0.059    29.454     8.900
    45   6 C        2.962     0.010    27.798     8.648
    46   6 C        3.757    -0.106    22.587     6.776
    47   6 C        2.929    -0.058    29.447     8.899
    48   6 C        2.967     0.010    27.785     8.646
    49   6 C        3.759    -0.113    22.708     6.794
    50   6 C        2.967     0.011    27.776     8.645
    51   6 C        3.759    -0.110    22.661     6.787
    52   6 C        2.930    -0.059    29.459     8.901
    53   1 H        0.925     0.040     2.446     2.446
    54   1 H        0.925     0.039     2.463     2.454
    55   1 H        0.924     0.044     2.397     2.421
    56   1 H        0.925     0.021     2.723     2.581
    57   1 H        0.925     0.043     2.406     2.426
    58   1 H        0.925     0.036     2.498     2.472
    59   1 H        0.925     0.049     2.328     2.386
    60   1 H        0.926     0.038     2.478     2.462
    61   1 H        0.926     0.037     2.490     2.468
    62   1 H        0.926     0.034     2.525     2.485
    63   1 H        0.926     0.033     2.544     2.494
    64   1 H        0.926     0.030     2.582     2.513
    65   1 H        0.926     0.032     2.556     2.500
    66   1 H        0.926     0.039     2.465     2.455
    67   1 H        0.926     0.037     2.490     2.468
    68   1 H        0.926     0.038     2.472     2.459
    69   1 H        0.926     0.038     2.470     2.458
    70   1 H        0.926     0.044     2.401     2.423
    71   1 H        0.926     0.044     2.400     2.423
    72   1 H        0.926     0.038     2.470     2.458
    73   1 H        0.926     0.038     2.474     2.460
    74   1 H        0.926     0.037     2.495     2.470
    75   1 H        0.926     0.039     2.458     2.452
    76   1 H        0.926     0.042     2.421     2.433
    77   1 H        0.926     0.036     2.498     2.472
    78   1 H        0.926     0.038     2.478     2.462
    79   1 H        0.925     0.043     2.411     2.428
    80   1 H        0.925     0.041     2.439     2.442
    81   1 H        0.925     0.041     2.434     2.440
    82   1 H        0.925     0.021     2.714     2.576
    83   1 H        0.925     0.038     2.478     2.462
    84   1 H        0.925     0.042     2.426     2.436
    85   1 H        0.924     0.043     2.406     2.426
    86   1 H        0.925     0.021     2.719     2.578
    87   1 H        0.925     0.036     2.496     2.471
    88   1 H        0.925     0.043     2.415     2.430
    89   1 H        0.925     0.050     2.326     2.385
    90   1 H        0.925     0.041     2.438     2.442
    91   1 H        0.925     0.043     2.415     2.430
    92   1 H        0.925     0.041     2.433     2.439
    93   1 H        0.925     0.022     2.707     2.573

molecular dipole:
                 x           y           z       tot (Debye)
 q only:       -2.014       0.308       0.125
   full:       -1.990       0.310       0.129       5.129

 projected vibrational frequencies (cm⁻¹)
eigval :       -0.00    -0.00    -0.00     0.00     0.00     0.00
eigval :        9.29    11.16    12.45    21.17    25.65    26.57
eigval :       28.36    31.72    35.04    37.30    42.28    48.39
eigval :       51.31    55.14    58.44    76.15    80.13    98.32
eigval :      100.90   107.88   112.74   123.67   128.98   133.07
eigval :      134.67   139.75   146.82   161.99   177.40   183.39
eigval :      189.00   199.94   206.96   210.03   215.97   230.49
eigval :      251.54   266.03   268.63   274.47   275.62   281.77
eigval :      300.90   307.83   316.83   324.00   335.41   346.39
eigval :      365.04   372.34   388.45   394.03   397.98   407.73
eigval :      422.23   426.42   433.22   438.73   453.63   463.92
eigval :      479.66   484.39   489.22   498.21   499.02   505.25
eigval :      509.91   511.76   517.51   522.13   525.16   535.91
eigval :      537.56   540.10   558.35   575.22   578.12   596.35
eigval :      598.58   600.35   602.25   604.42   619.76   626.68
eigval :      638.59   659.24   660.18   671.18   679.06   681.17
eigval :      684.18   694.56   706.35   724.19   763.49   775.82
eigval :      776.35   777.16   808.94   813.31   823.68   842.76
eigval :      845.82   850.83   859.09   860.26   868.10   876.40
eigval :      877.87   878.24   882.23   890.76   893.10   893.25
eigval :      894.63   895.98   903.14   910.34   911.72   913.43
eigval :      917.24   924.81   929.25   934.64   941.95   963.38
eigval :      963.56   964.32   972.22   973.01  1018.49  1021.92
eigval :     1023.91  1026.04  1028.71  1029.40  1031.39  1033.10
eigval :     1033.81  1035.80  1039.30  1039.94  1042.50  1043.08
eigval :     1069.50  1088.16  1089.48  1101.73  1104.38  1108.77
eigval :     1123.48  1134.38  1149.48  1162.86  1167.56  1174.97
eigval :     1177.45  1180.12  1181.65  1189.30  1194.05  1197.69
eigval :     1204.64  1216.26  1222.19  1230.19  1235.33  1236.55
eigval :     1240.04  1243.79  1257.57  1269.55  1274.60  1289.03
eigval :     1299.89  1302.31  1304.14  1306.27  1318.61  1334.39
eigval :     1336.34  1337.75  1348.79  1353.84  1357.83  1373.01
eigval :     1394.53  1396.19  1398.55  1401.83  1403.45  1404.18
eigval :     1405.98  1419.49  1423.21  1425.21  1426.94  1427.98
eigval :     1442.04  1451.29  1455.25  1470.29  1473.82  1476.73
eigval :     1478.87  1480.55  1480.77  1482.22  1482.33  1483.01
eigval :     1483.16  1483.71  1485.88  1486.03  1487.25  1493.12
eigval :     1494.35  1505.32  1545.42  1559.70  1560.19  1563.77
eigval :     1565.14  1579.39  1580.89  1583.88  1587.36  1594.63
eigval :     1599.20  1601.36  1603.41  1612.14  2987.30  2993.00
eigval :     2994.04  2994.38  3008.04  3008.68  3008.95  3011.83
eigval :     3013.88  3023.87  3029.71  3030.52  3031.41  3035.09
eigval :     3036.32  3037.03  3053.07  3053.17  3056.18  3056.94
eigval :     3064.45  3064.83  3071.14  3072.21  3074.00  3079.36
eigval :     3082.54  3083.89  3084.48  3084.86  3085.33  3087.66
eigval :     3091.25  3092.56  3093.16  3094.84  3098.04  3101.09
eigval :     3101.40  3105.87  3106.85

   temp. (K)  partition function   enthalpy   heat capacity  entropy
                                   cal/mol     cal/K/mol   cal/K/mol   J/K/mol
 298.15  VIB  0.241E+24            28046.497    166.816    177.962
         ROT  0.132E+09              888.752      2.981     40.136
         INT  0.317E+32            28935.249    169.797    218.099
         TR   0.169E+29             1481.254      4.968     45.379
         TOT                       30416.5031   174.7648   263.4775  1102.3901

       T/K    H(0)-H(T)+PV         H(T)/Eh          T*S/Eh         G(T)/Eh
   ------------------------------------------------------------------------
    298.15    0.484718E-01    0.785937E+00    0.125187E+00    0.660751E+00
   ------------------------------------------------------------------------

         :::::::::::::::::::::::::::::::::::::::::::::::::::::
         ::                  THERMODYNAMIC                  ::
         :::::::::::::::::::::::::::::::::::::::::::::::::::::
         :: total free energy        -134.308769103546 Eh   ::
         ::.................................................::
         :: total energy             -134.969519706418 Eh   ::
         :: zero point energy           0.737465504598 Eh   ::
         :: G(RRHO) w/o ZPVE           -0.076714901727 Eh   ::
         :: G(RRHO) contrib.            0.660750602871 Eh   ::
         :::::::::::::::::::::::::::::::::::::::::::::::::::::

           -------------------------------------------------
          | TOTAL ENERGY             -134.969519706418 Eh   |
          | TOTAL ENTHALPY           -134.183582418697 Eh   |
          | TOTAL FREE ENERGY        -134.308769103546 Eh   |
          | GRADIENT NORM               0.000135855350 Eh/α |
          | HOMO-LUMO GAP               1.829822194392 eV   |
           -------------------------------------------------

 * finished run on 2025/07/19 at 05:35:07.466
