   * xtb version 6.7.1 (edcfbbe) compiled by 'albert@albert-system' on 2024-07-22

   ID    Z sym.   atoms
    1    6 C      1-6, 8-11, 13-21, 23-28, 30-52
    2    5 B      7
    3    7 N      12, 22
    4    8 O      29
    5    1 H      53-93

          program call               : xtb data2507/toluene/PCDMB/PCDMB_toluene_S0_finalOpt.xtbopt.xyz --gfn 2 --uhf 2 --gbsa toluene --ohess vtight --parallel 40 --molden --ceasefiles --namespace data2507/toluene/PCDMB/PCDMB_toluene_T1_preOpt
      * Solvation model:               GBSA
        Solvent                        toluene
        Solvent mass                       9.2140E+01 g/mol
          :  Hamiltonian                  GFN2-xTB          :
 * total energy  :  -134.8751940 Eh     change       -0.2036706E-06 Eh
 * total energy  :  -134.8774246 Eh     change       -0.2230610E-02 Eh
 * total energy  :  -134.8782792 Eh     change       -0.8545574E-03 Eh
 * total energy  :  -134.8784569 Eh     change       -0.1777652E-03 Eh
 * total energy  :  -134.8785984 Eh     change       -0.1415260E-03 Eh
 * total energy  :  -134.8786421 Eh     change       -0.4360844E-04 Eh
 * total energy  :  -134.8786779 Eh     change       -0.3589487E-04 Eh
 * total energy  :  -134.8787086 Eh     change       -0.3064820E-04 Eh
 * total energy  :  -134.8787492 Eh     change       -0.4063165E-04 Eh
 * total energy  :  -134.8788011 Eh     change       -0.5190820E-04 Eh
 * total energy  :  -134.8792294 Eh     change       -0.4985470E-06 Eh
 * total energy  :  -134.8792300 Eh     change       -0.5961967E-06 Eh
 * total energy  :  -134.8792307 Eh     change       -0.6409661E-06 Eh
 * total energy  :  -134.8792313 Eh     change       -0.6349639E-06 Eh
 * total energy  :  -134.8792319 Eh     change       -0.6146689E-06 Eh
 * total energy  :  -134.8792325 Eh     change       -0.5845859E-06 Eh
 * total energy  :  -134.8792325 Eh     change        0.1504532E-08 Eh
 * total energy  :  -134.8792325 Eh     change        0.6994782E-08 Eh
 * total energy  :  -134.8792325 Eh     change       -0.1050117E-07 Eh
   *** GEOMETRY OPTIMIZATION CONVERGED AFTER 96 ITERATIONS ***

 final structure:
================
93
 xtb: 6.7.1 (edcfbbe)
C           -9.07265341572233        3.33910575191838       -1.31731615202230
C           -7.95595338287942        2.38728253219954       -1.00658589708145
C           -7.69818394050012        1.29849803724485       -1.83041593387053
C           -6.68282837274470        0.40011057581588       -1.55027318689606
C           -6.44115258868453       -0.73877381062227       -2.49799251570309
C           -5.87073641759127        0.56317529238225       -0.41059246327168
B           -4.69820337291415       -0.44126030469139       -0.09700185166645
C           -3.26812044322937        0.11046604703367        0.09074054652674
C           -2.88364002040407        1.37534643932381       -0.40621017174316
C           -1.61469018929347        1.87294988935265       -0.24389320943336
C           -0.64601470783063        1.12473696678330        0.43608490158656
N            0.65122110412163        1.62381159965290        0.60114848916381
C            0.97997439776132        2.88776523239665        1.06430056391273
C            0.15376392597137        3.90811408963155        1.50340815000097
C            0.74806329040584        5.08220048239495        1.94084706238308
C            2.13363187081266        5.23533497569114        1.94372260263717
C            2.96618332110180        4.21401784686554        1.53132893011405
C            2.39257483729718        3.02079604808722        1.09733682714384
C            2.92737439949932        1.78065365224452        0.63520772278525
C            4.21933267048135        1.31144760162890        0.43440251085235
C            4.38768184201044        0.02647357884975       -0.06280393153447
N            5.69167295690456       -0.47485334006014       -0.27147195424973
C            6.11911869332964       -1.60654892054920        0.39920432042093
C            5.33452902248187       -2.26427879060653        1.35215782613988
C            5.79934825636487       -3.39039651369062        1.99376536448728
C            7.07545480916087       -3.89304601514567        1.71502257970850
C            7.88742277723352       -3.23688065934311        0.81373167886171
C            7.43280795608318       -2.09742702357561        0.16148269497491
O            8.29338721468406       -1.46639659215343       -0.67878224049848
C            7.86785338495573       -0.34728258571491       -1.32021754840957
C            8.75953986349960        0.28085337673019       -2.18077877174074
C            8.36974211380162        1.39430714740621       -2.89510066290432
C            7.06014208829116        1.87318310113686       -2.77401386194281
C            6.16738786649918        1.26373159616368       -1.92138374669626
C            6.55099921654126        0.16294766025742       -1.14812052254012
C            3.28357484119805       -0.78302541824035       -0.38063120836533
C            1.99222919479481       -0.32723177763596       -0.19270738391597
C            1.81116492780611        0.94302710616965        0.33624472268531
C           -0.99537059741096       -0.13346239252415        0.94207869777522
C           -2.26750589819670       -0.61931444019033        0.76905124379451
C           -4.94273426512790       -1.99318546426952        0.02666532922472
C           -4.21815666509013       -2.91606101958573       -0.74610673708679
C           -3.19937793923415       -2.47623232335548       -1.76132690948173
C           -4.43946157822821       -4.28028314654662       -0.61375327343498
C           -5.36976719088233       -4.78317026245223        0.28120085667637
C           -5.61269764249653       -6.25723008049028        0.41431694281660
C           -6.09097676118276       -3.87412102723902        1.04614153926348
C           -5.89220906448736       -2.50918092862058        0.93097327476346
C           -6.68760377651444       -1.58490741319722        1.80658427707417
C           -6.13794787689477        1.66379031311961        0.42155001416191
C           -5.35049938815880        1.91815812446554        1.67742228017014
C           -7.16384903902161        2.54839981471069        0.11933380257188
H           -9.15692535848579        3.49945205585462       -2.39085764855519
H           -8.91382837346043        4.29780963490788       -0.82797373499029
H          -10.02143024935822        2.93083207797414       -0.96452077426113
H           -8.30581015960928        1.15372223167867       -2.71480914590764
H           -5.44429301479397       -0.66759344398009       -2.93047025301828
H           -7.17053404862115       -0.73184979323361       -3.30551761517540
H           -6.50506645472209       -1.69090515566828       -1.97489233669724
H           -3.61282281766987        1.95963020394258       -0.95053957094759
H           -1.34214704417041        2.83086928746976       -0.66500182522463
H           -0.91943874454654        3.79433291643694        1.51509471347092
H            0.12399435522965        5.89222307851807        2.28821174219006
H            2.55911310707088        6.16780381382235        2.28552029481477
H            4.03934672128493        4.33126668536797        1.54864636376547
H            5.07484124234052        1.92167585332010        0.68001961959710
H            4.35635249130498       -1.87647269108919        1.58674714930523
H            5.17535728405526       -3.88355493461082        2.72218311012786
H            7.43047016056041       -4.77923472592451        2.21572702158579
H            8.88635897306280       -3.58178785965076        0.59771481343494
H            9.75205101623260       -0.13116701545520       -2.27361889448481
H            9.06587014988215        1.88129877803178       -3.55864091048491
H            6.74272372606205        2.72263671586773       -3.35776186264149
H            5.15623894760301        1.63125871517653       -1.84992934830755
H            3.45536401336350       -1.75963018614310       -0.80593957232849
H            1.14940464048955       -0.93939873091454       -0.47293810752841
H           -0.26136712978420       -0.70153626760482        1.49691348376094
H           -2.52374791145669       -1.58521573913957        1.18209706175302
H           -3.32178817695591       -3.03912797589383       -2.68634268928881
H           -2.19201823995736       -2.66340308685863       -1.38784631418157
H           -3.28782875472929       -1.41557240620029       -1.97534848156867
H           -3.86974740646520       -4.96615875444645       -1.22815191857714
H           -4.81419379933093       -6.82740812812149       -0.05547764781868
H           -5.68020957299491       -6.54309132718458        1.46313705828510
H           -6.55477609182802       -6.52756830842718       -0.06537205410414
H           -6.82364786437597       -4.24647671779517        1.75100422453415
H           -7.38911669838129       -2.14363819161318        2.42295357297976
H           -6.02647568870919       -1.01823326659888        2.46057333861534
H           -7.24307075833018       -0.87043241130022        1.20216250398646
H           -4.77649370914651        1.04348465063078        1.96777835989865
H           -6.01866116523510        2.19429457187309        2.49273743958241
H           -4.65388812349335        2.74309128089806        1.52346309927205
H           -7.34895965065628        3.38420594970382        0.78242250740517

          :  Hamiltonian                  GFN2-xTB          :
         :: gradient norm              0.000096754569 Eh/a0 ::
         :: HOMO-LUMO gap              0.042840509402 eV    ::
         :: SCC energy              -137.273639614760 Eh    ::
         :: -> dispersion             -0.126165909974 Eh    ::
         :: -> Gsolv                  -0.053404822649 Eh    ::
         :: repulsion energy           2.394407093499 Eh    ::

    * Orbital Energies and Occupations

         #    Occupation            Energy/Eh            Energy/eV
      -------------------------------------------------------------
         1        2.0000           -0.7528817             -20.4870
       ...           ...                  ...                  ...
       115        2.0000           -0.4032128             -10.9720
       116        2.0000           -0.3934555             -10.7065
       117        2.0000           -0.3925370             -10.6815
       118        2.0000           -0.3858143             -10.4985
       119        2.0000           -0.3822122             -10.4005
       120        2.0000           -0.3787561             -10.3065
       121        2.0000           -0.3717342             -10.1154
       122        2.0000           -0.3707066             -10.0874
       123        2.0000           -0.3658354              -9.9549
       124        1.9984           -0.3599429              -9.7945
       125        1.8932           -0.3558307              -9.6826
       126        1.1083           -0.3518101              -9.5732
       127        0.6948           -0.2569911              -6.9931 (HOMO)
       128        0.3027           -0.2554169              -6.9502 (LUMO)
       129        0.0025           -0.2505368              -6.8175
       130                         -0.2392343              -6.5099
       131                         -0.2347458              -6.3878
       132                         -0.2227516              -6.0614
       133                         -0.2116222              -5.7585
       134                         -0.2080941              -5.6625
       135                         -0.2076268              -5.6498
       136                         -0.2013953              -5.4802
       137                         -0.1978075              -5.3826
       138                         -0.1966913              -5.3522
       ...                                ...                  ...
       249                          0.7405073              20.1502
      -------------------------------------------------------------
                  HL-Gap            0.0015742 Eh            0.0428 eV

     #   Z          covCN         q      C6AA      α(0)
     1   6 C        3.757    -0.104    22.542     6.769
     2   6 C        2.962     0.004    27.935     8.669
     3   6 C        2.928    -0.060    29.492     8.906
     4   6 C        2.966     0.005    27.897     8.664
     5   6 C        3.759    -0.109    22.629     6.782
     6   6 C        2.887    -0.079    29.984     8.977
     7   5 B        2.709     0.205    18.347     7.183
     8   6 C        2.882    -0.070    29.750     8.942
     9   6 C        2.921    -0.036    28.896     8.815
    10   6 C        2.914    -0.048    29.193     8.860
    11   6 C        2.913     0.041    27.077     8.533
    12   7 N        2.798    -0.024    21.705     6.919
    13   6 C        3.078     0.044    26.919     8.506
    14   6 C        2.909    -0.047    29.168     8.856
    15   6 C        2.923    -0.040    29.006     8.832
    16   6 C        2.918    -0.039    28.968     8.826
    17   6 C        2.911    -0.038    28.944     8.822
    18   6 C        3.061    -0.021    28.472     8.750
    19   6 C        3.066    -0.020    28.444     8.745
    20   6 C        2.912    -0.046    29.141     8.852
    21   6 C        2.925     0.046    26.978     8.518
    22   7 N        2.752    -0.004    21.333     6.860
    23   6 C        2.924     0.033    27.252     8.561
    24   6 C        2.917    -0.049    29.222     8.864
    25   6 C        2.916    -0.038    28.935     8.821
    26   6 C        2.917    -0.036    28.884     8.813
    27   6 C        2.913    -0.052    29.303     8.877
    28   6 C        2.885     0.123    25.304     8.247
    29   8 O        1.710    -0.217    17.608     5.666
    30   6 C        2.885     0.123    25.303     8.247
    31   6 C        2.913    -0.052    29.301     8.876
    32   6 C        2.917    -0.035    28.883     8.813
    33   6 C        2.916    -0.038    28.933     8.821
    34   6 C        2.917    -0.049    29.218     8.864
    35   6 C        2.924     0.033    27.255     8.561
    36   6 C        2.922    -0.053    29.329     8.881
    37   6 C        2.908    -0.047    29.171     8.856
    38   6 C        3.073     0.046    26.889     8.502
    39   6 C        2.914    -0.049    29.214     8.863
    40   6 C        2.921    -0.036    28.903     8.816
    41   6 C        2.887    -0.079    29.981     8.977
    42   6 C        2.966     0.006    27.885     8.662
    43   6 C        3.759    -0.107    22.599     6.777
    44   6 C        2.929    -0.060    29.490     8.906
    45   6 C        2.962     0.004    27.938     8.670
    46   6 C        3.757    -0.104    22.543     6.769
    47   6 C        2.928    -0.060    29.494     8.906
    48   6 C        2.967     0.005    27.898     8.664
    49   6 C        3.759    -0.109    22.626     6.781
    50   6 C        2.966     0.006    27.884     8.662
    51   6 C        3.759    -0.107    22.589     6.776
    52   6 C        2.929    -0.060    29.490     8.906
    53   1 H        0.925     0.038     2.481     2.463
    54   1 H        0.925     0.036     2.499     2.472
    55   1 H        0.924     0.041     2.437     2.441
    56   1 H        0.925     0.014     2.826     2.629
    57   1 H        0.925     0.040     2.444     2.445
    58   1 H        0.925     0.032     2.561     2.502
    59   1 H        0.925     0.046     2.370     2.408
    60   1 H        0.925     0.020     2.728     2.583
    61   1 H        0.925     0.021     2.712     2.575
    62   1 H        0.926     0.031     2.568     2.506
    63   1 H        0.926     0.028     2.620     2.531
    64   1 H        0.926     0.028     2.612     2.527
    65   1 H        0.926     0.031     2.574     2.509
    66   1 H        0.926     0.043     2.404     2.424
    67   1 H        0.926     0.053     2.288     2.366
    68   1 H        0.926     0.049     2.333     2.389
    69   1 H        0.926     0.051     2.310     2.377
    70   1 H        0.926     0.058     2.228     2.334
    71   1 H        0.926     0.058     2.227     2.334
    72   1 H        0.926     0.051     2.308     2.376
    73   1 H        0.926     0.049     2.331     2.387
    74   1 H        0.926     0.052     2.291     2.367
    75   1 H        0.926     0.041     2.435     2.440
    76   1 H        0.926     0.043     2.409     2.427
    77   1 H        0.925     0.022     2.699     2.569
    78   1 H        0.925     0.021     2.713     2.576
    79   1 H        0.925     0.036     2.508     2.476
    80   1 H        0.924     0.038     2.476     2.461
    81   1 H        0.925     0.040     2.450     2.448
    82   1 H        0.925     0.015     2.807     2.620
    83   1 H        0.925     0.036     2.503     2.474
    84   1 H        0.925     0.038     2.472     2.459
    85   1 H        0.924     0.040     2.443     2.444
    86   1 H        0.925     0.014     2.826     2.629
    87   1 H        0.925     0.032     2.562     2.503
    88   1 H        0.925     0.040     2.450     2.448
    89   1 H        0.925     0.046     2.375     2.410
    90   1 H        0.925     0.040     2.450     2.448
    91   1 H        0.925     0.035     2.512     2.479
    92   1 H        0.924     0.037     2.486     2.465
    93   1 H        0.925     0.015     2.812     2.623

molecular dipole:
                 x           y           z       tot (Debye)
 q only:        3.740      -0.304      -0.177
   full:        3.630      -0.292      -0.170       9.266

 projected vibrational frequencies (cm⁻¹)
eigval :       -0.00    -0.00    -0.00     0.00     0.00     0.00
eigval :        7.44    10.23    13.87    22.89    27.21    28.66
eigval :       31.51    35.39    41.84    48.18    51.92    58.60
eigval :       62.38    68.55    71.28    90.17    96.06    99.22
eigval :      105.02   106.12   115.29   130.51   134.06   140.53
eigval :      141.86   144.34   150.07   164.16   180.28   183.85
eigval :      187.78   199.59   206.59   209.60   222.21   236.69
eigval :      241.51   263.82   272.53   274.60   275.95   285.01
eigval :      299.58   310.69   317.47   323.78   324.41   343.36
eigval :      369.48   374.65   384.17   386.53   395.09   403.30
eigval :      413.67   419.73   427.69   444.68   447.31   466.65
eigval :      469.72   472.76   480.70   484.63   492.68   495.24
eigval :      503.09   508.64   510.33   516.39   521.53   530.94
eigval :      537.40   540.21   549.51   565.88   572.94   585.29
eigval :      591.40   596.37   598.17   598.92   610.80   622.90
eigval :      629.18   638.94   647.91   655.55   664.44   669.03
eigval :      675.30   679.41   694.49   718.02   738.28   758.28
eigval :      759.64   759.95   802.12   806.81   812.22   838.12
eigval :      840.11   848.02   850.07   851.57   857.74   859.28
eigval :      862.96   868.42   875.80   880.47   884.09   886.27
eigval :      890.00   892.16   894.75   895.61   899.96   902.69
eigval :      904.09   905.58   916.51   923.15   930.73   933.84
eigval :      961.96   962.38   971.21   972.54   979.28  1005.30
eigval :     1019.60  1020.91  1022.16  1027.37  1027.57  1030.33
eigval :     1031.13  1032.60  1032.90  1035.29  1040.29  1042.23
eigval :     1042.45  1065.52  1066.60  1077.40  1095.27  1110.67
eigval :     1118.38  1121.18  1130.19  1140.11  1144.31  1165.32
eigval :     1168.71  1173.68  1178.54  1180.79  1190.04  1201.79
eigval :     1201.96  1203.40  1218.59  1220.83  1232.96  1234.16
eigval :     1235.81  1241.56  1245.51  1265.69  1268.29  1277.43
eigval :     1286.37  1301.16  1301.81  1307.82  1312.90  1316.97
eigval :     1319.53  1336.23  1346.51  1349.33  1355.23  1360.44
eigval :     1370.70  1396.06  1396.69  1398.33  1400.92  1401.24
eigval :     1401.70  1404.64  1405.23  1410.29  1414.80  1423.08
eigval :     1423.14  1425.66  1426.21  1428.14  1443.00  1451.50
eigval :     1452.08  1462.77  1469.40  1474.14  1474.77  1475.88
eigval :     1478.58  1479.93  1480.44  1482.46  1482.91  1483.77
eigval :     1484.60  1485.82  1486.84  1487.03  1494.05  1494.88
eigval :     1499.50  1509.71  1526.20  1537.04  1539.46  1551.02
eigval :     1562.21  1570.67  1572.39  1589.72  2979.66  2985.08
eigval :     2988.86  2989.57  3006.01  3006.71  3007.85  3008.30
eigval :     3013.70  3019.38  3022.39  3023.11  3027.47  3027.87
eigval :     3029.11  3031.37  3042.44  3042.81  3045.57  3045.99
eigval :     3051.56  3052.65  3056.24  3057.73  3067.93  3071.17
eigval :     3071.40  3079.44  3086.94  3091.96  3094.11  3095.93
eigval :     3096.44  3096.76  3101.15  3101.52  3102.59  3108.86
eigval :     3110.03  3114.20  3114.98

   temp. (K)  partition function   enthalpy   heat capacity  entropy
                                   cal/mol     cal/K/mol   cal/K/mol   J/K/mol
 298.15  VIB  0.384E+23            28065.793    170.175    177.263
         ROT  0.132E+09              888.752      2.981     40.136
         INT  0.506E+31            28954.545    173.155    217.400
         TR   0.169E+29             1481.254      4.968     45.379
         TOT                       30435.7991   178.1236   262.7786  1099.4658

       T/K    H(0)-H(T)+PV         H(T)/Eh          T*S/Eh         G(T)/Eh
   ------------------------------------------------------------------------
    298.15    0.485025E-01    0.780821E+00    0.124855E+00    0.655966E+00
   ------------------------------------------------------------------------

         :::::::::::::::::::::::::::::::::::::::::::::::::::::
         ::                  THERMODYNAMIC                  ::
         :::::::::::::::::::::::::::::::::::::::::::::::::::::
         :: total free energy        -134.223266318140 Eh   ::
         ::.................................................::
         :: total energy             -134.879232521791 Eh   ::
         :: zero point energy           0.732318276131 Eh   ::
         :: G(RRHO) w/o ZPVE           -0.076352072480 Eh   ::
         :: G(RRHO) contrib.            0.655966203650 Eh   ::
         :::::::::::::::::::::::::::::::::::::::::::::::::::::

           -------------------------------------------------
          | TOTAL ENERGY             -134.879232521791 Eh   |
          | TOTAL ENTHALPY           -134.098411712528 Eh   |
          | TOTAL FREE ENERGY        -134.223266318140 Eh   |
          | GRADIENT NORM               0.000096084075 Eh/α |
          | HOMO-LUMO GAP               0.042834817605 eV   |
           -------------------------------------------------

 * finished run on 2025/07/19 at 05:35:24.893
