   * xtb version 6.7.1 (edcfbbe) compiled by 'albert@albert-system' on 2024-07-22

   ID    Z sym.   atoms
    1    6 C      1-12, 14-17, 19-22, 24-33, 35-39
    2    7 N      13, 23, 34
    3   16 S      18
    4    1 H      40-60

          program call               : xtb data2507/toluene/ZDN/ZDN.xyz --gfn 2 --gbsa toluene --ohess vtight --parallel 40 --molden --ceasefiles --namespace data2507/toluene/ZDN/ZDN_toluene_S0_preOpt
      * Solvation model:               GBSA
        Solvent                        toluene
        Solvent mass                       9.2140E+01 g/mol
          :  Hamiltonian                  GFN2-xTB          :
 * total energy  :   -97.7911888 Eh     change       -0.2579483E-08 Eh
 * total energy  :   -97.8063540 Eh     change       -0.1516523E-01 Eh
 * total energy  :   -97.8098371 Eh     change       -0.3483090E-02 Eh
 * total energy  :   -97.8104403 Eh     change       -0.6031803E-03 Eh
 * total energy  :   -97.8108473 Eh     change       -0.4070675E-03 Eh
 * total energy  :   -97.8110036 Eh     change       -0.1562473E-03 Eh
 * total energy  :   -97.8111193 Eh     change       -0.1156890E-03 Eh
 * total energy  :   -97.8111841 Eh     change       -0.6485395E-04 Eh
 * total energy  :   -97.8112289 Eh     change       -0.4478573E-04 Eh
 * total energy  :   -97.8112843 Eh     change       -0.5540547E-04 Eh
 * total energy  :   -97.8116946 Eh     change       -0.2252890E-05 Eh
 * total energy  :   -97.8116969 Eh     change       -0.2354782E-05 Eh
 * total energy  :   -97.8116990 Eh     change       -0.2108026E-05 Eh
 * total energy  :   -97.8117006 Eh     change       -0.1591110E-05 Eh
 * total energy  :   -97.8117018 Eh     change       -0.1140669E-05 Eh
 * total energy  :   -97.8117026 Eh     change       -0.8614016E-06 Eh
 * total energy  :   -97.8117034 Eh     change       -0.7509333E-06 Eh
 * total energy  :   -97.8117042 Eh     change       -0.8145421E-06 Eh
 * total energy  :   -97.8117042 Eh     change       -0.7609515E-08 Eh
   *** GEOMETRY OPTIMIZATION CONVERGED AFTER 44 ITERATIONS ***

 final structure:
================
60
 xtb: 6.7.1 (edcfbbe)
C            3.91978817505395       -3.18576687149364       -2.62413325822912
C            2.85110796290685       -2.32170876860783       -2.85504908480015
C            2.71225468217051       -1.14089848441462       -2.15051308895681
C            3.67062560896593       -0.84012944613008       -1.19254299335102
C            4.76935219314537       -1.70134507729857       -0.96559510725869
C            4.88771279259490       -2.88241984174178       -1.68731569512675
C            5.57682443401267       -1.07579791970064        0.04437784679440
C            6.75303730225168       -1.43910752382956        0.68828829838831
C            7.26644991552111       -0.59663789585960        1.65430825699087
C            6.61421101738581        0.58798651126478        1.99111272827675
C            5.44312783463660        0.97051648195673        1.36505161475554
C            4.93432448321755        0.13941271130574        0.37658971151454
N            3.78446765557386        0.26963099891380       -0.37796412483318
C            2.88848646303032        1.34799476188144       -0.32681527034352
C            3.37475808006526        2.65671974008327       -0.43264557184926
C            2.51752202478611        3.73536264191789       -0.36687683793368
C            1.16040394481967        3.49884540925720       -0.21239027838403
S           -0.09041788491362        4.71811576397302       -0.09957152484206
C           -1.31550299008641        3.47930766107339        0.06420632746918
C           -2.67414460029809        3.69328051472061        0.23366942217520
C           -3.50954002894688        2.60095938957630        0.34698545412093
C           -2.99862005979572        1.30033609614074        0.26815182081270
N           -3.86254204486075        0.19880186731308        0.37724128053130
C           -5.12216305727603        0.06771588644514       -0.18745006406932
C           -5.78297851988030        0.89395071124849       -1.08586076258493
C           -7.03975299532170        0.51037433245954       -1.51603628173798
C           -7.63180364244068       -0.67247916344155       -1.07856399924032
C           -6.96760484469059       -1.51760264724012       -0.21231035216221
C           -5.70277070535679       -1.15271702217470        0.23220353891286
C           -4.73866935257688       -1.79023745229196        1.08155909039123
C           -4.67544594035070       -2.97437747101887        1.79889058095840
C           -3.51223953128539       -3.22578851646090        2.51102377787680
C           -2.47451336056645       -2.29941947878858        2.48458675799020
N           -2.50477593319921       -1.15908940275411        1.81086603705118
C           -3.61449198466600       -0.92402562034337        1.12872761011211
C           -1.63706108811050        1.08863162020297        0.11517551685446
C           -0.78156402592457        2.17968240273682        0.02355426773785
C            0.65133090212248        2.19156181783490       -0.12637209959989
C            1.52964764678343        1.11527114097042       -0.17289258546053
H            3.99235861648733       -4.10025778308508       -3.19455790457485
H            2.11630514104114       -2.57896812955326       -3.60419138218013
H            1.88976534822609       -0.47065185270278       -2.35056579440224
H            5.72337362414609       -3.54511460315441       -1.51845361210461
H            7.25014377641831       -2.36460239203433        0.43824694182828
H            8.18126550537169       -0.85931560802600        2.16511324589605
H            7.03148023651980        1.22017612590449        2.76145901292313
H            4.93764931788439        1.88189530995544        1.64659866300538
H            4.43248452804330        2.81533114110939       -0.57630457838742
H            2.89178657699122        4.74434755858725       -0.44198464604122
H           -3.06769193790651        4.69623377153646        0.28832980850498
H           -4.56403398617993        2.74958897649521        0.51883981389520
H           -5.32835830940718        1.80003520664828       -1.45478042748676
H           -7.57234235003606        1.14111273204926       -2.21230826282347
H           -8.61699996323561       -0.93443114959796       -1.43439650557567
H           -7.41327113551694       -2.44628474030299        0.11072655023194
H           -5.49822029957561       -3.67427814252657        1.80266013580100
H           -3.40358077884381       -4.13254156857183        3.08521443256084
H           -1.55889923939070       -2.47840318537347        3.03302362116753
H           -1.25016084684895        0.08376657330761        0.08371624034024
H            1.15811964730846        0.10745590164532       -0.07205531152771

          :  Hamiltonian                  GFN2-xTB          :
         :: gradient norm              0.000065132676 Eh/a0 ::
         :: HOMO-LUMO gap              2.592529668595 eV    ::
         :: SCC energy               -99.588112014391 Eh    ::
         :: -> dispersion             -0.085578295546 Eh    ::
         :: -> Gsolv                  -0.041167870522 Eh    ::
         :: repulsion energy           1.776407807669 Eh    ::

    * Orbital Energies and Occupations

         #    Occupation            Energy/Eh            Energy/eV
      -------------------------------------------------------------
         1        2.0000           -0.7308750             -19.8881
       ...           ...                  ...                  ...
        79        2.0000           -0.4238738             -11.5342
        80        2.0000           -0.4222484             -11.4900
        81        2.0000           -0.4197332             -11.4215
        82        2.0000           -0.4184065             -11.3854
        83        2.0000           -0.4175925             -11.3633
        84        2.0000           -0.4052496             -11.0274
        85        2.0000           -0.3992492             -10.8641
        86        2.0000           -0.3920302             -10.6677
        87        2.0000           -0.3874645             -10.5434
        88        2.0000           -0.3785818             -10.3017
        89        2.0000           -0.3766377             -10.2488
        90        2.0000           -0.3719488             -10.1212
        91        2.0000           -0.3610985              -9.8260 (HOMO)
        92                         -0.2658248              -7.2335 (LUMO)
        93                         -0.2642991              -7.1919
        94                         -0.2482617              -6.7555
        95                         -0.2446460              -6.6572
        96                         -0.2385520              -6.4913
        97                         -0.2354265              -6.4063
        98                         -0.2219693              -6.0401
        99                         -0.2118607              -5.7650
       100                         -0.2110885              -5.7440
       101                         -0.2017221              -5.4891
       102                         -0.1985124              -5.4018
       ...                                ...                  ...
       182                          0.7443288              20.2542
      -------------------------------------------------------------
                  HL-Gap            0.0952737 Eh            2.5925 eV

     #   Z          covCN         q      C6AA      α(0)
     1   6 C        2.920    -0.043    29.058     8.840
     2   6 C        2.924    -0.035    28.871     8.812
     3   6 C        2.910    -0.052    29.292     8.875
     4   6 C        3.074     0.047    26.875     8.500
     5   6 C        3.067    -0.018    28.393     8.737
     6   6 C        2.912    -0.035    28.864     8.810
     7   6 C        3.067    -0.018    28.394     8.738
     8   6 C        2.912    -0.035    28.863     8.810
     9   6 C        2.919    -0.042    29.054     8.839
    10   6 C        2.924    -0.035    28.865     8.811
    11   6 C        2.910    -0.052    29.288     8.874
    12   6 C        3.074     0.047    26.874     8.500
    13   7 N        2.802    -0.044    22.098     6.982
    14   6 C        2.911     0.061    26.634     8.462
    15   6 C        2.925    -0.043    29.068     8.842
    16   6 C        2.934    -0.037    28.931     8.821
    17   6 C        3.002     0.035    27.202     8.556
    18  16 S        2.208    -0.086   144.626    20.241
    19   6 C        3.002     0.035    27.204     8.556
    20   6 C        2.934    -0.038    28.949     8.824
    21   6 C        2.925    -0.045    29.122     8.850
    22   6 C        2.911     0.064    26.574     8.453
    23   7 N        2.799    -0.051    22.232     7.003
    24   6 C        3.079     0.047    26.860     8.497
    25   6 C        2.910    -0.049    29.228     8.865
    26   6 C        2.923    -0.032    28.789     8.799
    27   6 C        2.920    -0.039    28.975     8.827
    28   6 C        2.912    -0.033    28.813     8.802
    29   6 C        3.065    -0.019    28.424     8.742
    30   6 C        3.065    -0.031    28.694     8.784
    31   6 C        2.919    -0.019    28.494     8.753
    32   6 C        2.917    -0.055    29.364     8.886
    33   6 C        2.929     0.057    26.724     8.478
    34   7 N        1.832    -0.276    28.018     7.844
    35   6 C        3.090     0.142    24.823     8.166
    36   6 C        2.920    -0.043    29.060     8.840
    37   6 C        3.104     0.000    27.890     8.654
    38   6 C        3.104    -0.000    27.902     8.655
    39   6 C        2.920    -0.046    29.131     8.851
    40   1 H        0.926     0.028     2.615     2.529
    41   1 H        0.926     0.030     2.591     2.517
    42   1 H        0.926     0.029     2.600     2.521
    43   1 H        0.926     0.031     2.575     2.509
    44   1 H        0.926     0.031     2.578     2.511
    45   1 H        0.926     0.028     2.611     2.527
    46   1 H        0.926     0.031     2.576     2.510
    47   1 H        0.926     0.030     2.580     2.512
    48   1 H        0.926     0.052     2.297     2.370
    49   1 H        0.926     0.051     2.303     2.373
    50   1 H        0.926     0.052     2.289     2.366
    51   1 H        0.926     0.052     2.291     2.367
    52   1 H        0.926     0.039     2.456     2.451
    53   1 H        0.926     0.040     2.455     2.450
    54   1 H        0.926     0.037     2.493     2.469
    55   1 H        0.926     0.037     2.487     2.466
    56   1 H        0.926     0.039     2.458     2.452
    57   1 H        0.926     0.037     2.489     2.467
    58   1 H        0.925     0.034     2.528     2.487
    59   1 H        0.926     0.058     2.221     2.331
    60   1 H        0.926     0.051     2.306     2.375

molecular dipole:
                 x           y           z       tot (Debye)
 q only:       -0.589       0.461      -0.280
   full:       -0.864       0.032      -0.206       2.259

 projected vibrational frequencies (cm⁻¹)
eigval :       -0.00    -0.00    -0.00     0.00     0.00     0.00
eigval :       11.93    13.94    22.50    32.12    44.82    50.20
eigval :       86.54    99.31   106.91   111.09   120.64   136.79
eigval :      141.92   156.31   168.83   175.28   224.87   236.78
eigval :      269.60   273.30   275.53   277.55   278.41   318.60
eigval :      325.29   365.77   385.26   392.18   396.32   396.87
eigval :      417.78   421.30   423.82   435.09   436.17   440.19
eigval :      456.40   505.52   515.84   518.12   522.75   530.21
eigval :      535.13   540.92   545.88   549.09   570.67   587.15
eigval :      591.97   597.07   624.12   645.13   662.07   665.55
eigval :      667.64   673.80   687.32   690.71   708.45   718.11
eigval :      723.06   739.79   755.34   765.98   767.73   771.55
eigval :      778.94   792.70   815.22   821.34   825.38   857.27
eigval :      865.70   871.71   874.16   882.69   897.26   901.04
eigval :      901.38   901.62   902.78   909.85   913.67   914.51
eigval :      915.45   922.57   923.66   925.69   928.08   998.15
eigval :     1009.85  1011.81  1019.68  1048.72  1068.04  1070.61
eigval :     1071.58  1085.98  1089.23  1112.87  1119.30  1147.64
eigval :     1150.27  1159.99  1161.15  1169.94  1174.35  1178.85
eigval :     1179.59  1187.22  1215.90  1220.66  1223.32  1227.51
eigval :     1234.35  1243.22  1270.06  1282.82  1295.21  1297.92
eigval :     1301.86  1329.60  1333.05  1336.63  1342.17  1349.82
eigval :     1354.08  1356.74  1361.16  1392.32  1403.27  1413.14
eigval :     1421.30  1426.44  1441.57  1455.26  1461.68  1470.85
eigval :     1475.88  1480.40  1486.52  1547.68  1550.26  1560.64
eigval :     1571.62  1572.60  1581.32  1583.99  1587.08  1591.69
eigval :     1597.00  1610.70  1612.47  3055.96  3070.99  3072.15
eigval :     3074.98  3076.35  3077.53  3078.58  3083.24  3084.00
eigval :     3085.20  3090.84  3092.24  3093.12  3093.54  3096.04
eigval :     3096.60  3099.77  3100.93  3103.79  3107.33  3120.38

   temp. (K)  partition function   enthalpy   heat capacity  entropy
                                   cal/mol     cal/K/mol   cal/K/mol   J/K/mol
 298.15  VIB  0.856E+12            16463.633    109.493     99.524
         ROT  0.504E+08              888.752      2.981     38.225
         INT  0.431E+20            17352.385    112.474    137.749
         TR   0.113E+29             1481.254      4.968     44.587
         TOT                       18833.6391   117.4419   182.3357   762.8926

       T/K    H(0)-H(T)+PV         H(T)/Eh          T*S/Eh         G(T)/Eh
   ------------------------------------------------------------------------
    298.15    0.300133E-01    0.477641E+00    0.866336E-01    0.391007E+00
   ------------------------------------------------------------------------

         :::::::::::::::::::::::::::::::::::::::::::::::::::::
         ::                  THERMODYNAMIC                  ::
         :::::::::::::::::::::::::::::::::::::::::::::::::::::
         :: total free energy         -97.420697104420 Eh   ::
         ::.................................................::
         :: total energy              -97.811704207513 Eh   ::
         :: zero point energy           0.447627372266 Eh   ::
         :: G(RRHO) w/o ZPVE           -0.056620269173 Eh   ::
         :: G(RRHO) contrib.            0.391007103093 Eh   ::
         :::::::::::::::::::::::::::::::::::::::::::::::::::::

           -------------------------------------------------
          | TOTAL ENERGY              -97.811704207513 Eh   |
          | TOTAL ENTHALPY            -97.334063520903 Eh   |
          | TOTAL FREE ENERGY         -97.420697104420 Eh   |
          | GRADIENT NORM               0.000065134362 Eh/α |
          | HOMO-LUMO GAP               2.592529506480 eV   |
           -------------------------------------------------

 * finished run on 2025/07/16 at 19:42:24.330
