   * xtb version 6.7.1 (edcfbbe) compiled by 'albert@albert-system' on 2024-07-22

   ID    Z sym.   atoms
    1    6 C      1-12, 14-17, 19-22, 24-33, 35-39
    2    7 N      13, 23, 34
    3   16 S      18
    4    1 H      40-60

          program call               : xtb data2507/toluene/ZDN/ZDN_toluene_T1_crest.xyz --gfn 2 --uhf 2 --gbsa toluene --ohess vtight --parallel 40 --molden --ceasefiles --namespace data2507/toluene/ZDN/ZDN_toluene_T1_finalOpt
      * Solvation model:               GBSA
        Solvent                        toluene
        Solvent mass                       9.2140E+01 g/mol
          :  Hamiltonian                  GFN2-xTB          :
 * total energy  :   -97.7112302 Eh     change       -0.9556274E-08 Eh
 * total energy  :   -97.7112695 Eh     change       -0.3936306E-04 Eh
 * total energy  :   -97.7112816 Eh     change       -0.1204902E-04 Eh
 * total energy  :   -97.7112836 Eh     change       -0.2055675E-05 Eh
 * total energy  :   -97.7112851 Eh     change       -0.1436120E-05 Eh
 * total energy  :   -97.7112861 Eh     change       -0.1072981E-05 Eh
 * total energy  :   -97.7112872 Eh     change       -0.1068273E-05 Eh
 * total energy  :   -97.7112882 Eh     change       -0.1018609E-05 Eh
 * total energy  :   -97.7112893 Eh     change       -0.1103316E-05 Eh
 * total energy  :   -97.7112906 Eh     change       -0.1308002E-05 Eh
 * total energy  :   -97.7112955 Eh     change       -0.1134326E-05 Eh
 * total energy  :   -97.7112967 Eh     change       -0.1156996E-05 Eh
 * total energy  :   -97.7112978 Eh     change       -0.1113966E-05 Eh
 * total energy  :   -97.7112988 Eh     change       -0.1033733E-05 Eh
 * total energy  :   -97.7112999 Eh     change       -0.1046821E-05 Eh
 * total energy  :   -97.7113011 Eh     change       -0.1204041E-05 Eh
 * total energy  :   -97.7113024 Eh     change       -0.1302013E-05 Eh
 * total energy  :   -97.7113033 Eh     change       -0.9527877E-06 Eh
 * total energy  :   -97.7113034 Eh     change       -0.9282587E-08 Eh
   *** GEOMETRY OPTIMIZATION CONVERGED AFTER 22 ITERATIONS ***

 final structure:
================
60
 xtb: 6.7.1 (edcfbbe)
C            7.25395446715661       -0.35333632570209       -2.30881084815985
C            6.60612525187888        0.87903372800266       -2.31166059920097
C            5.45950125703937        1.09337043297642       -1.56763878400560
C            4.97631558862601        0.04027955142246       -0.80169075815597
C            5.61306608874807       -1.22374783058743       -0.81758253987356
C            6.75985695776835       -1.41655862074654       -1.57228685655636
C            4.82461078311600       -2.08834828061772        0.02152873089438
C            4.95041135987709       -3.41405423532253        0.40728722013738
C            4.00503382548175       -3.94519825067634        1.26823147183870
C            2.96078546252463       -3.16419632739172        1.75590355153834
C            2.81731448612864       -1.83819144612119        1.38727373451764
C            3.74353051238794       -1.30854427683120        0.49763566775587
N            3.84883632785487       -0.02544304410573       -0.00570274407883
C            2.96066080973036        1.02141374750605        0.24898649691249
C            3.46087822601110        2.28666220076478        0.59829420525683
C            2.57789850526275        3.33162408579121        0.86584706711387
C            1.22463016194799        3.10038557476685        0.77791947710101
S           -0.04575160626839        4.27153495950907        1.07590165778616
C           -1.28490005273638        3.07949178613843        0.75762883650200
C           -2.64569944110752        3.27959480817981        0.83638309595942
C           -3.50297293461792        2.22298579020792        0.55074463778848
C           -2.97406434028807        0.96706095527452        0.18988801116516
N           -3.82845980141788       -0.09468154839945       -0.08476201322291
C           -5.06039709662618       -0.03440968877300       -0.72403070099833
C           -5.66199690715235        1.01898231202353       -1.38994984588129
C           -6.89825413662249        0.79591264630549       -1.98605726812142
C           -7.50936774610422       -0.45343753754989       -1.93417927983631
C           -6.89670659369761       -1.52435650112010       -1.30813239704620
C           -5.65773049338614       -1.32412717084744       -0.70456494483626
C           -4.74000630130273       -2.19203112020332       -0.03911865623747
C           -4.71702062993744       -3.54621652127132        0.30821974900154
C           -3.58816485497937       -4.00711985552602        0.97060572147434
C           -2.54642143730585       -3.13651237296738        1.26507537820832
N           -2.54296793871413       -1.83705335417223        0.94472113563990
C           -3.61485768520644       -1.40308596815227        0.30979891390091
C           -1.60061957311261        0.76138284625007        0.12762577254251
C           -0.72448248601613        1.81514609615230        0.40907290434953
C            0.69195894488592        1.82896285533000        0.42139067331658
C            1.59378028610556        0.78933111025348        0.15481909505669
H            8.14790211417018       -0.48204533454952       -2.90062106309997
H            7.00311742516173        1.68430564340844       -2.91156277078316
H            4.95148377740141        2.04460873908271       -1.59540435549368
H            7.25119751094248       -2.37739889773000       -1.58831115577672
H            5.77093402429383       -4.01537313593333        0.04674265765001
H            4.08304460997772       -4.97679593463038        1.57774084153078
H            2.24884555076448       -3.59950679118866        2.44127342577715
H            2.01593429113600       -1.23806553521509        1.78945995268860
H            4.52236335711260        2.43354854379293        0.70784576467525
H            2.95331824049755        4.30025038661446        1.15683932751575
H           -3.04416701063191        4.23692935398322        1.13518687328319
H           -4.56633675959196        2.34600966829869        0.66720782160621
H           -5.18441620271165        1.98287240608635       -1.46889931274877
H           -7.38659890079785        1.60697005142811       -2.50440106114149
H           -8.47197788487603       -0.59049092513817       -2.40481487055753
H           -7.36041579073819       -2.49895844590091       -1.29244961310552
H           -5.54162222115737       -4.20120439829200        0.07179772854868
H           -3.51065545468231       -5.04351559564407        1.26289112271211
H           -1.65975830261260       -3.47776835266009        1.78078047316675
H           -1.21788741093046       -0.20715125132046       -0.14471733380734
H            1.22304608254052       -0.17259056836072       -0.16098660338546

          :  Hamiltonian                  GFN2-xTB          :
         :: gradient norm              0.000059428170 Eh/a0 ::
         :: HOMO-LUMO gap              0.043045592111 eV    ::
         :: SCC energy               -99.468889784876 Eh    ::
         :: -> dispersion             -0.086284514452 Eh    ::
         :: -> Gsolv                  -0.041976536068 Eh    ::
         :: repulsion energy           1.757586426511 Eh    ::

    * Orbital Energies and Occupations

         #    Occupation            Energy/Eh            Energy/eV
      -------------------------------------------------------------
         1        2.0000           -0.7329708             -19.9452
       ...           ...                  ...                  ...
        80        2.0000           -0.4250626             -11.5665
        81        2.0000           -0.4232589             -11.5175
        82        2.0000           -0.4187180             -11.3939
        83        2.0000           -0.4150165             -11.2932
        84        2.0000           -0.4146127             -11.2822
        85        2.0000           -0.3893350             -10.5943
        86        2.0000           -0.3888469             -10.5811
        87        2.0000           -0.3862401             -10.5101
        88        2.0000           -0.3843478             -10.4586
        89        1.9848           -0.3714608             -10.1080
        90        1.9720           -0.3708676             -10.0918
        91        1.0431           -0.3645517              -9.9200
        92        0.6941           -0.2604688              -7.0877 (HOMO)
        93        0.3001           -0.2588858              -7.0446 (LUMO)
        94        0.0059           -0.2548130              -6.9338
        95                         -0.2399995              -6.5307
        96                         -0.2345942              -6.3836
        97                         -0.2326823              -6.3316
        98                         -0.2308704              -6.2823
        99                         -0.2084258              -5.6716
       100                         -0.2057654              -5.5992
       101                         -0.1991923              -5.4203
       102                         -0.1960993              -5.3361
       103                         -0.1957471              -5.3266
       ...                                ...                  ...
       182                          0.7380682              20.0839
      -------------------------------------------------------------
                  HL-Gap            0.0015830 Eh            0.0431 eV

     #   Z          covCN         q      C6AA      α(0)
     1   6 C        2.920    -0.033    28.834     8.806
     2   6 C        2.923    -0.032    28.787     8.799
     3   6 C        2.909    -0.043    29.061     8.840
     4   6 C        3.070     0.047    26.864     8.499
     5   6 C        3.064    -0.012    28.239     8.714
     6   6 C        2.912    -0.030    28.747     8.792
     7   6 C        3.064    -0.012    28.241     8.714
     8   6 C        2.912    -0.030    28.752     8.793
     9   6 C        2.920    -0.033    28.834     8.806
    10   6 C        2.923    -0.031    28.777     8.797
    11   6 C        2.909    -0.042    29.045     8.837
    12   6 C        3.070     0.047    26.866     8.499
    13   7 N        2.802    -0.012    21.481     6.884
    14   6 C        2.908     0.061    26.630     8.462
    15   6 C        2.921    -0.069    29.726     8.941
    16   6 C        2.932    -0.040    29.003     8.832
    17   6 C        2.995     0.024    27.449     8.594
    18  16 S        2.209    -0.029   142.253    20.074
    19   6 C        2.996     0.023    27.480     8.599
    20   6 C        2.932    -0.040    29.003     8.832
    21   6 C        2.920    -0.071    29.768     8.947
    22   6 C        2.908     0.070    26.440     8.431
    23   7 N        2.799    -0.033    21.887     6.948
    24   6 C        3.066     0.043    26.971     8.516
    25   6 C        2.909    -0.046    29.144     8.852
    26   6 C        2.921    -0.042    29.052     8.839
    27   6 C        2.918    -0.034    28.851     8.808
    28   6 C        2.911    -0.038    28.944     8.822
    29   6 C        3.063    -0.023    28.502     8.755
    30   6 C        3.059    -0.035    28.813     8.803
    31   6 C        2.916    -0.037    28.910     8.817
    32   6 C        2.915    -0.049    29.222     8.864
    33   6 C        2.922     0.041    27.083     8.534
    34   7 N        1.832    -0.286    28.264     7.878
    35   6 C        3.076     0.144    24.797     8.164
    36   6 C        2.917    -0.051    29.267     8.871
    37   6 C        3.096    -0.013    28.227     8.707
    38   6 C        3.096    -0.014    28.252     8.711
    39   6 C        2.917    -0.055    29.366     8.886
    40   1 H        0.926     0.040     2.449     2.447
    41   1 H        0.926     0.041     2.437     2.441
    42   1 H        0.926     0.044     2.401     2.423
    43   1 H        0.926     0.042     2.422     2.434
    44   1 H        0.926     0.042     2.417     2.431
    45   1 H        0.926     0.040     2.455     2.450
    46   1 H        0.926     0.039     2.463     2.454
    47   1 H        0.926     0.043     2.410     2.427
    48   1 H        0.926     0.040     2.447     2.446
    49   1 H        0.926     0.043     2.414     2.430
    50   1 H        0.926     0.042     2.422     2.434
    51   1 H        0.926     0.038     2.474     2.460
    52   1 H        0.926     0.039     2.459     2.452
    53   1 H        0.926     0.035     2.517     2.481
    54   1 H        0.926     0.035     2.519     2.482
    55   1 H        0.926     0.033     2.546     2.495
    56   1 H        0.926     0.029     2.606     2.524
    57   1 H        0.926     0.031     2.579     2.511
    58   1 H        0.926     0.026     2.640     2.541
    59   1 H        0.926     0.053     2.282     2.362
    60   1 H        0.926     0.042     2.418     2.432

molecular dipole:
                 x           y           z       tot (Debye)
 q only:        1.836       0.197      -0.403
   full:        1.478      -0.191      -0.458       3.963

 projected vibrational frequencies (cm⁻¹)
eigval :       -0.00    -0.00    -0.00     0.00     0.00     0.00
eigval :       15.45    16.79    22.72    35.79    45.11    50.65
eigval :       85.10   102.32   109.02   112.45   119.84   135.99
eigval :      141.30   158.13   168.90   176.36   208.61   238.89
eigval :      265.80   267.68   269.88   272.69   277.66   305.31
eigval :      321.34   355.23   366.39   375.61   380.15   394.72
eigval :      401.11   417.68   420.05   430.10   433.04   436.12
eigval :      453.26   501.46   506.81   513.95   516.06   520.67
eigval :      530.02   532.47   534.87   550.48   555.53   576.96
eigval :      583.60   595.80   603.90   631.82   645.11   651.65
eigval :      657.76   658.18   671.82   673.64   700.33   705.66
eigval :      709.87   733.87   751.22   755.79   757.41   765.39
eigval :      766.66   775.08   777.60   782.35   790.42   810.61
eigval :      829.17   843.38   851.46   861.41   865.28   873.06
eigval :      877.69   892.33   893.78   895.52   903.70   904.79
eigval :      906.95   908.32   915.77   921.88   924.23   978.09
eigval :      987.45  1008.54  1010.02  1027.32  1042.48  1065.30
eigval :     1067.44  1070.03  1083.25  1103.14  1106.34  1134.24
eigval :     1140.42  1142.91  1147.59  1159.64  1165.82  1169.43
eigval :     1175.97  1180.84  1196.85  1208.78  1219.17  1222.60
eigval :     1226.62  1227.72  1247.83  1256.99  1265.85  1278.83
eigval :     1283.38  1288.30  1304.34  1316.60  1328.55  1334.78
eigval :     1339.25  1357.37  1361.29  1369.24  1373.76  1378.01
eigval :     1389.58  1399.67  1410.09  1416.19  1426.50  1434.05
eigval :     1447.92  1458.34  1459.07  1460.72  1477.96  1479.84
eigval :     1489.56  1517.13  1525.57  1552.81  1558.75  1562.90
eigval :     1575.76  1580.78  1598.75  3062.98  3076.05  3077.18
eigval :     3079.03  3080.13  3085.60  3086.13  3086.90  3089.34
eigval :     3090.60  3091.84  3092.78  3094.20  3095.28  3099.84
eigval :     3100.34  3100.53  3102.83  3114.06  3117.44  3124.44

   temp. (K)  partition function   enthalpy   heat capacity  entropy
                                   cal/mol     cal/K/mol   cal/K/mol   J/K/mol
 298.15  VIB  0.649E+12            16749.815    111.814    100.638
         ROT  0.500E+08              888.752      2.981     38.211
         INT  0.325E+20            17638.567    114.795    138.849
         TR   0.113E+29             1481.254      4.968     44.587
         TOT                       19119.8212   119.7634   183.4359   767.4959

       T/K    H(0)-H(T)+PV         H(T)/Eh          T*S/Eh         G(T)/Eh
   ------------------------------------------------------------------------
    298.15    0.304694E-01    0.472827E+00    0.871563E-01    0.385671E+00
   ------------------------------------------------------------------------

         :::::::::::::::::::::::::::::::::::::::::::::::::::::
         ::                  THERMODYNAMIC                  ::
         :::::::::::::::::::::::::::::::::::::::::::::::::::::
         :: total free energy         -97.325632437035 Eh   ::
         ::.................................................::
         :: total energy              -97.711303356753 Eh   ::
         :: zero point energy           0.442357876716 Eh   ::
         :: G(RRHO) w/o ZPVE           -0.056686956998 Eh   ::
         :: G(RRHO) contrib.            0.385670919718 Eh   ::
         :::::::::::::::::::::::::::::::::::::::::::::::::::::

           -------------------------------------------------
          | TOTAL ENERGY              -97.711303356753 Eh   |
          | TOTAL ENTHALPY            -97.238476105456 Eh   |
          | TOTAL FREE ENERGY         -97.325632437035 Eh   |
          | GRADIENT NORM               0.000064238456 Eh/α |
          | HOMO-LUMO GAP               0.043075311164 eV   |
           -------------------------------------------------

 * finished run on 2025/07/16 at 19:49:18.942
