   * xtb version 6.7.1 (edcfbbe) compiled by 'albert@albert-system' on 2024-07-22

   ID    Z sym.   atoms
    1    6 C      1-12, 14-17, 19-22, 24-33, 35-39
    2    7 N      13, 23, 34
    3   16 S      18
    4    1 H      40-60

          program call               : xtb data2507/toluene/ZDN/ZDN_toluene_S0_crest.xyz --gfn 2 --gbsa toluene --ohess vtight --parallel 40 --molden --ceasefiles --namespace data2507/toluene/ZDN/ZDN_toluene_S0_finalOpt
      * Solvation model:               GBSA
        Solvent                        toluene
        Solvent mass                       9.2140E+01 g/mol
          :  Hamiltonian                  GFN2-xTB          :
 * total energy  :   -97.8120105 Eh     change       -0.2402672E-08 Eh
 * total energy  :   -97.8120403 Eh     change       -0.2979038E-04 Eh
 * total energy  :   -97.8120537 Eh     change       -0.1341023E-04 Eh
 * total energy  :   -97.8120593 Eh     change       -0.5654568E-05 Eh
 * total energy  :   -97.8120667 Eh     change       -0.7334699E-05 Eh
 * total energy  :   -97.8120706 Eh     change       -0.3952477E-05 Eh
 * total energy  :   -97.8120747 Eh     change       -0.4058098E-05 Eh
 * total energy  :   -97.8120782 Eh     change       -0.3493165E-05 Eh
 * total energy  :   -97.8120810 Eh     change       -0.2788081E-05 Eh
 * total energy  :   -97.8120836 Eh     change       -0.2594316E-05 Eh
 * total energy  :   -97.8121155 Eh     change       -0.1369883E-06 Eh
 * total energy  :   -97.8121156 Eh     change       -0.1098570E-06 Eh
 * total energy  :   -97.8121158 Eh     change       -0.1059933E-06 Eh
 * total energy  :   -97.8121159 Eh     change       -0.1369141E-06 Eh
 * total energy  :   -97.8121161 Eh     change       -0.2037617E-06 Eh
 * total energy  :   -97.8121163 Eh     change       -0.2417897E-06 Eh
 * total energy  :   -97.8121166 Eh     change       -0.2204425E-06 Eh
 * total energy  :   -97.8121167 Eh     change       -0.1882400E-06 Eh
 * total energy  :   -97.8121167 Eh     change       -0.1745207E-08 Eh
   *** GEOMETRY OPTIMIZATION CONVERGED AFTER 44 ITERATIONS ***

 final structure:
================
60
 xtb: 6.7.1 (edcfbbe)
C            7.17564184560824       -0.35264779517012       -2.42318563784394
C            6.50797769128444        0.87057052191615       -2.42893335827818
C            5.38178104818110        1.08202731530812       -1.65640836840256
C            4.93478023548467        0.03626772558081       -0.86056466362514
C            5.59124821606727       -1.21633921309590       -0.86752850122958
C            6.72187802506966       -1.40459222492539       -1.65244481697093
C            4.84749326261441       -2.07186365985915        0.01466516854523
C            5.00504041987881       -3.39020468608522        0.42353393894364
C            4.09800565033856       -3.91805411800025        1.32080971300735
C            3.05280678454594       -3.14377853507087        1.82080106669231
C            2.87572418519097       -1.83006832870258        1.42992758055949
C            3.77095158924031       -1.30032434156268        0.51064240788797
N            3.83732426455011       -0.02760540529988       -0.02400000438534
C            2.94382900006851        1.01990664527655        0.24393645156037
C            3.43633706704206        2.27566585451351        0.61966512713530
C            2.57571424559486        3.31893312675822        0.89224605837390
C            1.21012463817777        3.09617477063911        0.80661735250106
S           -0.04964952272754        4.26730724343274        1.13338178996473
C           -1.28235957338411        3.07146896328315        0.79553928925049
C           -2.65234960297228        3.26286596635307        0.88071848092543
C           -3.49035548425126        2.20362251248437        0.59747931896984
C           -2.96829429032577        0.96484993228892        0.20824713569077
N           -3.83056602498359       -0.10833391933718       -0.06810455322207
C           -5.02586669220043       -0.06082088079616       -0.76832905133216
C           -5.60185148697374        0.98928506029885       -1.46947584559812
C           -6.80412974577488        0.75740628293792       -2.11158411490614
C           -7.42363061256365       -0.48996009433090       -2.07294772473781
C           -6.84148381818017       -1.54908613947128       -1.40566004855275
C           -5.63225062349131       -1.33944756978892       -0.75420635418527
C           -4.75035923883755       -2.19885976463727       -0.01837107100687
C           -4.74612926281562       -3.53339906065190        0.35545479927848
C           -3.65710584864662       -3.98687183703017        1.08473538219351
C           -2.63238107034788       -3.10485746067412        1.41284735707945
N           -2.60767829725308       -1.82469684065741        1.07275960608153
C           -3.64601630730214       -1.39627877243940        0.37233767645286
C           -1.59771383479449        0.77412830002605        0.12846463783766
C           -0.74245350603737        1.82576472312216        0.43209078811112
C            0.69759118996958        1.83999526409500        0.44038763305267
C            1.57691038672580        0.80477779484189        0.14711042319125
H            8.05440167431419       -0.47761550410906       -3.03885479193954
H            6.87672488384644        1.67057378727286       -3.05442650486460
H            4.86263308838477        2.02819351537431       -1.68264766127715
H            7.22963839725281       -2.35761962404765       -1.66016288970699
H            5.82354117050981       -3.98554692186885        0.04698195713957
H            4.20109126842501       -4.94206750103802        1.64909864693955
H            2.36621767860983       -3.57926135101393        2.53232965176270
H            2.07078602135447       -1.23721370584716        1.83743805229087
H            4.50220520921130        2.41806020901731        0.71029622005136
H            2.95487895269760        4.28661352405782        1.18152311132965
H           -3.05400469848344        4.21846235592100        1.17956794651258
H           -4.55758212774445        2.32351513638016        0.69932805195709
H           -5.12187898304089        1.95348866264694       -1.53068047748849
H           -7.27091190709401        1.56173695568973       -2.66066879100118
H           -8.36452033188383       -0.62943030889732       -2.58396029889570
H           -7.30751980452104       -2.52279763907824       -1.39270250436222
H           -5.55770818048615       -4.19451745567161        0.08870670324277
H           -3.59632714604071       -5.01664239193421        1.40028036229485
H           -1.77408784291518       -3.44042414749522        1.98017704899108
H           -1.20503934747482       -0.18967142617397       -0.14939281836300
H            1.19813065140850       -0.15793454765405       -0.15839604972027

          :  Hamiltonian                  GFN2-xTB          :
         :: gradient norm              0.000030479479 Eh/a0 ::
         :: HOMO-LUMO gap              2.587565218562 eV    ::
         :: SCC energy               -99.588693109325 Eh    ::
         :: -> dispersion             -0.086016563448 Eh    ::
         :: -> Gsolv                  -0.041139834989 Eh    ::
         :: repulsion energy           1.776576366306 Eh    ::

    * Orbital Energies and Occupations

         #    Occupation            Energy/Eh            Energy/eV
      -------------------------------------------------------------
         1        2.0000           -0.7307830             -19.8856
       ...           ...                  ...                  ...
        79        2.0000           -0.4238207             -11.5327
        80        2.0000           -0.4220630             -11.4849
        81        2.0000           -0.4196401             -11.4190
        82        2.0000           -0.4182179             -11.3803
        83        2.0000           -0.4175093             -11.3610
        84        2.0000           -0.4051287             -11.0241
        85        2.0000           -0.3992111             -10.8631
        86        2.0000           -0.3919985             -10.6668
        87        2.0000           -0.3872586             -10.5378
        88        2.0000           -0.3784753             -10.2988
        89        2.0000           -0.3767355             -10.2515
        90        2.0000           -0.3722261             -10.1288
        91        2.0000           -0.3608708              -9.8198 (HOMO)
        92                         -0.2657795              -7.2322 (LUMO)
        93                         -0.2642677              -7.1911
        94                         -0.2482169              -6.7543
        95                         -0.2445716              -6.6551
        96                         -0.2384722              -6.4892
        97                         -0.2353939              -6.4054
        98                         -0.2218706              -6.0374
        99                         -0.2121257              -5.7722
       100                         -0.2106729              -5.7327
       101                         -0.2017134              -5.4889
       102                         -0.1984731              -5.4007
       ...                                ...                  ...
       182                          0.7443397              20.2545
      -------------------------------------------------------------
                  HL-Gap            0.0950913 Eh            2.5876 eV

     #   Z          covCN         q      C6AA      α(0)
     1   6 C        2.919    -0.042    29.055     8.839
     2   6 C        2.924    -0.035    28.867     8.811
     3   6 C        2.910    -0.052    29.292     8.875
     4   6 C        3.073     0.047    26.878     8.500
     5   6 C        3.067    -0.018    28.394     8.738
     6   6 C        2.912    -0.035    28.863     8.810
     7   6 C        3.067    -0.018    28.394     8.738
     8   6 C        2.912    -0.035    28.867     8.810
     9   6 C        2.919    -0.043    29.057     8.840
    10   6 C        2.924    -0.035    28.862     8.810
    11   6 C        2.909    -0.052    29.283     8.873
    12   6 C        3.073     0.047    26.878     8.500
    13   7 N        2.802    -0.044    22.098     6.982
    14   6 C        2.910     0.061    26.634     8.462
    15   6 C        2.925    -0.043    29.071     8.842
    16   6 C        2.933    -0.037    28.930     8.821
    17   6 C        3.002     0.035    27.205     8.556
    18  16 S        2.208    -0.086   144.633    20.241
    19   6 C        3.002     0.035    27.203     8.556
    20   6 C        2.934    -0.038    28.947     8.824
    21   6 C        2.925    -0.045    29.119     8.849
    22   6 C        2.912     0.064    26.574     8.453
    23   7 N        2.800    -0.052    22.234     7.003
    24   6 C        3.079     0.047    26.859     8.496
    25   6 C        2.910    -0.049    29.228     8.865
    26   6 C        2.924    -0.032    28.789     8.799
    27   6 C        2.920    -0.039    28.976     8.827
    28   6 C        2.912    -0.033    28.813     8.802
    29   6 C        3.065    -0.019    28.427     8.743
    30   6 C        3.065    -0.031    28.695     8.784
    31   6 C        2.919    -0.019    28.494     8.753
    32   6 C        2.917    -0.055    29.366     8.886
    33   6 C        2.929     0.057    26.721     8.477
    34   7 N        1.832    -0.276    28.018     7.844
    35   6 C        3.090     0.142    24.823     8.166
    36   6 C        2.921    -0.042    29.055     8.839
    37   6 C        3.105     0.000    27.887     8.653
    38   6 C        3.105    -0.000    27.900     8.655
    39   6 C        2.920    -0.046    29.137     8.852
    40   1 H        0.926     0.028     2.612     2.527
    41   1 H        0.926     0.031     2.577     2.510
    42   1 H        0.926     0.031     2.578     2.511
    43   1 H        0.926     0.031     2.579     2.511
    44   1 H        0.926     0.031     2.577     2.510
    45   1 H        0.926     0.028     2.616     2.529
    46   1 H        0.926     0.030     2.593     2.518
    47   1 H        0.926     0.031     2.574     2.509
    48   1 H        0.926     0.052     2.297     2.370
    49   1 H        0.926     0.051     2.304     2.374
    50   1 H        0.926     0.052     2.289     2.366
    51   1 H        0.926     0.052     2.292     2.367
    52   1 H        0.926     0.039     2.458     2.452
    53   1 H        0.926     0.039     2.456     2.451
    54   1 H        0.926     0.037     2.494     2.470
    55   1 H        0.926     0.037     2.488     2.467
    56   1 H        0.926     0.039     2.461     2.453
    57   1 H        0.926     0.037     2.490     2.467
    58   1 H        0.925     0.034     2.525     2.485
    59   1 H        0.926     0.058     2.226     2.333
    60   1 H        0.926     0.051     2.308     2.376

molecular dipole:
                 x           y           z       tot (Debye)
 q only:       -0.552       0.533      -0.216
   full:       -0.833       0.105      -0.290       2.257

 projected vibrational frequencies (cm⁻¹)
eigval :       -0.00    -0.00    -0.00    -0.00     0.00     0.00
eigval :       11.64    16.51    22.42    34.10    46.09    49.88
eigval :       87.01   101.15   109.35   112.28   119.81   139.26
eigval :      144.02   162.40   169.27   174.77   217.80   247.69
eigval :      269.74   271.10   274.32   277.33   279.19   314.63
eigval :      334.03   362.11   385.65   394.52   397.79   399.07
eigval :      420.94   423.66   425.46   434.53   436.50   439.75
eigval :      456.27   506.62   516.08   518.90   522.32   529.97
eigval :      540.25   541.86   544.07   548.81   566.55   586.23
eigval :      592.20   607.57   617.59   647.93   662.08   665.79
eigval :      670.11   673.38   688.37   690.63   708.46   718.11
eigval :      724.16   739.72   755.27   766.08   769.53   775.15
eigval :      780.86   796.68   815.25   823.89   827.39   861.82
eigval :      868.87   873.15   875.29   888.55   897.34   900.99
eigval :      901.77   903.31   906.44   911.90   913.83   915.28
eigval :      915.48   922.88   924.39   927.21   928.04   998.20
eigval :     1009.86  1011.81  1020.07  1048.62  1069.21  1071.27
eigval :     1073.28  1086.93  1090.29  1113.02  1120.19  1148.82
eigval :     1150.66  1159.27  1161.01  1170.38  1176.02  1178.85
eigval :     1181.18  1188.12  1217.99  1220.99  1223.51  1228.66
eigval :     1235.34  1244.14  1270.84  1284.25  1296.83  1298.56
eigval :     1302.13  1330.30  1333.74  1337.35  1343.20  1349.99
eigval :     1354.53  1356.94  1361.03  1392.58  1403.50  1413.58
eigval :     1421.62  1426.66  1441.88  1455.69  1461.98  1471.17
eigval :     1476.34  1481.10  1486.69  1548.00  1550.64  1560.66
eigval :     1571.84  1572.72  1582.20  1584.98  1586.91  1592.04
eigval :     1596.82  1610.74  1612.41  3055.24  3070.35  3071.55
eigval :     3074.47  3076.57  3077.24  3078.94  3084.06  3084.26
eigval :     3085.94  3091.28  3092.48  3093.16  3093.55  3095.65
eigval :     3096.86  3099.92  3101.85  3104.00  3106.50  3121.61

   temp. (K)  partition function   enthalpy   heat capacity  entropy
                                   cal/mol     cal/K/mol   cal/K/mol   J/K/mol
 298.15  VIB  0.623E+12            16417.639    109.407     99.046
         ROT  0.503E+08              888.752      2.981     38.221
         INT  0.313E+20            17306.391    112.388    137.266
         TR   0.113E+29             1481.254      4.968     44.587
         TOT                       18787.6451   117.3564   181.8532   760.8740

       T/K    H(0)-H(T)+PV         H(T)/Eh          T*S/Eh         G(T)/Eh
   ------------------------------------------------------------------------
    298.15    0.299400E-01    0.477855E+00    0.864043E-01    0.391451E+00
   ------------------------------------------------------------------------

         :::::::::::::::::::::::::::::::::::::::::::::::::::::
         ::                  THERMODYNAMIC                  ::
         :::::::::::::::::::::::::::::::::::::::::::::::::::::
         :: total free energy         -97.420665798830 Eh   ::
         ::.................................................::
         :: total energy              -97.812116740501 Eh   ::
         :: zero point energy           0.447915270033 Eh   ::
         :: G(RRHO) w/o ZPVE           -0.056464328362 Eh   ::
         :: G(RRHO) contrib.            0.391450941670 Eh   ::
         :::::::::::::::::::::::::::::::::::::::::::::::::::::

           -------------------------------------------------
          | TOTAL ENERGY              -97.812116740501 Eh   |
          | TOTAL ENTHALPY            -97.334261452254 Eh   |
          | TOTAL FREE ENERGY         -97.420665798830 Eh   |
          | GRADIENT NORM               0.000030476689 Eh/α |
          | HOMO-LUMO GAP               2.587565188626 eV   |
           -------------------------------------------------

 * finished run on 2025/07/16 at 19:45:07.842
