   * xtb version 6.7.1 (edcfbbe) compiled by 'albert@albert-system' on 2024-07-22

   ID    Z sym.   atoms
    1    6 C      1-12, 14-17, 19-22, 24-33, 35-39
    2    7 N      13, 23, 34
    3   16 S      18
    4    1 H      40-60

          program call               : xtb data2507/toluene/ZDN/ZDN_toluene_S0_finalOpt.xtbopt.xyz --gfn 2 --uhf 2 --gbsa toluene --ohess vtight --parallel 40 --molden --ceasefiles --namespace data2507/toluene/ZDN/ZDN_toluene_T1_preOpt
      * Solvation model:               GBSA
        Solvent                        toluene
        Solvent mass                       9.2140E+01 g/mol
          :  Hamiltonian                  GFN2-xTB          :
 * total energy  :   -97.7087145 Eh     change       -0.2468988E-07 Eh
 * total energy  :   -97.7106277 Eh     change       -0.1913204E-02 Eh
 * total energy  :   -97.7111461 Eh     change       -0.5184071E-03 Eh
 * total energy  :   -97.7111913 Eh     change       -0.4519295E-04 Eh
 * total energy  :   -97.7112188 Eh     change       -0.2755905E-04 Eh
 * total energy  :   -97.7112314 Eh     change       -0.1261028E-04 Eh
 * total energy  :   -97.7112422 Eh     change       -0.1079080E-04 Eh
 * total energy  :   -97.7112504 Eh     change       -0.8145603E-05 Eh
 * total energy  :   -97.7112561 Eh     change       -0.5721359E-05 Eh
 * total energy  :   -97.7112607 Eh     change       -0.4636785E-05 Eh
 * total energy  :   -97.7112995 Eh     change       -0.2169094E-06 Eh
 * total energy  :   -97.7112998 Eh     change       -0.3173272E-06 Eh
 * total energy  :   -97.7113002 Eh     change       -0.4343417E-06 Eh
 * total energy  :   -97.7113006 Eh     change       -0.4292893E-06 Eh
 * total energy  :   -97.7113010 Eh     change       -0.3421909E-06 Eh
 * total energy  :   -97.7113012 Eh     change       -0.2340745E-06 Eh
 * total energy  :   -97.7113014 Eh     change       -0.1589796E-06 Eh
 * total energy  :   -97.7113015 Eh     change       -0.1320070E-06 Eh
 * total energy  :   -97.7113015 Eh     change       -0.4518768E-09 Eh
   *** GEOMETRY OPTIMIZATION CONVERGED AFTER 44 ITERATIONS ***

 final structure:
================
60
 xtb: 6.7.1 (edcfbbe)
C            7.24345003158274       -0.33702855585811       -2.34068300839080
C            6.58903584408863        0.89185667759956       -2.34337485671066
C            5.44691078981832        1.10294550934528       -1.59156965344828
C            4.97492620115631        0.05019477401487       -0.81819261397500
C            5.61838152425425       -1.21041978564159       -0.83390599733976
C            6.76060139154621       -1.39996700057739       -1.59634195958439
C            4.84092277796558       -2.07585326049303        0.01453503612285
C            4.97690210630378       -3.39915564483089        0.40495057082759
C            4.04095703074146       -3.93172029328270        1.27528057093865
C            2.99610453896807       -3.15438602413382        1.76752683974867
C            2.84245145168975       -1.83084070469338        1.39421757560300
C            3.75913337653482       -1.29999812296156        0.49549853527626
N            3.85359442417942       -0.01853211841049       -0.01372120527428
C            2.96111025841980        1.02474372236977        0.24103687036956
C            3.45759044841000        2.29382671803434        0.58147866123768
C            2.57135361091311        3.33742051352754        0.84330922547430
C            1.21887173630623        3.10084714204671        0.75844409952805
S           -0.05418085524397        4.27189011115034        1.04427189563296
C           -1.29017431126806        3.07469513842184        0.73383653196402
C           -2.65130078946064        3.27495795549513        0.80472200223509
C           -3.50659042376235        2.21492583365482        0.52623598168008
C           -2.97507801029666        0.95529711967953        0.18292019436422
N           -3.82921925511086       -0.10876917554865       -0.08409547989699
C           -5.05530317862916       -0.05308636417529       -0.73468021318584
C           -5.64575591322376        0.99256384174693       -1.42243941953458
C           -6.87730829956266        0.76558851498768       -2.02667666906682
C           -7.49475460329014       -0.47998434666913       -1.96064814881797
C           -6.89313707254401       -1.54359502153696       -1.31177958929310
C           -5.65890395420489       -1.33943279944162       -0.69987138084419
C           -4.75084674227468       -2.20074808539842       -0.01282506151216
C           -4.73766663065032       -3.54892042886628        0.35726647029949
C           -3.61613428319802       -4.00442927552551        1.03568348838444
C           -2.57217258907581       -3.13432906315154        1.32379070045235
N           -2.55967713814875       -1.84024281477356        0.98256318576033
C           -3.62458708593647       -1.41156472026296        0.33252105455969
C           -1.60138205609248        0.74917700405879        0.12956216509359
C           -0.72689819324043        1.80739813612346        0.40051312846301
C            0.68957892656264        1.82466945169239        0.41365037874994
C            1.59488377396125        0.78628948139703        0.15324718014888
H            8.13364277023915       -0.46324745658741       -2.93865701808933
H            6.97727696689185        1.69696198361820       -2.94919108730263
H            4.93369137748617        2.05140974869492       -1.61897604190137
H            7.25694888764781       -2.35822272619094       -1.61241697894095
H            5.79783342790252       -3.99762596993903        0.04061337193064
H            4.12701868855006       -4.96153343066718        1.58855747482821
H            2.29181773279739       -3.59074659697541        2.46007828104424
H            2.04076514111464       -1.23325558427508        1.79955050746162
H            4.51880117781763        2.44524974276924        0.68736542494211
H            2.94363924993678        4.30956826509849        1.12642712011083
H           -3.05153625959553        4.23534025100485        1.09106544403724
H           -4.57072859059804        2.33874907720815        0.63464782801381
H           -5.16275249959828        1.95286689343259       -1.51179347904155
H           -7.35682977935572        1.57044770611629       -2.56260506783264
H           -8.45348587415123       -0.62013990152500       -2.43821696489549
H           -7.36165900060064       -2.51565298386136       -1.28487757623920
H           -5.56387996058679       -4.20356460019305        0.12553405230099
H           -3.54604145548340       -5.03639550472462        1.34500576628051
H           -1.69116321307687       -3.47163584785332        1.85163092180775
H           -1.21722011905715       -0.22277689194161       -0.12847263687291
H            1.22726035867962       -0.17927533978787       -0.15501391605072

          :  Hamiltonian                  GFN2-xTB          :
         :: gradient norm              0.000026605767 Eh/a0 ::
         :: HOMO-LUMO gap              0.043027309437 eV    ::
         :: SCC energy               -99.468893866110 Eh    ::
         :: -> dispersion             -0.086241449641 Eh    ::
         :: -> Gsolv                  -0.041992434861 Eh    ::
         :: repulsion energy           1.757592361923 Eh    ::

    * Orbital Energies and Occupations

         #    Occupation            Energy/Eh            Energy/eV
      -------------------------------------------------------------
         1        2.0000           -0.7329783             -19.9454
       ...           ...                  ...                  ...
        80        2.0000           -0.4250926             -11.5674
        81        2.0000           -0.4232926             -11.5184
        82        2.0000           -0.4187088             -11.3936
        83        2.0000           -0.4150353             -11.2937
        84        2.0000           -0.4146293             -11.2826
        85        2.0000           -0.3893028             -10.5935
        86        2.0000           -0.3888636             -10.5815
        87        2.0000           -0.3862271             -10.5098
        88        2.0000           -0.3843744             -10.4594
        89        1.9852           -0.3715129             -10.1094
        90        1.9713           -0.3708666             -10.0918
        91        1.0435           -0.3645849              -9.9209
        92        0.6939           -0.2604802              -7.0880 (HOMO)
        93        0.3003           -0.2588992              -7.0450 (LUMO)
        94        0.0059           -0.2548244              -6.9341
        95                         -0.2399711              -6.5299
        96                         -0.2345781              -6.3832
        97                         -0.2326968              -6.3320
        98                         -0.2308820              -6.2826
        99                         -0.2084165              -5.6713
       100                         -0.2057806              -5.5996
       101                         -0.1992218              -5.4211
       102                         -0.1961287              -5.3369
       103                         -0.1957615              -5.3269
       ...                                ...                  ...
       182                          0.7380481              20.0833
      -------------------------------------------------------------
                  HL-Gap            0.0015809 Eh            0.0430 eV

     #   Z          covCN         q      C6AA      α(0)
     1   6 C        2.920    -0.033    28.834     8.806
     2   6 C        2.923    -0.032    28.787     8.799
     3   6 C        2.909    -0.043    29.061     8.840
     4   6 C        3.070     0.047    26.864     8.499
     5   6 C        3.064    -0.012    28.239     8.714
     6   6 C        2.912    -0.030    28.747     8.792
     7   6 C        3.064    -0.012    28.241     8.714
     8   6 C        2.912    -0.030    28.751     8.793
     9   6 C        2.920    -0.033    28.833     8.806
    10   6 C        2.923    -0.031    28.777     8.797
    11   6 C        2.909    -0.042    29.044     8.837
    12   6 C        3.070     0.047    26.866     8.499
    13   7 N        2.802    -0.012    21.482     6.884
    14   6 C        2.908     0.061    26.630     8.462
    15   6 C        2.921    -0.069    29.726     8.941
    16   6 C        2.932    -0.040    29.003     8.832
    17   6 C        2.996     0.024    27.449     8.594
    18  16 S        2.210    -0.029   142.254    20.074
    19   6 C        2.996     0.023    27.480     8.599
    20   6 C        2.932    -0.040    29.004     8.832
    21   6 C        2.920    -0.071    29.767     8.947
    22   6 C        2.908     0.070    26.440     8.431
    23   7 N        2.799    -0.034    21.889     6.949
    24   6 C        3.067     0.043    26.969     8.516
    25   6 C        2.909    -0.046    29.143     8.852
    26   6 C        2.921    -0.042    29.050     8.839
    27   6 C        2.918    -0.034    28.851     8.808
    28   6 C        2.911    -0.038    28.943     8.822
    29   6 C        3.063    -0.023    28.502     8.755
    30   6 C        3.060    -0.035    28.812     8.802
    31   6 C        2.916    -0.037    28.909     8.817
    32   6 C        2.915    -0.049    29.222     8.864
    33   6 C        2.923     0.041    27.081     8.534
    34   7 N        1.832    -0.286    28.264     7.878
    35   6 C        3.076     0.144    24.796     8.164
    36   6 C        2.917    -0.051    29.266     8.871
    37   6 C        3.096    -0.013    28.228     8.708
    38   6 C        3.096    -0.014    28.253     8.711
    39   6 C        2.917    -0.055    29.366     8.886
    40   1 H        0.926     0.040     2.449     2.447
    41   1 H        0.926     0.041     2.437     2.441
    42   1 H        0.926     0.044     2.401     2.423
    43   1 H        0.926     0.042     2.422     2.434
    44   1 H        0.926     0.042     2.417     2.431
    45   1 H        0.926     0.040     2.454     2.450
    46   1 H        0.926     0.039     2.462     2.454
    47   1 H        0.926     0.043     2.411     2.428
    48   1 H        0.926     0.040     2.447     2.446
    49   1 H        0.926     0.043     2.414     2.430
    50   1 H        0.926     0.042     2.422     2.434
    51   1 H        0.926     0.038     2.475     2.460
    52   1 H        0.926     0.039     2.459     2.452
    53   1 H        0.926     0.035     2.517     2.481
    54   1 H        0.926     0.035     2.519     2.482
    55   1 H        0.926     0.033     2.545     2.495
    56   1 H        0.926     0.029     2.605     2.524
    57   1 H        0.926     0.031     2.579     2.511
    58   1 H        0.926     0.026     2.640     2.541
    59   1 H        0.926     0.053     2.286     2.365
    60   1 H        0.926     0.042     2.420     2.432

molecular dipole:
                 x           y           z       tot (Debye)
 q only:        1.841       0.196      -0.418
   full:        1.483      -0.192      -0.468       3.983

 projected vibrational frequencies (cm⁻¹)
eigval :       -0.00    -0.00    -0.00    -0.00     0.00     0.00
eigval :       17.02    18.77    22.89    35.71    45.49    51.00
eigval :       85.97   102.93   109.25   112.56   120.44   136.05
eigval :      142.23   158.20   168.72   175.97   208.37   239.18
eigval :      265.81   268.36   270.07   272.77   277.85   305.45
eigval :      321.58   355.26   366.12   375.90   380.34   395.17
eigval :      401.04   418.01   420.43   430.43   433.23   436.20
eigval :      453.37   501.33   506.83   513.99   516.10   521.63
eigval :      529.96   532.63   534.96   550.48   555.28   577.14
eigval :      583.57   595.78   603.59   631.75   644.86   651.59
eigval :      657.90   658.15   671.94   673.96   701.36   705.70
eigval :      709.89   733.92   751.32   755.99   757.55   766.05
eigval :      767.21   775.05   778.13   782.51   786.64   810.55
eigval :      829.42   843.02   851.12   861.50   865.92   873.79
eigval :      877.81   893.64   894.54   895.54   903.66   905.00
eigval :      907.07   908.56   915.81   921.33   923.79   978.27
eigval :      987.34  1008.60  1010.07  1027.30  1041.92  1065.77
eigval :     1067.72  1070.26  1082.65  1102.63  1106.34  1134.55
eigval :     1140.54  1143.04  1148.06  1159.69  1165.97  1170.13
eigval :     1176.10  1180.85  1197.07  1208.41  1219.33  1222.82
eigval :     1226.73  1227.89  1247.92  1257.15  1266.30  1278.99
eigval :     1283.43  1288.30  1304.22  1316.69  1328.57  1334.90
eigval :     1339.29  1357.45  1361.33  1369.17  1373.86  1378.02
eigval :     1389.21  1399.90  1410.23  1416.22  1426.37  1434.18
eigval :     1447.87  1458.43  1459.08  1460.50  1477.95  1479.77
eigval :     1489.53  1517.16  1525.67  1553.09  1558.78  1562.91
eigval :     1575.77  1580.83  1598.75  3062.99  3076.30  3077.36
eigval :     3079.07  3080.12  3086.01  3086.04  3086.87  3089.68
eigval :     3090.93  3092.17  3092.93  3094.15  3095.26  3099.74
eigval :     3100.25  3100.39  3102.89  3114.15  3117.79  3123.80

   temp. (K)  partition function   enthalpy   heat capacity  entropy
                                   cal/mol     cal/K/mol   cal/K/mol   J/K/mol
 298.15  VIB  0.508E+12            16736.949    111.829    100.377
         ROT  0.501E+08              888.752      2.981     38.216
         INT  0.255E+20            17625.701    114.809    138.592
         TR   0.113E+29             1481.254      4.968     44.587
         TOT                       19106.9552   119.7776   183.1794   766.4225

       T/K    H(0)-H(T)+PV         H(T)/Eh          T*S/Eh         G(T)/Eh
   ------------------------------------------------------------------------
    298.15    0.304489E-01    0.472850E+00    0.870344E-01    0.385816E+00
   ------------------------------------------------------------------------

         :::::::::::::::::::::::::::::::::::::::::::::::::::::
         ::                  THERMODYNAMIC                  ::
         :::::::::::::::::::::::::::::::::::::::::::::::::::::
         :: total free energy         -97.325485914828 Eh   ::
         ::.................................................::
         :: total energy              -97.711301500989 Eh   ::
         :: zero point energy           0.442401151383 Eh   ::
         :: G(RRHO) w/o ZPVE           -0.056585565222 Eh   ::
         :: G(RRHO) contrib.            0.385815586161 Eh   ::
         :::::::::::::::::::::::::::::::::::::::::::::::::::::

           -------------------------------------------------
          | TOTAL ENERGY              -97.711301500989 Eh   |
          | TOTAL ENTHALPY            -97.238451478313 Eh   |
          | TOTAL FREE ENERGY         -97.325485914828 Eh   |
          | GRADIENT NORM               0.000026634604 Eh/α |
          | HOMO-LUMO GAP               0.043019760991 eV   |
           -------------------------------------------------

 * finished run on 2025/07/16 at 19:45:12.716
