   * xtb version 6.7.1 (edcfbbe) compiled by 'albert@albert-system' on 2024-07-22

   ID    Z sym.   atoms
    1    6 C      1-4, 6-11, 15-24, 26-40
    2    7 N      5, 25
    3   16 S      12
    4    8 O      13, 14
    5    1 H      41-70

          program call               : xtb data2507/gas/DMACMNPTO/DMACMNPTO_gas_S0_finalOpt.xtbopt.xyz --gfn 2 --spinpol --tblite --uhf 2 --ohess vtight --parallel 40 --molden --ceasefiles --namespace data2507/gas/DMACMNPTO/DMACMNPTO_gas_T1_preOpt
 * total energy  :  -107.4040003 Eh     change       -0.9494433E-07 Eh
 * total energy  :  -107.4069272 Eh     change       -0.2926892E-02 Eh
 * total energy  :  -107.4083410 Eh     change       -0.1413822E-02 Eh
 * total energy  :  -107.4086708 Eh     change       -0.3297989E-03 Eh
 * total energy  :  -107.4088305 Eh     change       -0.1596953E-03 Eh
 * total energy  :  -107.4088462 Eh     change       -0.1573962E-04 Eh
 * total energy  :  -107.4088561 Eh     change       -0.9829509E-05 Eh
 * total energy  :  -107.4088637 Eh     change       -0.7616092E-05 Eh
 * total energy  :  -107.4088815 Eh     change       -0.1780142E-04 Eh
 * total energy  :  -107.4088944 Eh     change       -0.1289950E-04 Eh
 * total energy  :  -107.4089328 Eh     change       -0.4276091E-06 Eh
 * total energy  :  -107.4089332 Eh     change       -0.3519379E-06 Eh
 * total energy  :  -107.4089334 Eh     change       -0.2475482E-06 Eh
 * total energy  :  -107.4089337 Eh     change       -0.2936937E-06 Eh
 * total energy  :  -107.4089339 Eh     change       -0.1956080E-06 Eh
 * total energy  :  -107.4089342 Eh     change       -0.2546421E-06 Eh
 * total energy  :  -107.4089345 Eh     change       -0.3071907E-06 Eh
 * total energy  :  -107.4089345 Eh     change        0.7415409E-08 Eh
 * total energy  :  -107.4089345 Eh     change       -0.9368094E-08 Eh
   *** GEOMETRY OPTIMIZATION CONVERGED AFTER 45 ITERATIONS ***

 final structure:
================
70
 xtb: 6.7.1 (edcfbbe)
C           -1.90152391006724        0.23264037194176        2.45994842950665
C           -1.01727214539194        0.10635324590417        1.25847001353124
C            0.35969014977110        0.10423428743717        1.36101647268793
C            1.17099779128283       -0.01233113606098        0.22703501553849
N            2.59190364535518       -0.00309175041045        0.34667669786778
C            3.23202306592017       -1.23123292510067        0.30955009772547
C            2.53025130295834       -2.39758480762211        0.64641895080986
C            3.16408587917058       -3.62218119461593        0.66353974561052
C            4.51579553515015       -3.73412282554234        0.35397738139695
C            5.21582272079590       -2.59741687002623       -0.00051330566756
C            4.57952354633348       -1.37160749142416       -0.02873883768132
S            5.41759817486125        0.05751224798132       -0.66092599697757
O            5.05055333937339        0.19331168728182       -2.05154064859739
O            6.82019606498467        0.02027533109279       -0.34796499165992
C            4.59574527880875        1.37051926644198        0.20828085405233
C            5.25700940494298        2.56252594261894        0.42725127988155
C            4.56989415149386        3.65732001284251        0.91631261380915
C            3.20438811469312        3.54227342185292        1.14236336724915
C            2.54407567520172        2.34900258155554        0.93443773960232
C            3.23664616010634        1.21472734191597        0.48633115514992
C            0.60876471819863       -0.15206470882889       -1.04821049396253
C            1.47908572429772       -0.32986257952716       -2.25126000933860
C           -0.76931073448059       -0.14973404303668       -1.15284906409171
C           -1.57705097661449       -0.01680052564391       -0.01919029495700
N           -2.99523545556428       -0.01216011609474       -0.16608953855739
C           -3.65487116001943       -1.20095503617554       -0.09274294301151
C           -2.92725876800439       -2.41886950761868        0.00953338624707
C           -3.57203199118432       -3.61251847615108        0.11621460300545
C           -4.98371210251141       -3.65341308006516        0.13945795362759
C           -5.70462026058068       -2.46718477089324        0.04462282222719
C           -5.09262371806633       -1.23941414230327       -0.07547835974071
C           -5.90792890574989        0.02527817971252       -0.16902502365032
C           -6.78224110347180        0.14168157173668        1.09657762493077
C           -6.80897361123853       -0.06680939685607       -1.41843049050634
C           -5.06038156781252        1.26664735834541       -0.28479987344493
C           -5.63960114048209        2.51288222289952       -0.36925741378891
C           -4.88743187445042        3.67880359916374       -0.47693591581111
C           -3.47739764211780        3.59666827342193       -0.50315953961483
C           -2.86413008841827        2.38558785017864       -0.41061894370463
C           -3.62391760749615        1.18771232415097       -0.29799958017897
H           -2.52840121442358        1.12157372950421        2.38010864438450
H           -1.30780233711145        0.30561256617932        3.36677206331638
H           -2.56016241827081       -0.63271954075346        2.54185021744336
H            0.82829596364238        0.18625473412062        2.33068126925528
H            1.48372828399188       -2.33181687123806        0.90173294005959
H            2.59977077836599       -4.50376296274885        0.92910253903716
H            5.00406002677979       -4.69524714305892        0.37732302209116
H            6.25979570622581       -2.62806267854419       -0.27038149056529
H            6.30907424560336        2.60333476997273        0.19227811803451
H            5.07852338149906        4.59129930019826        1.09433075540522
H            2.64446596192674        4.39725911601203        1.49153480126872
H            1.48295591179437        2.29094776279255        1.11766953332274
H            2.35295226597398        0.31870473273196       -2.21654380204807
H            1.84564271358158       -1.35660942166063       -2.29471084428457
H            0.92169435476113       -0.12706611798051       -3.16187991779038
H           -1.24186037381780       -0.25010045225748       -2.11851732945521
H           -1.84916506694176       -2.38115760536929       -0.00848299909437
H           -3.01044266606127       -4.53119605691108        0.18444276763340
H           -5.49719355850117       -4.59641202345137        0.22972224431548
H           -6.78265306445814       -2.52689666532825        0.06442940128520
H           -6.14927721364441        0.20782574263709        1.97933526983241
H           -7.40636843341697        1.02933749030250        1.05310389310575
H           -7.42765886065660       -0.72558326727122        1.19988330295680
H           -7.45539178544928       -0.93774172725327       -1.36248757197987
H           -7.43155553432781        0.81846909634618       -1.50880809934406
H           -6.19416317028250       -0.14956457885260       -2.31223969826683
H           -6.71556723441501        2.60388759713380       -0.35642991425349
H           -5.37584060495317        4.63702236374164       -0.54321818398499
H           -2.89205571461042        4.49811096305646       -0.59694387789751
H           -1.78760960630756        2.31601550567014       -0.43202201438087

 projected vibrational frequencies (cm⁻¹)
eigval :       -0.00    -0.00    -0.00     0.00     0.00     0.00
eigval :        9.21    13.51    15.54    21.88    32.16    42.52
eigval :       56.76    57.98    74.99    82.90    93.64    96.31
eigval :      105.31   114.65   117.21   131.60   138.90   155.16
eigval :      155.73   172.49   203.35   204.95   209.25   220.48
eigval :      227.90   232.90   239.55   260.25   292.04   294.29
eigval :      298.97   308.72   309.31   314.35   332.93   348.43
eigval :      356.42   368.46   371.30   377.62   392.58   393.84
eigval :      414.66   429.81   431.34   434.24   450.41   458.25
eigval :      464.24   473.28   482.62   503.97   506.48   516.15
eigval :      521.24   537.64   543.68   569.75   571.62   579.34
eigval :      605.82   621.43   630.12   632.61   652.41   657.29
eigval :      659.16   665.24   676.73   694.61   709.04   713.36
eigval :      716.36   719.86   770.86   773.24   777.70   802.78
eigval :      815.53   816.65   835.56   840.57   858.44   866.11
eigval :      867.70   875.99   890.64   891.67   897.73   898.35
eigval :      906.48   909.16   910.06   915.19   918.88   920.75
eigval :      927.15   957.42  1001.39  1008.66  1011.01  1016.40
eigval :     1023.59  1026.80  1030.74  1034.76  1048.53  1053.88
eigval :     1066.85  1080.97  1085.77  1086.79  1099.09  1101.38
eigval :     1115.67  1129.89  1133.37  1149.73  1159.51  1160.76
eigval :     1173.31  1177.61  1179.82  1185.67  1186.75  1203.92
eigval :     1219.29  1223.56  1230.48  1232.42  1239.88  1254.83
eigval :     1255.04  1282.53  1288.72  1288.88  1309.54  1319.45
eigval :     1323.71  1328.78  1337.72  1346.25  1349.54  1361.40
eigval :     1373.41  1390.58  1396.56  1398.82  1399.50  1407.81
eigval :     1411.06  1416.78  1425.64  1445.53  1451.10  1459.07
eigval :     1461.18  1469.75  1473.62  1476.67  1479.26  1480.92
eigval :     1483.45  1484.92  1486.27  1490.64  1492.65  1496.92
eigval :     1501.06  1514.84  1529.23  1536.90  1576.18  1585.71
eigval :     2991.71  2993.33  3005.89  3030.06  3031.18  3033.92
eigval :     3044.88  3047.13  3048.44  3052.95  3053.80  3056.80
eigval :     3080.72  3081.24  3082.93  3083.32  3084.86  3088.08
eigval :     3089.02  3089.25  3096.72  3099.02  3100.80  3101.16
eigval :     3101.68  3106.31  3108.76  3109.68  3109.85  3111.18

   temp. (K)  partition function   enthalpy   heat capacity  entropy
                                   cal/mol     cal/K/mol   cal/K/mol   J/K/mol
 298.15  VIB  0.106E+17            20936.714    130.818    129.999
         ROT  0.440E+08              888.752      2.981     37.954
         INT  0.468E+24            21825.466    133.799    167.953
         TR   0.122E+29             1481.254      4.968     44.739
         TOT                       23306.7204   138.7668   212.6923   889.9044

       T/K    H(0)-H(T)+PV         H(T)/Eh          T*S/Eh         G(T)/Eh
   ------------------------------------------------------------------------
    298.15    0.371416E-01    0.577908E+00    0.101057E+00    0.476851E+00
   ------------------------------------------------------------------------

         :::::::::::::::::::::::::::::::::::::::::::::::::::::
         ::                  THERMODYNAMIC                  ::
         :::::::::::::::::::::::::::::::::::::::::::::::::::::
         :: total free energy        -106.932083570130 Eh   ::
         ::.................................................::
         :: total energy             -107.408934466374 Eh   ::
         :: zero point energy           0.540766224686 Eh   ::
         :: G(RRHO) w/o ZPVE           -0.063915328442 Eh   ::
         :: G(RRHO) contrib.            0.476850896244 Eh   ::
         :::::::::::::::::::::::::::::::::::::::::::::::::::::

           -------------------------------------------------
          | TOTAL ENERGY             -107.408934466374 Eh   |
          | TOTAL ENTHALPY           -106.831026618617 Eh   |
          | TOTAL FREE ENERGY        -106.932083570130 Eh   |
          | GRADIENT NORM               0.000122792588 Eh/α |
           -------------------------------------------------

 * finished run on 2025/09/04 at 15:15:37.891
