   * xtb version 6.7.1 (edcfbbe) compiled by 'albert@albert-system' on 2024-07-22

   ID    Z sym.   atoms
    1    6 C      1-4, 6-11, 15-24, 26-40
    2    7 N      5, 25
    3   16 S      12
    4    8 O      13, 14
    5    1 H      41-70

          program call               : xtb data2507/gas/DMACMNPTO/DMACMNPTO.xyz --gfn 2 --ohess vtight --parallel 40 --molden --ceasefiles --namespace data2507/gas/DMACMNPTO/DMACMNPTO_gas_S0_preOpt
          :  Hamiltonian                  GFN2-xTB          :
 * total energy  :  -107.4890056 Eh     change       -0.1578755E-08 Eh
 * total energy  :  -107.5073996 Eh     change       -0.1839400E-01 Eh
 * total energy  :  -107.5150266 Eh     change       -0.7626988E-02 Eh
 * total energy  :  -107.5168048 Eh     change       -0.1778191E-02 Eh
 * total energy  :  -107.5179236 Eh     change       -0.1118798E-02 Eh
 * total energy  :  -107.5184433 Eh     change       -0.5197403E-03 Eh
 * total energy  :  -107.5186707 Eh     change       -0.2273286E-03 Eh
 * total energy  :  -107.5187617 Eh     change       -0.9098848E-04 Eh
 * total energy  :  -107.5188031 Eh     change       -0.4148037E-04 Eh
 * total energy  :  -107.5188252 Eh     change       -0.2209599E-04 Eh
 * total energy  :  -107.5195418 Eh     change       -0.1056029E-04 Eh
 * total energy  :  -107.5195475 Eh     change       -0.5682094E-05 Eh
 * total energy  :  -107.5195489 Eh     change       -0.1398064E-05 Eh
 * total energy  :  -107.5195500 Eh     change       -0.1123952E-05 Eh
 * total energy  :  -107.5195506 Eh     change       -0.5792367E-06 Eh
 * total energy  :  -107.5195508 Eh     change       -0.2228286E-06 Eh
 * total energy  :  -107.5195508 Eh     change        0.2357851E-08 Eh
 * total energy  :  -107.5195510 Eh     change       -0.1404045E-06 Eh
 * total energy  :  -107.5195510 Eh     change       -0.1615564E-07 Eh
   *** GEOMETRY OPTIMIZATION CONVERGED AFTER 68 ITERATIONS ***

 final structure:
================
70
 xtb: 6.7.1 (edcfbbe)
C           -0.97884585190658        0.00002165753934        2.44093480270798
C           -0.15617927587392        0.00002039265269        1.19140032493830
C            1.22926494417993        0.00001867061210        1.22898149952790
C            1.97615111907764        0.00000784376847        0.05896551860086
N            3.40520680439231       -0.00000625979991        0.11224478316571
C            4.04344669029472       -1.22834149313378        0.16233201953906
C            3.32712130788696       -2.38380351378729        0.50871697101975
C            3.96397993785582       -3.60241928316450        0.62146761532624
C            5.32975540125402       -3.72020881322267        0.40432623653468
C            6.04363308600815       -2.59673553447577        0.03313336097116
C            5.40504076707468       -1.37882108346840       -0.09505898503779
S            6.29706999529616       -0.00005366735417       -0.77361481593523
O            6.06426449086950       -0.00008969758010       -2.19719665275321
O            7.66239368510586       -0.00005216175171       -0.32564922569803
C            5.40506405509226        1.37876458283330       -0.09513238491468
C            6.04367331339758        2.59667636462603        0.03299419209549
C            5.32982456192219        3.72017221076811        0.40416303534463
C            3.96405781233778        3.60240789261627        0.62136148349556
C            3.32717538377607        2.38380210197614        0.50865542664863
C            4.04347330640563        1.22831875079521        0.16228693457107
C            1.36133535957537        0.00000388123308       -1.19263859869789
C            2.18386095349152       -0.00001392027042       -2.44113453656107
C           -0.02609286703344        0.00000977356617       -1.22804275005287
C           -0.77588476959313        0.00001702102831       -0.06121923363476
N           -2.19560726979472        0.00001574679983       -0.13921946200490
C           -2.86623585156768       -1.21125340720734       -0.13597679523109
C           -2.13602487809637       -2.40326152056650       -0.13438893817314
C           -2.77449834454896       -3.62544734253585       -0.12971623212768
C           -4.15648833433985       -3.67944698812583       -0.12780198892262
C           -4.88019883537936       -2.50110367195586       -0.13092328093684
C           -4.26393492821919       -1.25748677356315       -0.13393896483880
C           -5.11281368902649        0.00001013221644       -0.13073825854884
C           -5.98560969815010        0.00004142935634        1.13769918613581
C           -6.00012730600694       -0.00002187177886       -1.38856590022147
C           -4.26394016856583        1.25751017978084       -0.13400675168828
C           -4.88020928634596        2.50112450969745       -0.13105564496102
C           -4.15650375971202        3.67947074793823       -0.12796203014684
C           -2.77451382892054        3.62547627350543       -0.12983310707759
C           -2.13603505698856        2.40329308846197       -0.13445559122646
C           -2.86624086133889        1.21128220390876       -0.13602442897081
H           -1.62174914249334       -0.87961184003293        2.46945115887090
H           -1.62167811628713        0.87970584945672        2.46949433467096
H           -0.34348263780735       -0.00002540563489        3.32226584890657
H            1.74444292964396        0.00001691578270        2.17898118123595
H            2.26603022033580       -2.32062442867176        0.69172703655541
H            3.38505002672358       -4.47358719496967        0.88958555104326
H            5.82087651237246       -4.67468830003043        0.50554019290532
H            7.10136523474905       -2.63245870800491       -0.17514882640416
H            7.10141531724822        2.63236252887109       -0.17525215279830
H            5.82096829062256        4.67464750130232        0.50534190137929
H            3.38513791123669        4.47360213502294        0.88942765104929
H            2.26607999204586        2.32064969695672        0.69165786861821
H            1.54721460052062        0.00003238728085       -3.32132493917524
H            2.83150505172899        0.87573856086084       -2.47529521653477
H            2.83141321717884       -0.87583364690693       -2.47532297038299
H           -0.54174160419214        0.00001002060510       -2.17706037898968
H           -1.05704660582150       -2.36539658381493       -0.13974273890444
H           -2.19034424775382       -4.53364756604590       -0.12832104493819
H           -4.66842075988804       -4.62950513089052       -0.12444027789720
H           -5.95812340373148       -2.55938698634419       -0.12954128296211
H           -6.62147850392417        0.88031613827441        1.17137653967920
H           -6.62144636456984       -0.88025444846363        1.17144617265963
H           -5.35232825993752        0.00008773910363        2.02319927633156
H           -6.63638090270667       -0.88027237600953       -1.41499658145878
H           -6.63639710125946        0.88021716381209       -1.41503754932000
H           -5.37669324989524       -0.00003719178119       -2.28075679000669
H           -5.95813470883364        2.55940226380965       -0.12967755415839
H           -4.66844068119552        4.62952760335963       -0.12466564740936
H           -2.19036386343680        4.53367982747085       -0.12848788294450
H           -1.05705626455948        2.36543402369320       -0.13979071189587

          :  Hamiltonian                  GFN2-xTB          :
         :: gradient norm              0.000081201249 Eh/a0 ::
         :: HOMO-LUMO gap              2.584085705490 eV    ::
         :: SCC energy              -109.325620327747 Eh    ::
         :: -> dispersion             -0.103492812376 Eh    ::
         :: repulsion energy           1.806069338759 Eh    ::

    * Orbital Energies and Occupations

         #    Occupation            Energy/Eh            Energy/eV
      -------------------------------------------------------------
         1        2.0000           -0.7630651             -20.7641
       ...           ...                  ...                  ...
        87        2.0000           -0.4255980             -11.5811
        88        2.0000           -0.4247186             -11.5572
        89        2.0000           -0.4238762             -11.5343
        90        2.0000           -0.4223482             -11.4927
        91        2.0000           -0.4145341             -11.2800
        92        2.0000           -0.4104235             -11.1682
        93        2.0000           -0.4085329             -11.1167
        94        2.0000           -0.4062305             -11.0541
        95        2.0000           -0.4011522             -10.9159
        96        2.0000           -0.3976729             -10.8212
        97        2.0000           -0.3958763             -10.7723
        98        2.0000           -0.3769844             -10.2583
        99        2.0000           -0.3496928              -9.5156 (HOMO)
       100                         -0.2547295              -6.9315 (LUMO)
       101                         -0.2526150              -6.8740
       102                         -0.2505851              -6.8188
       103                         -0.2456126              -6.6835
       104                         -0.2433349              -6.6215
       105                         -0.2270562              -6.1785
       106                         -0.2222021              -6.0464
       107                         -0.2212478              -6.0205
       108                         -0.2200191              -5.9870
       109                         -0.1927487              -5.2450
       110                         -0.1269169              -3.4536
       ...                                ...                  ...
       195                          1.2191587              33.1750
      -------------------------------------------------------------
                  HL-Gap            0.0949633 Eh            2.5841 eV

     #   Z          covCN         q      C6AA      α(0)
     1   6 C        3.757    -0.107    22.588     6.776
     2   6 C        2.967     0.007    27.857     8.657
     3   6 C        2.924    -0.052    29.300     8.877
     4   6 C        2.938     0.050    26.868     8.501
     5   7 N        2.751    -0.065    22.507     7.046
     6   6 C        2.963     0.064    26.561     8.453
     7   6 C        2.926    -0.052    29.289     8.875
     8   6 C        2.920    -0.026    28.646     8.777
     9   6 C        2.919    -0.035    28.880     8.813
    10   6 C        2.965    -0.021    28.539     8.763
    11   6 C        2.974    -0.098    30.469     9.054
    12  16 S        3.850     0.957   107.889    17.482
    13   8 O        0.860    -0.556    25.055     6.711
    14   8 O        0.860    -0.541    24.706     6.664
    15   6 C        2.974    -0.098    30.469     9.054
    16   6 C        2.965    -0.021    28.539     8.763
    17   6 C        2.919    -0.035    28.880     8.813
    18   6 C        2.920    -0.026    28.646     8.777
    19   6 C        2.926    -0.052    29.289     8.875
    20   6 C        2.963     0.064    26.561     8.453
    21   6 C        2.967     0.009    27.813     8.650
    22   6 C        3.758    -0.110    22.651     6.786
    23   6 C        2.927    -0.049    29.214     8.864
    24   6 C        2.932     0.059    26.671     8.470
    25   7 N        2.756    -0.067    22.547     7.052
    26   6 C        2.929     0.057    26.712     8.476
    27   6 C        2.924    -0.060    29.496     8.906
    28   6 C        2.919    -0.034    28.838     8.806
    29   6 C        2.917    -0.045    29.120     8.849
    30   6 C        2.928    -0.036    28.899     8.816
    31   6 C        2.979    -0.015    28.372     8.737
    32   6 C        3.909     0.021    20.159     6.382
    33   6 C        3.761    -0.103    22.513     6.764
    34   6 C        3.761    -0.103    22.519     6.765
    35   6 C        2.979    -0.015    28.372     8.737
    36   6 C        2.928    -0.036    28.899     8.816
    37   6 C        2.917    -0.045    29.120     8.849
    38   6 C        2.919    -0.034    28.838     8.806
    39   6 C        2.924    -0.060    29.496     8.906
    40   6 C        2.929     0.057    26.712     8.476
    41   1 H        0.925     0.055     2.256     2.349
    42   1 H        0.925     0.055     2.256     2.349
    43   1 H        0.925     0.047     2.362     2.403
    44   1 H        0.926     0.047     2.359     2.402
    45   1 H        0.926     0.043     2.403     2.424
    46   1 H        0.926     0.047     2.355     2.400
    47   1 H        0.926     0.049     2.331     2.388
    48   1 H        0.926     0.060     2.195     2.317
    49   1 H        0.926     0.060     2.195     2.317
    50   1 H        0.926     0.049     2.331     2.388
    51   1 H        0.926     0.047     2.355     2.400
    52   1 H        0.926     0.043     2.403     2.424
    53   1 H        0.925     0.053     2.285     2.364
    54   1 H        0.925     0.058     2.222     2.331
    55   1 H        0.925     0.058     2.222     2.331
    56   1 H        0.926     0.052     2.290     2.367
    57   1 H        0.926     0.020     2.734     2.586
    58   1 H        0.926     0.027     2.636     2.539
    59   1 H        0.926     0.026     2.639     2.540
    60   1 H        0.926     0.030     2.584     2.514
    61   1 H        0.925     0.039     2.457     2.451
    62   1 H        0.925     0.039     2.457     2.451
    63   1 H        0.925     0.030     2.587     2.515
    64   1 H        0.925     0.039     2.458     2.452
    65   1 H        0.925     0.039     2.458     2.452
    66   1 H        0.925     0.032     2.563     2.503
    67   1 H        0.926     0.030     2.584     2.514
    68   1 H        0.926     0.026     2.639     2.540
    69   1 H        0.926     0.027     2.636     2.539
    70   1 H        0.926     0.020     2.734     2.586

molecular dipole:
                 x           y           z       tot (Debye)
 q only:       -2.372       0.000       1.342
   full:       -2.265       0.000       1.329       6.676

 projected vibrational frequencies (cm⁻¹)
eigval :       -0.00     0.00     0.00     0.00     0.00     0.00
eigval :      -12.76    10.38    15.08    15.71    21.25    40.92
eigval :       54.48    61.16    77.48    84.41    92.16    97.64
eigval :      101.30   107.96   113.93   121.13   129.75   155.20
eigval :      160.32   183.12   190.90   200.48   220.50   222.61
eigval :      229.28   234.10   239.82   264.92   289.66   293.30
eigval :      304.74   305.59   314.63   330.69   340.00   347.72
eigval :      362.83   373.61   378.38   392.85   405.66   427.01
eigval :      435.44   440.13   445.73   451.46   452.52   459.01
eigval :      480.66   487.57   512.45   512.75   515.69   522.37
eigval :      547.42   553.36   553.70   562.93   581.26   589.03
eigval :      619.41   643.48   648.42   667.09   667.53   678.52
eigval :      682.33   693.13   695.97   702.12   725.15   731.56
eigval :      774.63   775.59   776.49   778.02   783.76   824.27
eigval :      852.65   862.15   865.07   865.60   868.58   869.40
eigval :      890.60   911.88   912.21   912.72   913.03   913.88
eigval :      918.74   921.20   921.21   923.25   923.81   933.26
eigval :      939.50   957.21  1009.35  1014.19  1024.32  1026.50
eigval :     1030.33  1034.73  1066.68  1073.25  1077.49  1089.83
eigval :     1090.41  1109.38  1112.27  1118.98  1134.16  1140.69
eigval :     1158.93  1160.75  1160.85  1164.74  1177.16  1183.09
eigval :     1185.52  1187.24  1187.27  1189.10  1231.66  1235.50
eigval :     1237.06  1239.32  1242.13  1249.10  1260.72  1268.17
eigval :     1286.86  1294.54  1305.07  1318.02  1326.45  1326.80
eigval :     1335.18  1339.63  1347.07  1361.42  1402.80  1404.76
eigval :     1407.62  1412.54  1421.07  1423.40  1426.08  1437.17
eigval :     1444.99  1464.41  1465.37  1472.05  1473.37  1477.12
eigval :     1482.75  1484.16  1490.09  1490.91  1491.89  1499.05
eigval :     1500.76  1505.59  1554.68  1557.77  1562.31  1575.90
eigval :     1590.87  1592.84  1593.76  1596.81  1601.34  1604.83
eigval :     3003.13  3005.21  3017.28  3022.76  3024.80  3028.63
eigval :     3039.79  3042.52  3048.56  3052.08  3052.54  3055.70
eigval :     3077.87  3077.99  3081.37  3082.80  3082.93  3086.14
eigval :     3086.25  3090.05  3091.16  3091.68  3098.19  3098.98
eigval :     3100.82  3100.89  3105.79  3106.28  3110.65  3111.00

   temp. (K)  partition function   enthalpy   heat capacity  entropy
                                   cal/mol     cal/K/mol   cal/K/mol   J/K/mol
 298.15  VIB  0.171E+17            20594.332    127.709    128.792
         ROT  0.442E+08              888.752      2.981     37.963
         INT  0.756E+24            21483.084    130.690    166.755
         TR   0.122E+29             1481.254      4.968     44.739
         TOT                       22964.3381   135.6578   211.4943   884.8923

       T/K    H(0)-H(T)+PV         H(T)/Eh          T*S/Eh         G(T)/Eh
   ------------------------------------------------------------------------
    298.15    0.365960E-01    0.584421E+00    0.100488E+00    0.483933E+00
   ------------------------------------------------------------------------

         :::::::::::::::::::::::::::::::::::::::::::::::::::::
         ::                  THERMODYNAMIC                  ::
         :::::::::::::::::::::::::::::::::::::::::::::::::::::
         :: total free energy        -107.035618268035 Eh   ::
         ::.................................................::
         :: total energy             -107.519550988985 Eh   ::
         :: zero point energy           0.547824499804 Eh   ::
         :: G(RRHO) w/o ZPVE           -0.063891778854 Eh   ::
         :: G(RRHO) contrib.            0.483932720950 Eh   ::
         :::::::::::::::::::::::::::::::::::::::::::::::::::::

           -------------------------------------------------
          | TOTAL ENERGY             -107.519550988985 Eh   |
          | TOTAL ENTHALPY           -106.935130487007 Eh   |
          | TOTAL FREE ENERGY        -107.035618268035 Eh   |
          | GRADIENT NORM               0.000081163586 Eh/α |
          | HOMO-LUMO GAP               2.584082423057 eV   |
           -------------------------------------------------

 * finished run on 2025/09/04 at 15:13:03.767
