   * xtb version 6.7.1 (edcfbbe) compiled by 'albert@albert-system' on 2024-07-22

   ID    Z sym.   atoms
    1    6 C      1-4, 6-11, 15-24, 26-40
    2    7 N      5, 25
    3   16 S      12
    4    8 O      13, 14
    5    1 H      41-70

          program call               : xtb data2507/gas/DMACMNPTO/DMACMNPTO_gas_S0_crest.xyz --gfn 2 --ohess vtight --parallel 40 --molden --ceasefiles --namespace data2507/gas/DMACMNPTO/DMACMNPTO_gas_S0_finalOpt
          :  Hamiltonian                  GFN2-xTB          :
 * total energy  :  -107.5196135 Eh     change       -0.1250015E-08 Eh
 * total energy  :  -107.5196140 Eh     change       -0.5277181E-06 Eh
 * total energy  :  -107.5196147 Eh     change       -0.6680528E-06 Eh
 * total energy  :  -107.5196159 Eh     change       -0.1136917E-05 Eh
 * total energy  :  -107.5196163 Eh     change       -0.4809039E-06 Eh
 * total energy  :  -107.5196169 Eh     change       -0.6036499E-06 Eh
 * total energy  :  -107.5196166 Eh     change        0.3034500E-06 Eh
 * total energy  :  -107.5196171 Eh     change       -0.4742925E-06 Eh
 * total energy  :  -107.5196172 Eh     change       -0.1024022E-06 Eh
 * total energy  :  -107.5196172 Eh     change        0.1324321E-07 Eh
 * total energy  :  -107.5196173 Eh     change       -0.6445903E-07 Eh
   *** GEOMETRY OPTIMIZATION CONVERGED AFTER 11 ITERATIONS ***

 final structure:
================
70
 xtb: 6.7.1 (edcfbbe)
C           -1.84442476975992        0.21005053150963        2.49700784444741
C           -0.98844768069510        0.09877830997081        1.27498655274936
C            0.39505521254029        0.09470226054433        1.35008021476265
C            1.17536214592377       -0.00715452829251        0.20564715008535
N            2.60102282681413       -0.00345763200247        0.29881657842099
C            3.23565468782993       -1.23506779839177        0.27523823320613
C            2.52311912616958       -2.39882114683638        0.59854624325869
C            3.15649794030330       -3.62388922472463        0.63814874488612
C            4.51408067186301       -3.73765124977965        0.37134090179291
C            5.22462788625221       -2.60283279354243        0.02837704926146
C            4.58782119895164       -1.37895534719890       -0.02833901956559
S            5.44230540098636        0.04416887263438       -0.65874536713909
O            5.08947808636392        0.16781398587284       -2.05272088200042
O            6.83908488415436        0.00233671874982       -0.32614232318180
C            4.61200559192268        1.36190994502743        0.19442710645665
C            5.27723196830005        2.54859443911514        0.43051570490470
C            4.58738631281388        3.64602587187205        0.90974257910729
C            3.21841905400869        3.53843799880825        1.11077434363786
C            2.55483783637498        2.34886020171921        0.88916341680813
C            3.24894011294637        1.21296107168837        0.44893507310781
C            0.59448704453147       -0.12317535627411       -1.05693793213656
C            1.43579105067461       -0.28065402042151       -2.28319891684480
C           -0.79233349760462       -0.11902959612555       -1.12900680660008
C           -1.57409013448346       -0.00693651221104        0.01035664792175
N           -2.99119973025003       -0.00361509112083       -0.10771119628726
C           -3.67386690718904       -1.20454896536482       -0.01847951600556
C           -2.95657993075942       -2.39697570468815        0.11517313053378
C           -3.60736004433006       -3.60909423115544        0.20797205901732
C           -4.98912581919927       -3.65274458273607        0.16761780592119
C           -5.70010608429301       -2.47421340872869        0.03399167957111
C           -5.07135543321221       -1.24043961784481       -0.05961921603057
C           -5.90693161681108        0.01810832784922       -0.20011000670885
C           -6.82719690130410        0.13724771592176        1.02851826453528
C           -6.74587791066427       -0.08812212912488       -1.48637807933897
C           -5.04566855104196        1.26441226309010       -0.28294961067580
C           -5.64899020222399        2.50785512438222       -0.41039581507388
C           -4.91377321128048        3.67662015830052       -0.48576061047513
C           -3.53310968650405        3.61268274021900       -0.43522852255842
C           -2.90727240106578        2.39028729160652       -0.31075131541472
C           -3.64922318067754        1.20807990883621       -0.23315103060205
H           -2.48044466312381        1.09282983848933        2.43287701891060
H           -1.23311303874514        0.28137247027067        3.39241914555674
H           -2.49522617825428       -0.65999561892032        2.58269562648746
H            0.88290397986476        0.16625597725538        2.31185404095644
H            1.47001475115366       -2.33425771618814        0.82419637150550
H            2.58289343046872       -4.50357387975326        0.88948368835767
H            5.00209110958262       -4.69812708930754        0.41553746349670
H            6.27558638478838       -2.63481467385367       -0.21226749078771
H            6.33365879210363        2.58334494865486        0.21535159925512
H            5.09818651929893        4.57650427094418        1.09898958032581
H            2.65664676990733        4.39545983221641        1.45130737796486
H            1.49064429231803        2.29811164609084        1.05521678980478
H            2.34125891668469        0.32156862421972       -2.23386007184434
H            1.74722891068587       -1.32120711533299       -2.38617819248321
H            0.87297941058010       -0.00503936073559       -3.17097398682091
H           -1.28117447770307       -0.20387453450394       -2.08841022620894
H           -1.87770457884358       -2.36733451925356        0.14341229779624
H           -3.03301308082254       -4.51776172984603        0.31089870050137
H           -5.51064049109715       -4.59492011869398        0.23866191379376
H           -6.77801651233686       -2.52436213643819        0.00336972834504
H           -6.22806858676745        0.21320831986124        1.93427400721810
H           -7.45573087641914        1.02062230909145        0.95856883576922
H           -7.47219325551591       -0.73255489113937        1.11647699660139
H           -7.38988888845003       -0.96270961431655       -1.45881655424441
H           -7.37116609447385        0.79088195138254       -1.61581923264338
H           -6.08903266414752       -0.17243381506891       -2.35016172466332
H           -6.72569888967613        2.57374533656456       -0.45171688883187
H           -5.41579719373076        4.62693187382733       -0.58375043739731
H           -2.93999422423324        4.51315457019582       -0.49356837897687
H           -1.82915517467208        2.34443768593449       -0.27609525269899

          :  Hamiltonian                  GFN2-xTB          :
         :: gradient norm              0.000039389621 Eh/a0 ::
         :: HOMO-LUMO gap              2.571020343327 eV    ::
         :: SCC energy              -109.325508362511 Eh    ::
         :: -> dispersion             -0.103571603852 Eh    ::
         :: repulsion energy           1.805891098428 Eh    ::

    * Orbital Energies and Occupations

         #    Occupation            Energy/Eh            Energy/eV
      -------------------------------------------------------------
         1        2.0000           -0.7637623             -20.7830
       ...           ...                  ...                  ...
        87        2.0000           -0.4266563             -11.6099
        88        2.0000           -0.4241201             -11.5409
        89        2.0000           -0.4236627             -11.5284
        90        2.0000           -0.4228732             -11.5070
        91        2.0000           -0.4134599             -11.2508
        92        2.0000           -0.4097934             -11.1510
        93        2.0000           -0.4075627             -11.0903
        94        2.0000           -0.4055864             -11.0366
        95        2.0000           -0.4005408             -10.8993
        96        2.0000           -0.3979332             -10.8283
        97        2.0000           -0.3952611             -10.7556
        98        2.0000           -0.3770172             -10.2592
        99        2.0000           -0.3489931              -9.4966 (HOMO)
       100                         -0.2545098              -6.9256 (LUMO)
       101                         -0.2531116              -6.8875
       102                         -0.2495561              -6.7908
       103                         -0.2447500              -6.6600
       104                         -0.2431150              -6.6155
       105                         -0.2264402              -6.1618
       106                         -0.2216093              -6.0303
       107                         -0.2210661              -6.0155
       108                         -0.2205917              -6.0026
       109                         -0.1920833              -5.2269
       110                         -0.1290469              -3.5115
       ...                                ...                  ...
       195                          1.2178637              33.1398
      -------------------------------------------------------------
                  HL-Gap            0.0944833 Eh            2.5710 eV

     #   Z          covCN         q      C6AA      α(0)
     1   6 C        3.757    -0.106    22.585     6.776
     2   6 C        2.967     0.007    27.867     8.659
     3   6 C        2.924    -0.053    29.317     8.879
     4   6 C        2.937     0.050    26.875     8.502
     5   7 N        2.751    -0.066    22.527     7.049
     6   6 C        2.973     0.065    26.541     8.451
     7   6 C        2.925    -0.050    29.254     8.870
     8   6 C        2.919    -0.026    28.648     8.777
     9   6 C        2.919    -0.035    28.875     8.812
    10   6 C        2.960    -0.022    28.544     8.763
    11   6 C        2.974    -0.098    30.466     9.054
    12  16 S        3.855     0.960   107.809    17.476
    13   8 O        0.860    -0.559    25.122     6.720
    14   8 O        0.860    -0.540    24.677     6.660
    15   6 C        2.975    -0.100    30.502     9.059
    16   6 C        2.963    -0.022    28.551     8.764
    17   6 C        2.919    -0.035    28.878     8.812
    18   6 C        2.920    -0.026    28.642     8.776
    19   6 C        2.925    -0.052    29.290     8.875
    20   6 C        2.966     0.064    26.561     8.454
    21   6 C        2.967     0.009    27.811     8.650
    22   6 C        3.757    -0.112    22.691     6.792
    23   6 C        2.927    -0.049    29.221     8.865
    24   6 C        2.932     0.059    26.679     8.471
    25   7 N        2.756    -0.067    22.545     7.052
    26   6 C        2.929     0.058    26.710     8.476
    27   6 C        2.924    -0.060    29.497     8.907
    28   6 C        2.919    -0.034    28.840     8.807
    29   6 C        2.917    -0.045    29.123     8.850
    30   6 C        2.928    -0.036    28.900     8.816
    31   6 C        2.979    -0.015    28.373     8.737
    32   6 C        3.909     0.021    20.159     6.382
    33   6 C        3.761    -0.103    22.513     6.764
    34   6 C        3.761    -0.103    22.517     6.764
    35   6 C        2.979    -0.015    28.375     8.738
    36   6 C        2.928    -0.036    28.901     8.816
    37   6 C        2.917    -0.045    29.120     8.849
    38   6 C        2.919    -0.034    28.837     8.806
    39   6 C        2.924    -0.060    29.497     8.907
    40   6 C        2.929     0.057    26.712     8.476
    41   1 H        0.925     0.055     2.260     2.351
    42   1 H        0.925     0.046     2.368     2.406
    43   1 H        0.925     0.055     2.260     2.351
    44   1 H        0.926     0.047     2.363     2.404
    45   1 H        0.926     0.043     2.407     2.426
    46   1 H        0.926     0.047     2.352     2.398
    47   1 H        0.926     0.049     2.329     2.386
    48   1 H        0.926     0.061     2.192     2.315
    49   1 H        0.926     0.060     2.196     2.318
    50   1 H        0.926     0.049     2.333     2.389
    51   1 H        0.926     0.047     2.353     2.399
    52   1 H        0.926     0.046     2.371     2.408
    53   1 H        0.925     0.062     2.174     2.306
    54   1 H        0.924     0.056     2.244     2.342
    55   1 H        0.925     0.054     2.276     2.359
    56   1 H        0.926     0.052     2.292     2.367
    57   1 H        0.926     0.020     2.738     2.588
    58   1 H        0.926     0.026     2.642     2.542
    59   1 H        0.926     0.026     2.642     2.542
    60   1 H        0.926     0.030     2.586     2.515
    61   1 H        0.925     0.030     2.587     2.515
    62   1 H        0.925     0.039     2.458     2.452
    63   1 H        0.925     0.039     2.459     2.452
    64   1 H        0.925     0.039     2.459     2.452
    65   1 H        0.925     0.039     2.458     2.452
    66   1 H        0.925     0.032     2.563     2.504
    67   1 H        0.926     0.030     2.587     2.515
    68   1 H        0.926     0.026     2.641     2.541
    69   1 H        0.926     0.027     2.634     2.538
    70   1 H        0.926     0.021     2.723     2.580

molecular dipole:
                 x           y           z       tot (Debye)
 q only:       -2.210      -0.128       1.449
   full:       -2.111      -0.140       1.430       6.490

 projected vibrational frequencies (cm⁻¹)
eigval :       -0.00    -0.00    -0.00     0.00     0.00     0.00
eigval :        8.28    15.55    16.19    21.59    31.31    41.98
eigval :       55.61    61.51    81.33    94.02    97.45    99.04
eigval :      101.47   105.47   116.11   120.79   129.57   156.23
eigval :      162.29   183.64   190.75   203.44   220.42   220.63
eigval :      229.37   232.32   241.33   265.56   292.05   293.78
eigval :      305.52   310.78   315.77   330.73   340.29   348.68
eigval :      363.58   374.18   378.65   394.32   405.76   426.55
eigval :      436.29   441.48   446.16   451.69   452.69   459.64
eigval :      480.33   486.26   512.80   513.20   515.72   523.11
eigval :      547.41   552.26   554.03   563.03   581.77   589.14
eigval :      618.48   643.65   648.13   666.83   668.24   680.79
eigval :      682.38   693.12   695.79   702.05   724.01   731.24
eigval :      775.62   776.22   776.52   778.15   783.55   824.26
eigval :      852.28   862.93   864.96   866.08   870.58   871.23
eigval :      895.19   912.00   912.33   912.93   913.04   913.90
eigval :      918.79   921.04   921.38   923.72   924.70   932.82
eigval :      939.41   957.18  1009.26  1014.15  1023.99  1027.65
eigval :     1031.07  1034.98  1066.27  1073.24  1077.49  1087.86
eigval :     1089.93  1108.43  1112.27  1118.99  1134.18  1140.68
eigval :     1159.21  1160.74  1160.83  1164.66  1176.81  1182.79
eigval :     1185.66  1187.17  1187.25  1189.15  1230.50  1235.54
eigval :     1237.05  1239.30  1242.31  1249.11  1260.53  1268.18
eigval :     1287.30  1294.58  1305.26  1318.67  1326.48  1326.53
eigval :     1335.23  1337.80  1347.20  1361.28  1402.77  1404.64
eigval :     1408.37  1413.72  1421.03  1423.71  1426.94  1437.22
eigval :     1445.08  1462.44  1464.14  1472.18  1473.69  1478.43
eigval :     1482.77  1484.47  1490.12  1490.95  1491.85  1499.23
eigval :     1500.79  1505.60  1554.50  1557.85  1562.06  1575.83
eigval :     1590.80  1592.67  1593.64  1596.34  1601.27  1604.69
eigval :     2995.45  3002.99  3017.18  3024.96  3028.61  3034.70
eigval :     3039.73  3042.45  3048.52  3050.77  3051.31  3052.52
eigval :     3077.52  3078.07  3079.93  3082.64  3082.82  3085.61
eigval :     3086.19  3090.07  3091.14  3091.74  3098.07  3098.90
eigval :     3099.83  3100.67  3103.39  3108.25  3110.32  3110.92

   temp. (K)  partition function   enthalpy   heat capacity  entropy
                                   cal/mol     cal/K/mol   cal/K/mol   J/K/mol
 298.15  VIB  0.651E+16            20523.986    127.890    127.765
         ROT  0.441E+08              888.752      2.981     37.960
         INT  0.287E+24            21412.738    130.871    165.725
         TR   0.122E+29             1481.254      4.968     44.739
         TOT                       22893.9920   135.8395   210.4646   880.5837

       T/K    H(0)-H(T)+PV         H(T)/Eh          T*S/Eh         G(T)/Eh
   ------------------------------------------------------------------------
    298.15    0.364839E-01    0.584449E+00    0.999985E-01    0.484451E+00
   ------------------------------------------------------------------------

         :::::::::::::::::::::::::::::::::::::::::::::::::::::
         ::                  THERMODYNAMIC                  ::
         :::::::::::::::::::::::::::::::::::::::::::::::::::::
         :: total free energy        -107.035166482208 Eh   ::
         ::.................................................::
         :: total energy             -107.519617264084 Eh   ::
         :: zero point energy           0.547965385556 Eh   ::
         :: G(RRHO) w/o ZPVE           -0.063514603681 Eh   ::
         :: G(RRHO) contrib.            0.484450781875 Eh   ::
         :::::::::::::::::::::::::::::::::::::::::::::::::::::

           -------------------------------------------------
          | TOTAL ENERGY             -107.519617264084 Eh   |
          | TOTAL ENTHALPY           -106.935167979898 Eh   |
          | TOTAL FREE ENERGY        -107.035166482208 Eh   |
          | GRADIENT NORM               0.000039365628 Eh/α |
          | HOMO-LUMO GAP               2.571022005443 eV   |
           -------------------------------------------------

 * finished run on 2025/09/04 at 15:15:28.491
