   * xtb version 6.7.1 (edcfbbe) compiled by 'albert@albert-system' on 2024-07-22

   ID    Z sym.   atoms
    1    6 C      1-4, 6-11, 15-24, 26-40
    2    7 N      5, 25
    3   16 S      12
    4    8 O      13, 14
    5    1 H      41-70

          program call               : xtb data2507/gas/DMACMNPTO/DMACMNPTO_gas_T1_crest.xyz --gfn 2 --spinpol --tblite --uhf 2 --ohess vtight --parallel 40 --molden --ceasefiles --namespace data2507/gas/DMACMNPTO/DMACMNPTO_gas_T1_finalOpt
 * total energy  :  -107.4086547 Eh     change       -0.8862159E-08 Eh
 * total energy  :  -107.4086670 Eh     change       -0.1227035E-04 Eh
 * total energy  :  -107.4086719 Eh     change       -0.4921903E-05 Eh
 * total energy  :  -107.4086734 Eh     change       -0.1485750E-05 Eh
 * total energy  :  -107.4086750 Eh     change       -0.1670941E-05 Eh
 * total energy  :  -107.4086764 Eh     change       -0.1378280E-05 Eh
 * total energy  :  -107.4086778 Eh     change       -0.1375563E-05 Eh
 * total energy  :  -107.4086787 Eh     change       -0.8770816E-06 Eh
 * total energy  :  -107.4086792 Eh     change       -0.5295650E-06 Eh
 * total energy  :  -107.4086798 Eh     change       -0.5922828E-06 Eh
 * total energy  :  -107.4086803 Eh     change       -0.5449466E-06 Eh
 * total energy  :  -107.4086808 Eh     change       -0.4242987E-06 Eh
 * total energy  :  -107.4086810 Eh     change       -0.2075567E-06 Eh
 * total energy  :  -107.4086810 Eh     change       -0.2805292E-07 Eh
 * total energy  :  -107.4086812 Eh     change       -0.1593926E-06 Eh
 * total energy  :  -107.4086813 Eh     change       -0.1698210E-06 Eh
 * total energy  :  -107.4086813 Eh     change        0.2857001E-07 Eh
 * total energy  :  -107.4086814 Eh     change       -0.1101543E-06 Eh
 * total energy  :  -107.4086815 Eh     change       -0.5618395E-07 Eh
   *** GEOMETRY OPTIMIZATION CONVERGED AFTER 19 ITERATIONS ***

 final structure:
================
70
 xtb: 6.7.1 (edcfbbe)
C           -1.66617263204192        1.48474425608048        2.10958341778821
C           -0.89277725105971        0.76750019179398        1.04544946767346
C            0.47089465470780        0.78144658569236        1.02828545913399
C            1.23032644137606        0.09706858081711        0.02943812565474
N            2.55877665376930        0.33393924041035       -0.08739657127042
C            3.35570764259232        1.01160259258562        0.86108596977720
C            3.14353934764523        2.33154507754519        1.24936281184125
C            4.03741793344334        2.95519037680124        2.09723788274972
C            5.18994050773959        2.28814267574497        2.53666830245326
C            5.43934675471335        1.00008469202049        2.11305981600773
C            4.52518128352090        0.35168602264297        1.30151212623620
S            4.79907020553958       -1.22158416510737        0.54339795505351
O            3.72831049045738       -2.12860835964739        0.89971848279851
O            6.15106844650335       -1.67075737298662        0.74140295249246
C            4.51544778463951       -0.67148144508275       -1.11063926120656
C            5.36001814211932       -0.83403549556505       -2.19364315124755
C            5.00287165028783       -0.32121970801736       -3.42281730079209
C            3.79217078146545        0.37728907533162       -3.56710030634902
C            2.95709332173818        0.56553742196556       -2.48630693399009
C            3.30639811024066        0.04814842740622       -1.24011044379596
C            0.54541860981984       -0.86694554463989       -0.79114897792903
C            1.27999117869052       -1.92121059916450       -1.55598895282520
C           -0.82126485685732       -0.89412691630795       -0.74515614750796
C           -1.57168140573604       -0.02788498645191        0.08124936497116
N           -2.97565371563563       -0.05401087092488        0.02692972097858
C           -3.65713328502720       -1.21371519344526        0.36670063648995
C           -2.94419494410056       -2.31800276604850        0.85362904097247
C           -3.58889238246666       -3.49104323570110        1.17662106858977
C           -4.96466852357095       -3.58129781964360        1.04330696922427
C           -5.67844580265625       -2.47370125073591        0.62535264437092
C           -5.05481782267477       -1.27837321788359        0.29200210435812
C           -5.90074676513762       -0.08049274683690       -0.08602314391699
C           -6.82283516636160        0.25660125490073        1.10077166317567
C           -6.73828355973384       -0.43018669453334       -1.33038296590876
C           -5.05126394053626        1.13009943721143       -0.40821905789329
C           -5.66495156438898        2.31533183829167       -0.79147040474394
C           -4.93776278250657        3.43170041178481       -1.16010225709541
C           -3.55427906083092        3.36126826855844       -1.19054620730669
C           -2.92017064254100        2.19885873263525       -0.81405579710533
C           -3.65171747074837        1.08577049303268       -0.37687079589787
H           -2.41963495982296        0.82711015800785        2.54195560936325
H           -2.18005490606331        2.35489976186041        1.70055716367469
H           -0.99894406224258        1.81846264175120        2.89959530327829
H            1.00423780690480        1.30871869468590        1.80282801048975
H            2.29549961542789        2.87596037957611        0.85940359999397
H            3.85771592755142        3.97315359631675        2.40665552360247
H            5.88521871665439        2.79363321787755        3.18807399456541
H            6.33008466657102        0.46426718010693        2.40206500286105
H            6.27973656073521       -1.37870158976001       -2.04732598641527
H            5.64682366628083       -0.45406759125777       -4.27764727032824
H            3.52060201854175        0.78115543847464       -4.53009335410474
H            2.03827959794008        1.12670435357423       -2.58623949182251
H            2.12667462114134       -2.27552892511577       -0.96762359676580
H            0.61213084423660       -2.75870027597043       -1.74727242702912
H            1.65622456892809       -1.56215441347739       -2.51235821747192
H           -1.36058476714199       -1.59707166500534       -1.36395394492950
H           -1.87746331697289       -2.24460331516521        0.99142698217396
H           -3.01769154929728       -4.33038202810534        1.54220675252457
H           -5.48042243115938       -4.49725167599112        1.28660474876430
H           -6.75339948322382       -2.54633645876388        0.56409619452422
H           -6.22543558833998        0.49637526858672        1.97843046350929
H           -7.45240969547843        1.11127015932067        0.87026328942992
H           -7.46616184805195       -0.58413584370905        1.34354153007284
H           -7.36822910049548       -1.29473874496427       -1.14216500749365
H           -7.37774013842931        0.40066495121598       -1.61415114112469
H           -6.08091463436818       -0.65920653430391       -2.16698739963989
H           -6.74236401072312        2.37348813750589       -0.80917076968804
H           -5.44651875612774        4.33947606492532       -1.44513588416260
H           -2.97071366544061        4.20878086195218       -1.51664451056810
H           -1.84461477633251        2.13392952872226       -0.86819256099286

 projected vibrational frequencies (cm⁻¹)
eigval :       -0.00    -0.00     0.00     0.00     0.00     0.00
eigval :       12.77    16.57    20.81    37.35    47.03    58.78
eigval :       61.26    72.88    87.78    99.92   103.11   105.84
eigval :      117.77   124.31   127.67   136.07   160.33   170.46
eigval :      184.98   190.54   195.16   204.90   216.46   228.07
eigval :      236.25   246.51   253.05   267.55   297.82   305.24
eigval :      307.42   317.96   326.24   329.38   334.49   354.79
eigval :      356.66   360.15   378.07   381.57   402.03   406.97
eigval :      414.03   425.51   430.76   441.81   450.94   457.92
eigval :      474.97   482.27   496.89   502.60   509.20   523.04
eigval :      534.22   545.93   552.70   555.06   580.36   587.80
eigval :      593.80   606.56   632.74   636.81   641.64   653.88
eigval :      663.95   686.98   689.57   691.84   698.76   713.57
eigval :      748.98   752.51   772.84   778.99   780.45   815.64
eigval :      825.63   829.97   852.24   856.82   860.58   875.55
eigval :      880.53   887.84   896.15   902.47   902.99   907.55
eigval :      914.04   915.28   916.25   917.89   923.59   925.49
eigval :      937.94   958.00  1012.24  1013.60  1015.99  1020.80
eigval :     1028.65  1032.81  1036.03  1051.67  1058.56  1071.09
eigval :     1075.26  1091.12  1107.89  1114.07  1116.12  1138.49
eigval :     1142.23  1154.57  1154.85  1158.90  1163.54  1165.87
eigval :     1175.33  1183.54  1184.78  1189.19  1199.33  1208.58
eigval :     1219.72  1225.08  1233.73  1242.99  1248.65  1257.21
eigval :     1264.38  1282.23  1292.96  1295.33  1309.04  1328.89
eigval :     1331.87  1335.18  1340.24  1341.45  1362.43  1375.32
eigval :     1386.91  1394.58  1399.88  1402.45  1404.17  1407.88
eigval :     1419.63  1422.38  1429.70  1451.88  1459.41  1460.68
eigval :     1468.92  1474.85  1476.89  1478.22  1479.29  1481.48
eigval :     1487.30  1488.21  1491.67  1498.15  1501.78  1508.82
eigval :     1519.24  1554.31  1564.48  1574.93  1577.45  1589.11
eigval :     2997.61  3007.58  3014.54  3017.70  3028.41  3030.51
eigval :     3032.90  3044.14  3046.54  3050.03  3052.79  3056.54
eigval :     3066.86  3072.77  3077.43  3084.80  3086.25  3089.28
eigval :     3089.75  3089.94  3092.34  3096.42  3096.84  3099.17
eigval :     3101.69  3103.96  3104.41  3104.80  3105.84  3112.59

   temp. (K)  partition function   enthalpy   heat capacity  entropy
                                   cal/mol     cal/K/mol   cal/K/mol   J/K/mol
 298.15  VIB  0.332E+15            20426.242    130.700    124.913
         ROT  0.438E+08              888.752      2.981     37.947
         INT  0.145E+23            21314.994    133.681    162.860
         TR   0.122E+29             1481.254      4.968     44.739
         TOT                       22796.2483   138.6487   207.5991   868.5946

       T/K    H(0)-H(T)+PV         H(T)/Eh          T*S/Eh         G(T)/Eh
   ------------------------------------------------------------------------
    298.15    0.363281E-01    0.580164E+00    0.986370E-01    0.481527E+00
   ------------------------------------------------------------------------

         :::::::::::::::::::::::::::::::::::::::::::::::::::::
         ::                  THERMODYNAMIC                  ::
         :::::::::::::::::::::::::::::::::::::::::::::::::::::
         :: total free energy        -106.927154879271 Eh   ::
         ::.................................................::
         :: total energy             -107.408681496488 Eh   ::
         :: zero point energy           0.543835510271 Eh   ::
         :: G(RRHO) w/o ZPVE           -0.062308893054 Eh   ::
         :: G(RRHO) contrib.            0.481526617216 Eh   ::
         :::::::::::::::::::::::::::::::::::::::::::::::::::::

           -------------------------------------------------
          | TOTAL ENERGY             -107.408681496488 Eh   |
          | TOTAL ENTHALPY           -106.828517852106 Eh   |
          | TOTAL FREE ENERGY        -106.927154879271 Eh   |
          | GRADIENT NORM               0.000095870310 Eh/α |
           -------------------------------------------------

 * finished run on 2025/09/04 at 15:19:27.499
