   * xtb version 6.7.1 (edcfbbe) compiled by 'albert@albert-system' on 2024-07-22

   ID    Z sym.   atoms
    1    6 C      1-9, 11-17, 19-25, 27-32
    2    7 N      10
    3    8 O      18, 26
    4    1 H      33-53

          program call               : xtb data2507/toluene/DMAC-AQ/DMAC-AQ_toluene_S0_crest.xyz --gfn 2 --gbsa toluene --ohess vtight --parallel 40 --molden --ceasefiles --namespace data2507/toluene/DMAC-AQ/DMAC-AQ_toluene_S0_finalOpt
      * Solvation model:               GBSA
        Solvent                        toluene
        Solvent mass                       9.2140E+01 g/mol
          :  Hamiltonian                  GFN2-xTB          :
 * total energy  :   -83.9229717 Eh     change       -0.6662617E-09 Eh
 * total energy  :   -83.9230869 Eh     change       -0.1151795E-03 Eh
 * total energy  :   -83.9231227 Eh     change       -0.3578294E-04 Eh
 * total energy  :   -83.9231289 Eh     change       -0.6207427E-05 Eh
 * total energy  :   -83.9231329 Eh     change       -0.3995163E-05 Eh
 * total energy  :   -83.9231352 Eh     change       -0.2352056E-05 Eh
 * total energy  :   -83.9231361 Eh     change       -0.9212163E-06 Eh
 * total energy  :   -83.9231370 Eh     change       -0.8127581E-06 Eh
 * total energy  :   -83.9231380 Eh     change       -0.1088364E-05 Eh
 * total energy  :   -83.9231396 Eh     change       -0.1552188E-05 Eh
 * total energy  :   -83.9231410 Eh     change       -0.1443772E-05 Eh
 * total energy  :   -83.9231420 Eh     change       -0.9572190E-06 Eh
 * total energy  :   -83.9231427 Eh     change       -0.6989784E-06 Eh
 * total energy  :   -83.9231433 Eh     change       -0.5939211E-06 Eh
 * total energy  :   -83.9231438 Eh     change       -0.5012588E-06 Eh
 * total energy  :   -83.9231441 Eh     change       -0.3317667E-06 Eh
 * total energy  :   -83.9231444 Eh     change       -0.2515324E-06 Eh
 * total energy  :   -83.9231445 Eh     change       -0.1554299E-06 Eh
 * total energy  :   -83.9231446 Eh     change       -0.8586179E-07 Eh
   *** GEOMETRY OPTIMIZATION CONVERGED AFTER 19 ITERATIONS ***

 final structure:
================
53
 xtb: 6.7.1 (edcfbbe)
C           -5.06737328619426        0.83962807027567       -1.91534654154807
C           -3.74067366508054        0.43917234719688       -1.26932627480743
C           -2.71349249610279        0.20441083261207       -2.39620841566120
C           -3.86044458414519       -0.82425991834035       -0.43328674947303
C           -4.94396548131907       -1.68902987343867       -0.46946930609871
C           -4.98872721901318       -2.80845816178696        0.34519060255489
C           -3.96181328325798       -3.06416467750914        1.23664230289633
C           -2.87453509932726       -2.21140672916273        1.29436828988976
C           -2.80859813877529       -1.11797554445884        0.44028574513707
N           -1.73058980054353       -0.20446556514316        0.50028988819183
C           -0.42039035138727       -0.56187494533169        0.35302665768078
C           -0.03010844772737       -1.90774302876434        0.21117801970435
C            1.29318145191343       -2.24751718974613        0.07851307444482
C            2.30496145346221       -1.28203293934819        0.05280266160482
C            1.92189078687605        0.06912676929214        0.11544335835966
C            0.58850597366049        0.41071641871438        0.25403171263890
C            2.91452686800023        1.15887422127532        0.02524374685168
O            2.58702089925538        2.33729066284655        0.05745870218943
C            4.32610577872445        0.74644037112487       -0.09926504616593
C            5.31049719395758        1.73021315178611       -0.17568183981012
C            6.64587378411611        1.38769012928502       -0.28352078972799
C            7.01536827056870        0.05094291856365       -0.31800501658529
C            6.04747093923673       -0.93493843196279       -0.24628640886770
C            4.69935251727694       -0.60438115727315       -0.13739826071880
C            3.69783868221151       -1.69347773765718       -0.06975144498434
O            4.03574791041393       -2.87433423563535       -0.11888665233077
C           -2.17451360683580        1.13778131274835        0.53894982404846
C           -1.67296860484310        2.03227366395840        1.47567015735506
C           -2.15970214778904        3.32572039849434        1.51924516064006
C           -3.16005289924933        3.71262938611542        0.64490535908170
C           -3.68866062271967        2.80552156414775       -0.25872120322849
C           -3.20986945902154        1.50576795169402       -0.32547844262114
H           -5.83172659578027        1.01632984834531       -1.16211342869976
H           -5.40574227408539        0.05716317654444       -2.58956387308395
H           -4.93641403471168        1.74121850165168       -2.50804132702137
H           -3.06478832440019       -0.58699911146430       -3.05496057994570
H           -2.59111572563758        1.11524224341726       -2.97849555846725
H           -1.74056171932003       -0.08300475548852       -2.00698652006860
H           -5.76923729575582       -1.49868578194487       -1.13543281326068
H           -5.83884855985326       -3.47215760140899        0.29467253179211
H           -4.00925857964200       -3.91785082904673        1.89580823374060
H           -2.08711636533896       -2.37896220659232        2.01377919648029
H           -0.77666587284955       -2.68453014499407        0.18386979081023
H            1.58288983228025       -3.28396450727950       -0.01676972239571
H            0.34618313682869        1.46229789850667        0.25878971482351
H            4.99920125163531        2.76447039551313       -0.14608611298900
H            7.39761494619958        2.16040896484554       -0.34053001320925
H            8.05658920807769       -0.22235981456392       -0.40090596893367
H            6.31232400277432       -1.98220342918160       -0.27319664900537
H           -0.91543636711810        1.70956807348078        2.17437226824865
H           -1.76368566645993        4.02316230103565        2.24184374530144
H           -3.54288071730696        4.72176511557852        0.67482963670611
H           -4.48234219567774        3.12740779947313       -0.91247053586304

          :  Hamiltonian                  GFN2-xTB          :
         :: gradient norm              0.000059711453 Eh/a0 ::
         :: HOMO-LUMO gap              1.240364624116 eV    ::
         :: SCC energy               -85.354126373028 Eh    ::
         :: -> dispersion             -0.071977072883 Eh    ::
         :: -> Gsolv                  -0.038825212967 Eh    ::
         :: repulsion energy           1.430981762294 Eh    ::

    * Orbital Energies and Occupations

         #    Occupation            Energy/Eh            Energy/eV
      -------------------------------------------------------------
         1        2.0000           -0.7158622             -19.4796
       ...           ...                  ...                  ...
        65        2.0000           -0.4332525             -11.7894
        66        2.0000           -0.4291442             -11.6776
        67        2.0000           -0.4250698             -11.5667
        68        2.0000           -0.4247341             -11.5576
        69        2.0000           -0.4236259             -11.5274
        70        2.0000           -0.4227681             -11.5041
        71        2.0000           -0.4165504             -11.3349
        72        2.0000           -0.4101231             -11.1600
        73        2.0000           -0.4079376             -11.1005
        74        2.0000           -0.4048276             -11.0159
        75        2.0000           -0.4041101             -10.9964
        76        2.0000           -0.3908016             -10.6343
        77        2.0000           -0.3685459             -10.0286 (HOMO)
        78                         -0.3229632              -8.7883 (LUMO)
        79                         -0.2756612              -7.5011
        80                         -0.2455955              -6.6830
        81                         -0.2409097              -6.5555
        82                         -0.2340227              -6.3681
        83                         -0.2287586              -6.2248
        84                         -0.2256821              -6.1411
        85                         -0.2237886              -6.0896
        86                         -0.1871481              -5.0926
        87                         -0.1802445              -4.9047
        88                         -0.1140628              -3.1038
       ...                                ...                  ...
       149                          0.7208196              19.6145
      -------------------------------------------------------------
                  HL-Gap            0.0455827 Eh            1.2404 eV

     #   Z          covCN         q      C6AA      α(0)
     1   6 C        3.759    -0.111    22.666     6.787
     2   6 C        3.910     0.023    20.125     6.376
     3   6 C        3.761    -0.100    22.454     6.755
     4   6 C        2.987    -0.003    28.089     8.694
     5   6 C        2.923    -0.037    28.909     8.817
     6   6 C        2.919    -0.034    28.852     8.808
     7   6 C        2.920    -0.032    28.799     8.800
     8   6 C        2.919    -0.045    29.112     8.848
     9   6 C        2.950     0.052    26.830     8.496
    10   7 N        2.754    -0.047    22.156     6.991
    11   6 C        2.909     0.078    26.254     8.402
    12   6 C        2.919    -0.053    29.310     8.878
    13   6 C        2.922    -0.016    28.406     8.740
    14   6 C        2.973    -0.035    28.862     8.812
    15   6 C        2.973    -0.017    28.430     8.746
    16   6 C        2.929    -0.043    29.056     8.840
    17   6 C        2.832     0.225    23.282     7.907
    18   8 O        0.858    -0.412    21.912     6.276
    19   6 C        2.974    -0.016    28.411     8.743
    20   6 C        2.923    -0.015    28.377     8.736
    21   6 C        2.917    -0.020    28.500     8.754
    22   6 C        2.917    -0.018    28.456     8.748
    23   6 C        2.923    -0.015    28.396     8.739
    24   6 C        2.974    -0.013    28.344     8.733
    25   6 C        2.830     0.218    23.407     7.928
    26   8 O        0.858    -0.437    22.425     6.349
    27   6 C        2.951     0.052    26.829     8.496
    28   6 C        2.920    -0.043    29.071     8.842
    29   6 C        2.920    -0.031    28.779     8.797
    30   6 C        2.919    -0.034    28.851     8.808
    31   6 C        2.923    -0.037    28.917     8.819
    32   6 C        2.987    -0.003    28.096     8.695
    33   1 H        0.925     0.043     2.405     2.425
    34   1 H        0.925     0.047     2.352     2.398
    35   1 H        0.925     0.047     2.359     2.402
    36   1 H        0.925     0.045     2.387     2.416
    37   1 H        0.925     0.043     2.403     2.424
    38   1 H        0.925     0.032     2.564     2.504
    39   1 H        0.926     0.051     2.306     2.375
    40   1 H        0.926     0.041     2.440     2.443
    41   1 H        0.926     0.040     2.444     2.445
    42   1 H        0.926     0.042     2.420     2.433
    43   1 H        0.926     0.056     2.243     2.342
    44   1 H        0.926     0.057     2.239     2.340
    45   1 H        0.926     0.064     2.158     2.297
    46   1 H        0.926     0.062     2.179     2.308
    47   1 H        0.926     0.058     2.218     2.329
    48   1 H        0.926     0.058     2.219     2.330
    49   1 H        0.926     0.061     2.190     2.314
    50   1 H        0.926     0.039     2.458     2.452
    51   1 H        0.926     0.039     2.461     2.453
    52   1 H        0.926     0.040     2.444     2.445
    53   1 H        0.926     0.051     2.305     2.374

molecular dipole:
                 x           y           z       tot (Debye)
 q only:       -2.230       0.499      -0.224
   full:       -2.066       0.485      -0.164       5.409

 projected vibrational frequencies (cm⁻¹)
eigval :       -0.00    -0.00    -0.00    -0.00     0.00     0.00
eigval :       19.80    26.74    36.68    50.41    63.64    86.70
eigval :      104.10   112.94   131.22   139.59   153.40   168.63
eigval :      172.69   182.88   199.54   225.93   256.65   258.56
eigval :      286.91   299.37   316.15   339.06   348.92   364.34
eigval :      369.44   370.29   382.00   400.65   402.31   404.49
eigval :      411.58   422.09   450.81   456.40   478.63   499.21
eigval :      505.97   517.94   554.35   563.02   573.50   592.25
eigval :      601.03   620.18   621.62   644.83   669.19   679.10
eigval :      683.58   686.01   693.76   719.49   725.43   767.74
eigval :      776.75   782.76   790.37   793.40   809.05   829.99
eigval :      871.54   880.42   886.76   894.06   897.01   906.84
eigval :      914.78   920.29   922.43   930.67   933.24   933.65
eigval :      939.00   943.65   950.40   965.71  1009.20  1013.16
eigval :     1072.45  1076.60  1084.67  1086.48  1098.43  1104.38
eigval :     1123.37  1136.19  1150.85  1169.75  1170.90  1176.92
eigval :     1180.70  1187.93  1192.73  1213.00  1227.61  1229.93
eigval :     1241.47  1254.68  1256.55  1266.70  1271.19  1281.81
eigval :     1285.59  1317.24  1324.29  1333.43  1340.98  1362.65
eigval :     1395.83  1413.38  1417.58  1423.81  1436.32  1439.83
eigval :     1451.19  1454.82  1469.00  1488.85  1489.18  1490.67
eigval :     1503.75  1517.87  1526.59  1556.47  1571.45  1573.34
eigval :     1574.63  1582.98  1587.24  1596.21  1621.33  1646.72
eigval :     3027.46  3029.73  3033.38  3036.11  3048.08  3051.93
eigval :     3080.03  3080.20  3081.50  3084.18  3085.29  3086.83
eigval :     3087.22  3090.05  3095.64  3096.49  3097.90  3103.73
eigval :     3114.69  3116.57  3117.12

   temp. (K)  partition function   enthalpy   heat capacity  entropy
                                   cal/mol     cal/K/mol   cal/K/mol   J/K/mol
 298.15  VIB  0.342E+10            14283.194     95.068     85.380
         ROT  0.215E+08              888.752      2.981     36.534
         INT  0.735E+17            15171.946     98.049    121.914
         TR   0.819E+28             1481.254      4.968     43.944
         TOT                       16653.2003   103.0170   165.8577   693.9485

       T/K    H(0)-H(T)+PV         H(T)/Eh          T*S/Eh         G(T)/Eh
   ------------------------------------------------------------------------
    298.15    0.265386E-01    0.435241E+00    0.788043E-01    0.356436E+00
   ------------------------------------------------------------------------

         :::::::::::::::::::::::::::::::::::::::::::::::::::::
         ::                  THERMODYNAMIC                  ::
         :::::::::::::::::::::::::::::::::::::::::::::::::::::
         :: total free energy         -83.566708126890 Eh   ::
         ::.................................................::
         :: total energy              -83.923144610976 Eh   ::
         :: zero point energy           0.408702255937 Eh   ::
         :: G(RRHO) w/o ZPVE           -0.052265771851 Eh   ::
         :: G(RRHO) contrib.            0.356436484086 Eh   ::
         :::::::::::::::::::::::::::::::::::::::::::::::::::::

           -------------------------------------------------
          | TOTAL ENERGY              -83.923144610976 Eh   |
          | TOTAL ENTHALPY            -83.487903791104 Eh   |
          | TOTAL FREE ENERGY         -83.566708126890 Eh   |
          | GRADIENT NORM               0.000059696663 Eh/α |
          | HOMO-LUMO GAP               1.240367590215 eV   |
           -------------------------------------------------

 * finished run on 2025/08/25 at 18:10:56.443
