   * xtb version 6.7.1 (edcfbbe) compiled by 'albert@albert-system' on 2024-07-22

   ID    Z sym.   atoms
    1    6 C      1-9, 11-17, 19-25, 27-32
    2    7 N      10
    3    8 O      18, 26
    4    1 H      33-53

          program call               : xtb data2507/toluene/DMAC-AQ/DMAC-AQ.xyz --gfn 2 --gbsa toluene --ohess vtight --parallel 40 --molden --ceasefiles --namespace data2507/toluene/DMAC-AQ/DMAC-AQ_toluene_S0_preOpt
      * Solvation model:               GBSA
        Solvent                        toluene
        Solvent mass                       9.2140E+01 g/mol
          :  Hamiltonian                  GFN2-xTB          :
 * total energy  :   -83.9047761 Eh     change       -0.7643735E-09 Eh
 * total energy  :   -83.9152329 Eh     change       -0.1045678E-01 Eh
 * total energy  :   -83.9181425 Eh     change       -0.2909587E-02 Eh
 * total energy  :   -83.9185655 Eh     change       -0.4230140E-03 Eh
 * total energy  :   -83.9187549 Eh     change       -0.1894218E-03 Eh
 * total energy  :   -83.9187749 Eh     change       -0.2003833E-04 Eh
 * total energy  :   -83.9187804 Eh     change       -0.5474288E-05 Eh
 * total energy  :   -83.9187818 Eh     change       -0.1359346E-05 Eh
 * total energy  :   -83.9187827 Eh     change       -0.8902353E-06 Eh
 * total energy  :   -83.9187831 Eh     change       -0.4274387E-06 Eh
 * total energy  :   -83.9187833 Eh     change       -0.2111753E-06 Eh
 * total energy  :   -83.9187834 Eh     change       -0.7278824E-07 Eh
   *** GEOMETRY OPTIMIZATION CONVERGED AFTER 12 ITERATIONS ***

 final structure:
================
53
 xtb: 6.7.1 (edcfbbe)
C           -5.16781910916944        0.00003230827707        0.75637619700373
C           -4.03866575681330        0.00003889460090       -0.29104061321048
C           -4.62999605678323        0.00008746997455       -1.71350632503123
C           -3.20793409200856       -1.25752955217386       -0.11269899277148
C           -3.81348321867940       -2.50130738500314       -0.23291202552649
C           -3.10688506184814       -3.68107920286325       -0.08532559718474
C           -1.75208001161052       -3.62878904411505        0.18868783367049
C           -1.12453651433294       -2.40655506564522        0.31369507724802
C           -1.83854560427368       -1.21388686255197        0.16812250013451
N           -1.18008653654614       -0.00003097843575        0.30622438385737
C            0.20722375751565       -0.00006429531678        0.60767628204080
C            0.63445897423870       -0.00020783933301        1.93382340995810
C            1.98557999940121       -0.00023554462626        2.22155662888893
C            2.93438758539893       -0.00012718711696        1.20062737896083
C            2.50648976470944        0.00001206877200       -0.13425100518859
C            1.14444922334639        0.00004142062245       -0.41749451224810
C            3.46572280965973        0.00016270393889       -1.26171281067377
O            3.08883416087712        0.00025783916482       -2.42300941056876
C            4.89707736372785        0.00007778703413       -0.90210239226326
C            5.84592967195341        0.00015682333384       -1.92247193248978
C            7.19847157902375        0.00013387978820       -1.63042134732166
C            7.62145214551796        0.00001726248145       -0.30927733590663
C            6.68973007693854       -0.00007476379240        0.71381650890765
C            5.32496134465678       -0.00004758413152        0.43411629482700
C            4.36853768245447       -0.00015825215327        1.55891693005509
O            4.73895762351455       -0.00026661340362        2.72288105953126
C           -1.83849626317518        1.21385727397468        0.16817333897248
C           -1.12444812997906        2.40649146520972        0.31383385612383
C           -1.75194968913606        3.62875564682743        0.18890907458279
C           -3.10675271047000        3.68111106028776       -0.08510215958813
C           -3.81339243692819        2.50137336420252       -0.23276275562182
C           -3.20788586189952        1.25756649030083       -0.11263486499847
H           -4.74391336586400       -0.00000079746537        1.75921418198994
H           -5.79573305153090       -0.87994943827173        0.64944481349008
H           -5.79570353518866        0.88004060728084        0.64949046352883
H           -5.24483856207169       -0.88050749666572       -1.87751016357889
H           -5.24481195831194        0.88071043455345       -1.87745985463792
H           -3.82696478981605        0.00009636762889       -2.44890541874913
H           -4.86931936056162       -2.55788059305502       -0.44984317098072
H           -3.61043209964646       -4.63091967443638       -0.18467084581912
H           -1.17969939921863       -4.53733708118430        0.30548145772529
H           -0.06678667667696       -2.37361129419652        0.52704498022123
H           -0.09649678229392       -0.00030064040981        2.72831751336642
H            2.33495083112272       -0.00034263963320        3.24360542292497
H            0.82712283793270        0.00016233151299       -1.45044612056781
H            5.49505202817938        0.00026710051384       -2.94420272844876
H            7.92143888463010        0.00020256481016       -2.43193413639226
H            8.67551229355672       -0.00001825095944       -0.07671592408737
H            6.99705219785089       -0.00017536515992        1.74948377012778
H           -0.06670373888551        2.37349766061989        0.52720171039315
H           -1.17953965131224        4.53727597529187        0.30577393260050
H           -3.61026660692271        4.63097553612434       -0.18438632356350
H           -4.86922520425240        2.55799710497192       -0.44969623371230

          :  Hamiltonian                  GFN2-xTB          :
         :: gradient norm              0.000050765167 Eh/a0 ::
         :: HOMO-LUMO gap              0.352491277829 eV    ::
         :: SCC energy               -85.350030197085 Eh    ::
         :: -> dispersion             -0.071176964593 Eh    ::
         :: -> Gsolv                  -0.036061952226 Eh    ::
         :: repulsion energy           1.431246833551 Eh    ::

    * Orbital Energies and Occupations

         #    Occupation            Energy/Eh            Energy/eV
      -------------------------------------------------------------
         1        2.0000           -0.7252254             -19.7344
       ...           ...                  ...                  ...
        65        2.0000           -0.4409406             -11.9986
        66        2.0000           -0.4377685             -11.9123
        67        2.0000           -0.4331643             -11.7870
        68        2.0000           -0.4328897             -11.7795
        69        2.0000           -0.4268250             -11.6145
        70        2.0000           -0.4218946             -11.4803
        71        2.0000           -0.4106743             -11.1750
        72        2.0000           -0.4095576             -11.1446
        73        2.0000           -0.4052468             -11.0273
        74        2.0000           -0.4030017             -10.9662
        75        2.0000           -0.3994581             -10.8698
        76        2.0000           -0.3940602             -10.7229
        77        1.9978           -0.3495307              -9.5112 (HOMO)
        78        0.0022           -0.3365768              -9.1587 (LUMO)
        79                         -0.2891545              -7.8683
        80                         -0.2575582              -7.0085
        81                         -0.2527608              -6.8780
        82                         -0.2258946              -6.1469
        83                         -0.2207638              -6.0073
        84                         -0.2199310              -5.9846
        85                         -0.2010339              -5.4704
        86                         -0.1992357              -5.4215
        87                         -0.1923058              -5.2329
        88                         -0.1263927              -3.4393
       ...                                ...                  ...
       149                          0.7122397              19.3810
      -------------------------------------------------------------
                  HL-Gap            0.0129539 Eh            0.3525 eV

     #   Z          covCN         q      C6AA      α(0)
     1   6 C        3.761    -0.104    22.542     6.768
     2   6 C        3.908     0.021    20.160     6.382
     3   6 C        3.761    -0.104    22.533     6.767
     4   6 C        2.979    -0.012    28.320     8.729
     5   6 C        2.928    -0.037    28.911     8.818
     6   6 C        2.917    -0.045    29.126     8.850
     7   6 C        2.919    -0.034    28.846     8.807
     8   6 C        2.924    -0.060    29.487     8.905
     9   6 C        2.928     0.058    26.704     8.475
    10   7 N        2.754    -0.073    22.646     7.068
    11   6 C        2.925     0.085    26.113     8.380
    12   6 C        2.919    -0.028    28.690     8.784
    13   6 C        2.922    -0.012    28.322     8.727
    14   6 C        2.974    -0.013    28.343     8.733
    15   6 C        2.973    -0.011    28.279     8.723
    16   6 C        2.925    -0.023    28.585     8.768
    17   6 C        2.830     0.228    23.218     7.896
    18   8 O        0.858    -0.395    21.575     6.228
    19   6 C        2.974    -0.012    28.313     8.728
    20   6 C        2.923    -0.012    28.303     8.724
    21   6 C        2.917    -0.015    28.385     8.737
    22   6 C        2.917    -0.015    28.381     8.736
    23   6 C        2.923    -0.012    28.306     8.725
    24   6 C        2.974    -0.012    28.308     8.727
    25   6 C        2.830     0.228    23.227     7.897
    26   8 O        0.858    -0.396    21.605     6.232
    27   6 C        2.928     0.058    26.704     8.475
    28   6 C        2.924    -0.060    29.487     8.905
    29   6 C        2.919    -0.034    28.846     8.807
    30   6 C        2.917    -0.045    29.126     8.850
    31   6 C        2.928    -0.037    28.911     8.818
    32   6 C        2.979    -0.012    28.320     8.729
    33   1 H        0.925     0.031     2.569     2.506
    34   1 H        0.925     0.043     2.411     2.428
    35   1 H        0.925     0.043     2.411     2.428
    36   1 H        0.925     0.043     2.413     2.429
    37   1 H        0.925     0.043     2.413     2.429
    38   1 H        0.925     0.030     2.582     2.513
    39   1 H        0.926     0.035     2.513     2.479
    40   1 H        0.926     0.028     2.617     2.530
    41   1 H        0.926     0.028     2.620     2.531
    42   1 H        0.926     0.020     2.737     2.587
    43   1 H        0.926     0.068     2.105     2.269
    44   1 H        0.926     0.075     2.031     2.229
    45   1 H        0.926     0.072     2.059     2.244
    46   1 H        0.926     0.068     2.108     2.270
    47   1 H        0.926     0.065     2.141     2.288
    48   1 H        0.926     0.065     2.140     2.288
    49   1 H        0.926     0.068     2.104     2.268
    50   1 H        0.926     0.020     2.737     2.587
    51   1 H        0.926     0.028     2.620     2.531
    52   1 H        0.926     0.028     2.617     2.530
    53   1 H        0.926     0.035     2.513     2.479

molecular dipole:
                 x           y           z       tot (Debye)
 q only:        0.235      -0.000      -0.039
   full:        0.317      -0.000      -0.029       0.810

 projected vibrational frequencies (cm⁻¹)
eigval :       -0.00    -0.00     0.00     0.00     0.00     0.00
eigval :      -25.28     9.13    25.34    33.80    44.32    89.03
eigval :       98.91   101.32   103.56   132.21   137.39   145.96
eigval :      154.73   188.12   198.43   219.75   231.23   237.53
eigval :      268.77   290.02   311.82   329.08   330.46   342.06
eigval :      362.39   371.09   378.02   382.75   393.26   405.09
eigval :      406.65   417.45   444.04   444.90   482.29   488.75
eigval :      507.80   513.17   545.79   551.32   577.21   590.28
eigval :      604.85   614.93   640.71   646.18   672.79   673.04
eigval :      679.38   683.89   691.52   695.50   722.85   773.05
eigval :      777.09   777.53   789.58   793.47   821.67   844.26
eigval :      869.62   870.34   880.55   894.68   899.04   913.26
eigval :      913.98   918.22   921.10   921.11   932.71   933.35
eigval :      935.20   937.41   949.92   955.37  1007.13  1011.39
eigval :     1075.36  1079.26  1085.07  1087.07  1112.25  1115.02
eigval :     1118.10  1139.66  1154.07  1158.69  1172.00  1172.65
eigval :     1182.36  1186.72  1186.77  1214.25  1217.62  1231.04
eigval :     1243.25  1249.02  1249.63  1267.50  1274.93  1292.77
eigval :     1314.21  1321.39  1322.81  1332.59  1336.95  1337.74
eigval :     1396.16  1398.62  1416.19  1417.30  1434.88  1439.24
eigval :     1453.22  1462.57  1476.91  1486.44  1488.08  1493.91
eigval :     1497.79  1501.93  1549.27  1563.88  1567.05  1572.85
eigval :     1574.33  1589.57  1589.61  1598.99  1645.18  1654.39
eigval :     3021.13  3024.11  3039.10  3042.28  3047.58  3052.58
eigval :     3073.65  3073.69  3080.98  3081.10  3085.79  3088.27
eigval :     3089.25  3089.83  3089.94  3091.52  3094.31  3095.79
eigval :     3097.02  3100.18  3101.85

   temp. (K)  partition function   enthalpy   heat capacity  entropy
                                   cal/mol     cal/K/mol   cal/K/mol   J/K/mol
 298.15  VIB  0.559E+10            14082.454     93.671     84.643
         ROT  0.222E+08              888.752      2.981     36.594
         INT  0.124E+18            14971.206     96.652    121.237
         TR   0.819E+28             1481.254      4.968     43.944
         TOT                       16452.4604   101.6198   165.1806   691.1157

       T/K    H(0)-H(T)+PV         H(T)/Eh          T*S/Eh         G(T)/Eh
   ------------------------------------------------------------------------
    298.15    0.262187E-01    0.433808E+00    0.784826E-01    0.355325E+00
   ------------------------------------------------------------------------

         :::::::::::::::::::::::::::::::::::::::::::::::::::::
         ::                  THERMODYNAMIC                  ::
         :::::::::::::::::::::::::::::::::::::::::::::::::::::
         :: total free energy         -83.563458243739 Eh   ::
         ::.................................................::
         :: total energy              -83.918783365979 Eh   ::
         :: zero point energy           0.407589101912 Eh   ::
         :: G(RRHO) w/o ZPVE           -0.052263979672 Eh   ::
         :: G(RRHO) contrib.            0.355325122240 Eh   ::
         :::::::::::::::::::::::::::::::::::::::::::::::::::::

           -------------------------------------------------
          | TOTAL ENERGY              -83.918783365979 Eh   |
          | TOTAL ENTHALPY            -83.484975599520 Eh   |
          | TOTAL FREE ENERGY         -83.563458243739 Eh   |
          | GRADIENT NORM               0.000050770180 Eh/α |
          | HOMO-LUMO GAP               0.352493095797 eV   |
           -------------------------------------------------

 * finished run on 2025/08/25 at 18:09:41.603
