   * xtb version 6.7.1 (edcfbbe) compiled by 'albert@albert-system' on 2024-07-22

   ID    Z sym.   atoms
    1    6 C      1-9, 11-17, 19-25, 27-32
    2    7 N      10
    3    8 O      18, 26
    4    1 H      33-53

          program call               : xtb data2507/toluene/DMAC-AQ/DMAC-AQ_toluene_T1_crest.xyz --gfn 2 --uhf 2 --gbsa toluene --ohess vtight --parallel 40 --molden --ceasefiles --namespace data2507/toluene/DMAC-AQ/DMAC-AQ_toluene_T1_finalOpt
      * Solvation model:               GBSA
        Solvent                        toluene
        Solvent mass                       9.2140E+01 g/mol
          :  Hamiltonian                  GFN2-xTB          :
 * total energy  :   -83.8747912 Eh     change       -0.4239013E-08 Eh
 * total energy  :   -83.8749956 Eh     change       -0.2044190E-03 Eh
 * total energy  :   -83.8750508 Eh     change       -0.5526001E-04 Eh
 * total energy  :   -83.8750553 Eh     change       -0.4508957E-05 Eh
 * total energy  :   -83.8750569 Eh     change       -0.1563144E-05 Eh
 * total energy  :   -83.8750591 Eh     change       -0.2187232E-05 Eh
 * total energy  :   -83.8750615 Eh     change       -0.2431488E-05 Eh
 * total energy  :   -83.8750644 Eh     change       -0.2881614E-05 Eh
 * total energy  :   -83.8750673 Eh     change       -0.2856799E-05 Eh
 * total energy  :   -83.8750697 Eh     change       -0.2489099E-05 Eh
 * total energy  :   -83.8750795 Eh     change       -0.2364358E-05 Eh
 * total energy  :   -83.8750813 Eh     change       -0.1827969E-05 Eh
 * total energy  :   -83.8750829 Eh     change       -0.1560787E-05 Eh
 * total energy  :   -83.8750845 Eh     change       -0.1628282E-05 Eh
 * total energy  :   -83.8750861 Eh     change       -0.1585061E-05 Eh
 * total energy  :   -83.8750873 Eh     change       -0.1153818E-05 Eh
 * total energy  :   -83.8750881 Eh     change       -0.7896665E-06 Eh
 * total energy  :   -83.8750884 Eh     change       -0.3747727E-06 Eh
 * total energy  :   -83.8750884 Eh     change       -0.3930566E-08 Eh
   *** GEOMETRY OPTIMIZATION CONVERGED AFTER 22 ITERATIONS ***

 final structure:
================
53
 xtb: 6.7.1 (edcfbbe)
C           -5.70925757064669        0.00361063760005        0.64278456279314
C           -4.55228991973771        0.04835335779204       -0.37667864954079
C           -5.11444616371286        0.15344643156221       -1.80970889288454
C           -3.75625203357071       -1.23143907607940       -0.26401677769310
C           -4.37771046356515       -2.45428864272359       -0.48001581829896
C           -3.68816340334659       -3.64971309621824       -0.39100628036905
C           -2.33458399560457       -3.64306184453160       -0.07806044259778
C           -1.69022612520584       -2.44847489559362        0.14317882910494
C           -2.38631281638898       -1.23132017538500        0.05568997807477
N           -1.71760942510765       -0.05169088258263        0.29099500962133
C           -0.32432941462598       -0.09577464455334        0.58160419434476
C            0.11832888304271       -0.23175305158629        1.90926513470918
C            1.46269139645403       -0.25671970591593        2.16749720151009
C            2.40991491897192       -0.14603503330749        1.13559075856116
C            1.95928608814840       -0.01889502984036       -0.19571182614219
C            0.58186397454114        0.00379049111413       -0.44949079865537
C            2.87712367764894        0.09864420668490       -1.31771727997989
O            2.47517346548313        0.20244070267135       -2.49450279974014
C            4.28770789065744        0.09222746246257       -0.96940283176233
C            5.23386865422153        0.21466112902696       -1.99926107990527
C            6.57929811647592        0.21978592423407       -1.72624088877436
C            7.02531719101801        0.10323200736882       -0.40716090089963
C            6.11705019248762       -0.01984926800429        0.61522466706816
C            4.73753308282180       -0.02861506098325        0.35950962014044
C            3.81870985130409       -0.16180066849341        1.47833476747790
O            4.21056308842314       -0.27964657970230        2.65858972805259
C           -2.34042302954631        1.17396245802724        0.22049988340619
C           -1.60203226179190        2.34016445077359        0.48225452915884
C           -2.19909529528987        3.57756639490280        0.42339005899131
C           -3.54695995904843        3.67929351563923        0.10250807596811
C           -4.27953103836960        2.53432104062765       -0.15166550869832
C           -3.70709464593300        1.27018151365469       -0.09860777998807
H           -5.31304801649892       -0.08086620826771        1.65264164394514
H           -6.35468741382834       -0.84815512495643        0.45308683969640
H           -6.30901186057402        0.90621851218191        0.58239191330279
H           -5.73618636264316       -0.70561733019067       -2.04160741487938
H           -5.71510783598515        1.05071795648611       -1.92094205209333
H           -4.29807255791640        0.19279665228629       -2.52824391390822
H           -5.42707514306121       -2.48088640195710       -0.72641977470067
H           -4.20043865493247       -4.58294362238372       -0.56635856590730
H           -1.78473043851479       -4.56882774548326       -0.00828454097969
H           -0.63879687325946       -2.44080755754555        0.38255678054018
H           -0.60414699384168       -0.31074016535284        2.70667793384340
H            1.84363828395488       -0.35665510259659        3.17382792964779
H            0.25337147111034        0.10634604079304       -1.47385681832455
H            4.86173666512028        0.30479814315463       -3.01010084030691
H            7.29328927001234        0.31474783717293       -2.53101893225289
H            8.08370639249969        0.10904396824080       -0.19241375558795
H            6.43315110328491       -0.11290903018569        1.64474843568343
H           -0.55530854605497        2.26050042405052        0.72882270125452
H           -1.61635526422928        4.46276354577067        0.62623916394208
H           -4.02187700750233        4.64682782643294        0.05188482406283
H           -5.32461176014867        2.63417546440936       -0.39757154183044

          :  Hamiltonian                  GFN2-xTB          :
         :: gradient norm              0.000049596192 Eh/a0 ::
         :: HOMO-LUMO gap              1.314343457542 eV    ::
         :: SCC energy               -85.299761615773 Eh    ::
         :: -> dispersion             -0.071010993968 Eh    ::
         :: -> Gsolv                  -0.051229276748 Eh    ::
         :: repulsion energy           1.424673179432 Eh    ::

    * Orbital Energies and Occupations

         #    Occupation            Energy/Eh            Energy/eV
      -------------------------------------------------------------
         1        2.0000           -0.6997645             -19.0416
       ...           ...                  ...                  ...
        66        2.0000           -0.4298474             -11.6967
        67        2.0000           -0.4276704             -11.6375
        68        2.0000           -0.4254778             -11.5778
        69        2.0000           -0.4247675             -11.5585
        70        2.0000           -0.4226299             -11.5003
        71        2.0000           -0.4186975             -11.3933
        72        2.0000           -0.4167928             -11.3415
        73        2.0000           -0.4108665             -11.1802
        74        2.0000           -0.4095180             -11.1436
        75        2.0000           -0.3924890             -10.6802
        76        1.9354           -0.3786465             -10.3035
        77        1.0646           -0.3735680             -10.1653
        78        1.0000           -0.3172699              -8.6334 (HOMO)
        79                         -0.2689686              -7.3190 (LUMO)
        80                         -0.2531019              -6.8873
        81                         -0.2431267              -6.6158
        82                         -0.2427411              -6.6053
        83                         -0.2407589              -6.5514
        84                         -0.2331388              -6.3440
        85                         -0.2178561              -5.9282
        86                         -0.1811220              -4.9286
        87                         -0.1705996              -4.6423
        88                         -0.1179430              -3.2094
        89                         -0.1094621              -2.9786
       ...                                ...                  ...
       149                          0.7070163              19.2389
      -------------------------------------------------------------
                  HL-Gap            0.0483013 Eh            1.3143 eV

     #   Z          covCN         q      C6AA      α(0)
     1   6 C        3.761    -0.111    22.666     6.787
     2   6 C        3.909     0.026    20.076     6.369
     3   6 C        3.761    -0.110    22.646     6.784
     4   6 C        2.978     0.006    27.887     8.662
     5   6 C        2.924    -0.029    28.735     8.791
     6   6 C        2.917    -0.024    28.596     8.769
     7   6 C        2.917    -0.023    28.582     8.767
     8   6 C        2.922    -0.042    29.042     8.837
     9   6 C        2.930     0.062    26.614     8.460
    10   7 N        2.756     0.004    21.183     6.836
    11   6 C        2.930     0.053    26.819     8.493
    12   6 C        2.915    -0.043    29.063     8.840
    13   6 C        2.923    -0.017    28.441     8.746
    14   6 C        2.976    -0.025    28.627     8.776
    15   6 C        2.977    -0.023    28.566     8.767
    16   6 C        2.924    -0.027    28.677     8.782
    17   6 C        2.836     0.194    23.874     8.007
    18   8 O        0.857    -0.477    23.292     6.471
    19   6 C        2.977    -0.023    28.579     8.769
    20   6 C        2.923    -0.020    28.515     8.757
    21   6 C        2.916    -0.030    28.747     8.792
    22   6 C        2.916    -0.030    28.747     8.792
    23   6 C        2.923    -0.020    28.512     8.756
    24   6 C        2.977    -0.024    28.587     8.770
    25   6 C        2.836     0.193    23.893     8.010
    26   8 O        0.857    -0.480    23.353     6.479
    27   6 C        2.931     0.062    26.615     8.461
    28   6 C        2.922    -0.042    29.041     8.837
    29   6 C        2.917    -0.023    28.582     8.767
    30   6 C        2.917    -0.024    28.596     8.769
    31   6 C        2.924    -0.029    28.736     8.791
    32   6 C        2.978     0.006    27.887     8.662
    33   1 H        0.925     0.042     2.421     2.433
    34   1 H        0.925     0.058     2.220     2.330
    35   1 H        0.925     0.058     2.222     2.331
    36   1 H        0.925     0.058     2.222     2.331
    37   1 H        0.925     0.058     2.221     2.331
    38   1 H        0.925     0.040     2.444     2.445
    39   1 H        0.926     0.061     2.184     2.311
    40   1 H        0.926     0.054     2.265     2.353
    41   1 H        0.926     0.050     2.321     2.382
    42   1 H        0.926     0.045     2.386     2.416
    43   1 H        0.926     0.057     2.230     2.335
    44   1 H        0.926     0.059     2.207     2.323
    45   1 H        0.926     0.058     2.223     2.332
    46   1 H        0.926     0.047     2.360     2.402
    47   1 H        0.926     0.045     2.383     2.414
    48   1 H        0.926     0.045     2.388     2.417
    49   1 H        0.926     0.046     2.369     2.407
    50   1 H        0.926     0.044     2.393     2.419
    51   1 H        0.926     0.050     2.324     2.384
    52   1 H        0.926     0.054     2.265     2.353
    53   1 H        0.926     0.061     2.183     2.311

molecular dipole:
                 x           y           z       tot (Debye)
 q only:       -6.333       0.052      -0.140
   full:       -6.042       0.051      -0.131      15.361

 projected vibrational frequencies (cm⁻¹)
eigval :       -0.00    -0.00     0.00     0.00     0.00     0.00
eigval :       17.32    23.17    27.79    50.01    53.56    89.91
eigval :       97.45   104.54   125.99   127.87   146.10   148.62
eigval :      153.22   194.67   201.50   214.43   231.66   242.05
eigval :      275.50   296.38   316.55   323.02   329.63   340.18
eigval :      363.86   373.76   379.48   387.16   405.18   406.44
eigval :      416.90   426.64   444.10   447.15   487.52   496.99
eigval :      504.49   525.67   540.19   548.00   564.08   583.56
eigval :      599.14   607.25   622.21   639.88   646.53   665.46
eigval :      671.92   684.84   690.79   706.54   719.05   729.35
eigval :      771.25   774.31   777.42   795.94   816.91   826.96
eigval :      871.96   873.83   875.76   879.52   881.96   909.99
eigval :      913.16   916.88   917.95   919.61   919.89   924.16
eigval :      926.14   935.54   940.94   959.85   998.87  1010.83
eigval :     1070.57  1078.53  1080.65  1088.06  1102.14  1107.64
eigval :     1121.63  1136.59  1138.25  1147.57  1166.31  1172.30
eigval :     1180.35  1181.02  1184.50  1201.53  1211.98  1216.27
eigval :     1228.50  1235.46  1238.56  1254.19  1267.73  1290.65
eigval :     1298.00  1308.83  1329.30  1336.64  1359.75  1365.19
eigval :     1373.16  1396.19  1400.34  1407.94  1414.54  1419.94
eigval :     1424.98  1441.00  1448.36  1466.63  1475.49  1476.36
eigval :     1479.11  1487.58  1493.44  1508.10  1532.31  1541.14
eigval :     1542.21  1554.88  1558.18  1572.76  1575.46  1584.00
eigval :     3031.67  3034.61  3054.52  3057.03  3060.90  3065.30
eigval :     3072.94  3075.85  3080.26  3082.07  3086.77  3090.05
eigval :     3090.51  3091.57  3097.23  3097.93  3098.47  3107.19
eigval :     3107.54  3112.20  3113.02

   temp. (K)  partition function   enthalpy   heat capacity  entropy
                                   cal/mol     cal/K/mol   cal/K/mol   J/K/mol
 298.15  VIB  0.122E+11            14578.779     95.817     87.815
         ROT  0.220E+08              888.752      2.981     36.574
         INT  0.268E+18            15467.532     98.798    124.389
         TR   0.819E+28             1481.254      4.968     43.944
         TOT                       16948.7858   103.7661   168.3323   704.3023

       T/K    H(0)-H(T)+PV         H(T)/Eh          T*S/Eh         G(T)/Eh
   ------------------------------------------------------------------------
    298.15    0.270096E-01    0.432832E+00    0.799801E-01    0.352852E+00
   ------------------------------------------------------------------------

         :::::::::::::::::::::::::::::::::::::::::::::::::::::
         ::                  THERMODYNAMIC                  ::
         :::::::::::::::::::::::::::::::::::::::::::::::::::::
         :: total free energy         -83.522236726799 Eh   ::
         ::.................................................::
         :: total energy              -83.875088431823 Eh   ::
         :: zero point energy           0.405822202062 Eh   ::
         :: G(RRHO) w/o ZPVE           -0.052970497038 Eh   ::
         :: G(RRHO) contrib.            0.352851705024 Eh   ::
         :::::::::::::::::::::::::::::::::::::::::::::::::::::

           -------------------------------------------------
          | TOTAL ENERGY              -83.875088431823 Eh   |
          | TOTAL ENTHALPY            -83.442256620408 Eh   |
          | TOTAL FREE ENERGY         -83.522236726799 Eh   |
          | GRADIENT NORM               0.000050049226 Eh/α |
          | HOMO-LUMO GAP               1.314344623610 eV   |
           -------------------------------------------------

 * finished run on 2025/08/25 at 18:12:38.497
