   * xtb version 6.7.1 (edcfbbe) compiled by 'albert@albert-system' on 2024-07-22

   ID    Z sym.   atoms
    1    6 C      1-9, 11-17, 19-25, 27-32
    2    7 N      10
    3    8 O      18, 26
    4    1 H      33-53

          program call               : xtb data2507/toluene/DMAC-AQ/DMAC-AQ_toluene_S0_finalOpt.xtbopt.xyz --gfn 2 --uhf 2 --gbsa toluene --ohess vtight --parallel 40 --molden --ceasefiles --namespace data2507/toluene/DMAC-AQ/DMAC-AQ_toluene_T1_preOpt
      * Solvation model:               GBSA
        Solvent                        toluene
        Solvent mass                       9.2140E+01 g/mol
          :  Hamiltonian                  GFN2-xTB          :
 * total energy  :   -83.8623834 Eh     change       -0.2916892E-07 Eh
 * total energy  :   -83.8650961 Eh     change       -0.2712691E-02 Eh
 * total energy  :   -83.8657583 Eh     change       -0.6621938E-03 Eh
 * total energy  :   -83.8658116 Eh     change       -0.5331295E-04 Eh
 * total energy  :   -83.8658379 Eh     change       -0.2625887E-04 Eh
 * total energy  :   -83.8658527 Eh     change       -0.1477981E-04 Eh
 * total energy  :   -83.8658673 Eh     change       -0.1469425E-04 Eh
 * total energy  :   -83.8658834 Eh     change       -0.1610093E-04 Eh
 * total energy  :   -83.8658971 Eh     change       -0.1362651E-04 Eh
 * total energy  :   -83.8659068 Eh     change       -0.9724747E-05 Eh
 * total energy  :   -83.8659190 Eh     change       -0.1528430E-05 Eh
 * total energy  :   -83.8659201 Eh     change       -0.1086150E-05 Eh
 * total energy  :   -83.8659208 Eh     change       -0.7503470E-06 Eh
 * total energy  :   -83.8659216 Eh     change       -0.7769618E-06 Eh
 * total energy  :   -83.8659224 Eh     change       -0.8046678E-06 Eh
 * total energy  :   -83.8659231 Eh     change       -0.6653931E-06 Eh
 * total energy  :   -83.8659237 Eh     change       -0.5907655E-06 Eh
 * total energy  :   -83.8659243 Eh     change       -0.6146208E-06 Eh
 * total energy  :   -83.8659243 Eh     change       -0.6586049E-08 Eh
   *** GEOMETRY OPTIMIZATION CONVERGED AFTER 22 ITERATIONS ***

 final structure:
================
53
 xtb: 6.7.1 (edcfbbe)
C           -5.13416790970278        0.84537049700546       -1.86555033875441
C           -3.78494430253182        0.44988572014123       -1.26341246621668
C           -2.79046567041293        0.23096518478599       -2.42405077082496
C           -3.86881441920257       -0.82003620836750       -0.43757303175264
C           -4.92976280607139       -1.71048546901795       -0.47319362475939
C           -4.93918031421030       -2.84206384676235        0.32734080544324
C           -3.89340668464547       -3.08823670713878        1.20165871532435
C           -2.82018014154310       -2.21979648523133        1.25050305956967
C           -2.78837224788742       -1.10972681201839        0.40928827589673
N           -1.72844571700075       -0.18960711054814        0.45213125480647
C           -0.39914920142069       -0.54385566112776        0.34262763333694
C           -0.01440023227057       -1.90497818692242        0.21297881206496
C            1.30414813739764       -2.24511834322841        0.10902130922699
C            2.32163358902832       -1.27441856800987        0.08532133985578
C            1.94735066712779        0.08557467428461        0.13694528955888
C            0.59647923744855        0.42435199062156        0.25012884589375
C            2.92356445666909        1.15821167193682        0.05629815907385
O            2.58640440438118        2.36112489808615        0.09647724978266
C            4.30643490943864        0.73559623127301       -0.06723084779453
C            5.30571071895421        1.71808583128979       -0.15718065524674
C            6.62928461431889        1.37172154786283       -0.26639990767725
C            6.99999216294783        0.02406907777343       -0.29207485140069
C            6.03978779461959       -0.95335389178528       -0.20933330168455
C            4.67997957946015       -0.62267799032419       -0.09829639429189
C            3.70441988530562       -1.69681798832109       -0.02843509060489
O            4.02669448395832       -2.90318903051435       -0.05900617082940
C           -2.16675040129855        1.14350686154635        0.50213147655311
C           -1.63286096252561        2.04528443734291        1.42003568898856
C           -2.11533105156574        3.33810627320933        1.47167426773761
C           -3.13589291189186        3.72686356906892        0.61924868349225
C           -3.69404132292801        2.81733378989403       -0.26541786976152
C           -3.23171233751200        1.51304917870848       -0.33261311938669
H           -5.87537683405324        1.01075687655944       -1.08747796886971
H           -5.48635544161217        0.06595211354727       -2.53545182207020
H           -5.02707467527950        1.75139723968869       -2.45539996482096
H           -3.15195343759139       -0.56350827701385       -3.07285289435007
H           -2.69924845361889        1.14438780183189       -3.00721042053655
H           -1.80162855571526       -0.04301387105092       -2.06577543601265
H           -5.76704234074612       -1.52911582304277       -1.12596374685159
H           -5.77726912020598       -3.52053275824189        0.28280732953334
H           -3.91718457022378       -3.94673917726766        1.85501635483429
H           -2.02501856304229       -2.37319534036100        1.96400489793966
H           -0.76183186665164       -2.67880443462458        0.16098361604792
H            1.60526312261405       -3.27880435385529        0.01786685431350
H            0.36730286503856        1.47849235975788        0.23486382388012
H            4.99080588068570        2.75184420343521       -0.13408844488528
H            7.38509606529062        2.14034630891862       -0.33251175615541
H            8.04164323281274       -0.24787617462286       -0.37765628142725
H            6.29711428659055       -2.00303534183504       -0.22941326475871
H           -0.86747476199372        1.71978025878655        2.10796910505835
H           -1.70091236832035        4.03490072743470        2.18376500803016
H           -3.51258835755140        4.73762547726094        0.65476229308776
H           -4.49943256363271        3.14097175295684       -0.90317784969679

          :  Hamiltonian                  GFN2-xTB          :
         :: gradient norm              0.000082797794 Eh/a0 ::
         :: HOMO-LUMO gap              1.327694873391 eV    ::
         :: SCC energy               -85.288743742618 Eh    ::
         :: -> dispersion             -0.071836515395 Eh    ::
         :: -> Gsolv                  -0.048628342437 Eh    ::
         :: repulsion energy           1.422819457000 Eh    ::

    * Orbital Energies and Occupations

         #    Occupation            Energy/Eh            Energy/eV
      -------------------------------------------------------------
         1        2.0000           -0.6970954             -18.9689
       ...           ...                  ...                  ...
        66        2.0000           -0.4321273             -11.7588
        67        2.0000           -0.4272678             -11.6265
        68        2.0000           -0.4259375             -11.5903
        69        2.0000           -0.4239217             -11.5355
        70        2.0000           -0.4183656             -11.3843
        71        2.0000           -0.4164767             -11.3329
        72        2.0000           -0.4149212             -11.2906
        73        2.0000           -0.4121818             -11.2160
        74        2.0000           -0.4113926             -11.1946
        75        2.0000           -0.3947037             -10.7404
        76        1.6163           -0.3792091             -10.3188
        77        1.3837           -0.3783088             -10.2943
        78        1.0000           -0.3171230              -8.6294 (HOMO)
        79                         -0.2683313              -7.3017 (LUMO)
        80                         -0.2488851              -6.7725
        81                         -0.2443894              -6.6502
        82                         -0.2423346              -6.5943
        83                         -0.2369889              -6.4488
        84                         -0.2344763              -6.3804
        85                         -0.2264323              -6.1615
        86                         -0.1763952              -4.8000
        87                         -0.1717246              -4.6729
        88                         -0.1193177              -3.2468
        89                         -0.1102643              -3.0004
       ...                                ...                  ...
       149                          0.7051764              19.1888
      -------------------------------------------------------------
                  HL-Gap            0.0487917 Eh            1.3277 eV

     #   Z          covCN         q      C6AA      α(0)
     1   6 C        3.759    -0.115    22.742     6.799
     2   6 C        3.910     0.025    20.097     6.372
     3   6 C        3.761    -0.102    22.496     6.761
     4   6 C        2.987     0.004    27.927     8.669
     5   6 C        2.922    -0.032    28.795     8.800
     6   6 C        2.919    -0.026    28.652     8.778
     7   6 C        2.919    -0.027    28.683     8.783
     8   6 C        2.919    -0.039    28.960     8.825
     9   6 C        2.951     0.053    26.812     8.493
    10   7 N        2.755    -0.003    21.312     6.856
    11   6 C        2.909     0.066    26.530     8.446
    12   6 C        2.917    -0.048    29.184     8.859
    13   6 C        2.919    -0.017    28.425     8.743
    14   6 C        2.976    -0.018    28.457     8.750
    15   6 C        2.974    -0.021    28.518     8.760
    16   6 C        2.926    -0.039    28.963     8.826
    17   6 C        2.837     0.191    23.927     8.016
    18   8 O        0.857    -0.475    23.231     6.462
    19   6 C        2.977    -0.022    28.559     8.766
    20   6 C        2.922    -0.020    28.508     8.756
    21   6 C        2.916    -0.029    28.730     8.790
    22   6 C        2.916    -0.030    28.745     8.792
    23   6 C        2.922    -0.020    28.496     8.754
    24   6 C        2.977    -0.023    28.572     8.768
    25   6 C        2.835     0.194    23.873     8.007
    26   8 O        0.857    -0.471    23.145     6.450
    27   6 C        2.953     0.053    26.803     8.491
    28   6 C        2.919    -0.036    28.891     8.814
    29   6 C        2.919    -0.026    28.656     8.778
    30   6 C        2.919    -0.026    28.641     8.776
    31   6 C        2.922    -0.032    28.807     8.802
    32   6 C        2.986     0.004    27.932     8.669
    33   1 H        0.925     0.050     2.326     2.385
    34   1 H        0.925     0.054     2.269     2.355
    35   1 H        0.925     0.053     2.280     2.361
    36   1 H        0.925     0.052     2.299     2.371
    37   1 H        0.925     0.050     2.320     2.382
    38   1 H        0.925     0.034     2.535     2.490
    39   1 H        0.926     0.064     2.158     2.297
    40   1 H        0.926     0.052     2.291     2.367
    41   1 H        0.926     0.051     2.303     2.373
    42   1 H        0.926     0.053     2.281     2.362
    43   1 H        0.926     0.065     2.139     2.287
    44   1 H        0.926     0.059     2.214     2.327
    45   1 H        0.926     0.066     2.132     2.283
    46   1 H        0.926     0.048     2.345     2.394
    47   1 H        0.926     0.046     2.366     2.405
    48   1 H        0.926     0.046     2.371     2.408
    49   1 H        0.926     0.047     2.357     2.401
    50   1 H        0.926     0.050     2.323     2.383
    51   1 H        0.926     0.050     2.325     2.385
    52   1 H        0.926     0.052     2.293     2.368
    53   1 H        0.926     0.064     2.154     2.295

molecular dipole:
                 x           y           z       tot (Debye)
 q only:       -5.666       0.333      -0.146
   full:       -5.391       0.304      -0.062      13.724

 projected vibrational frequencies (cm⁻¹)
eigval :       -0.00    -0.00    -0.00     0.00     0.00     0.00
eigval :       12.00    24.91    43.90    50.95    62.57    88.68
eigval :      111.64   118.35   131.50   143.30   153.81   166.39
eigval :      180.34   183.98   203.75   226.48   257.65   265.19
eigval :      281.91   297.61   317.03   335.44   341.19   350.98
eigval :      361.43   363.55   374.42   384.34   393.77   410.01
eigval :      415.05   425.60   451.64   457.04   471.70   484.98
eigval :      495.22   516.09   548.18   563.20   568.97   574.07
eigval :      586.38   596.47   613.73   632.18   634.16   655.63
eigval :      670.57   683.82   691.20   716.30   723.91   724.58
eigval :      772.60   774.03   779.92   795.39   804.44   810.05
eigval :      858.84   875.48   877.06   881.70   889.27   904.74
eigval :      910.23   916.38   918.82   919.15   919.70   930.14
eigval :      933.99   940.20   943.88   964.88  1004.53  1007.93
eigval :     1071.42  1072.49  1077.39  1087.69  1095.07  1100.98
eigval :     1129.38  1132.05  1146.72  1161.78  1164.46  1173.57
eigval :     1177.47  1183.41  1187.09  1201.06  1212.06  1222.33
eigval :     1224.73  1234.02  1249.26  1260.64  1263.27  1265.58
eigval :     1275.00  1303.19  1317.32  1322.49  1362.16  1368.81
eigval :     1390.02  1393.99  1395.75  1411.04  1412.94  1414.92
eigval :     1428.01  1434.23  1442.98  1457.54  1467.20  1484.56
eigval :     1486.33  1488.17  1498.56  1515.18  1526.39  1538.95
eigval :     1542.71  1557.25  1565.24  1570.43  1572.89  1584.09
eigval :     3034.39  3034.81  3040.24  3040.41  3047.48  3054.48
eigval :     3072.65  3075.69  3081.81  3084.58  3086.79  3087.94
eigval :     3090.00  3092.13  3093.15  3101.55  3102.39  3103.83
eigval :     3116.87  3121.40  3121.90

   temp. (K)  partition function   enthalpy   heat capacity  entropy
                                   cal/mol     cal/K/mol   cal/K/mol   J/K/mol
 298.15  VIB  0.491E+10            14407.319     96.292     86.242
         ROT  0.215E+08              888.752      2.981     36.532
         INT  0.105E+18            15296.072     99.273    122.774
         TR   0.819E+28             1481.254      4.968     43.944
         TOT                       16777.3254   104.2407   166.7173   697.5454

       T/K    H(0)-H(T)+PV         H(T)/Eh          T*S/Eh         G(T)/Eh
   ------------------------------------------------------------------------
    298.15    0.267364E-01    0.432655E+00    0.792128E-01    0.353442E+00
   ------------------------------------------------------------------------

         :::::::::::::::::::::::::::::::::::::::::::::::::::::
         ::                  THERMODYNAMIC                  ::
         :::::::::::::::::::::::::::::::::::::::::::::::::::::
         :: total free energy         -83.512481842006 Eh   ::
         ::.................................................::
         :: total energy              -83.865924286376 Eh   ::
         :: zero point energy           0.405918864396 Eh   ::
         :: G(RRHO) w/o ZPVE           -0.052476420026 Eh   ::
         :: G(RRHO) contrib.            0.353442444370 Eh   ::
         :::::::::::::::::::::::::::::::::::::::::::::::::::::

           -------------------------------------------------
          | TOTAL ENERGY              -83.865924286376 Eh   |
          | TOTAL ENTHALPY            -83.433269052042 Eh   |
          | TOTAL FREE ENERGY         -83.512481842006 Eh   |
          | GRADIENT NORM               0.000081759823 Eh/α |
          | HOMO-LUMO GAP               1.327690475837 eV   |
           -------------------------------------------------

 * finished run on 2025/08/25 at 18:10:58.983
