   * xtb version 6.7.1 (edcfbbe) compiled by 'albert@albert-system' on 2024-07-22

   ID    Z sym.   atoms
    1    6 C      1-16, 18-32, 34-37, 39-54
    2    7 N      17, 33, 38
    3    1 H      55-91

          program call               : xtb data2507/toluene/IDFL-2DPA/IDFL-2DPA_toluene_S0_finalOpt.xtbopt.xyz --gfn 2 --uhf 2 --gbsa toluene --ohess vtight --parallel 40 --molden --ceasefiles --namespace data2507/toluene/IDFL-2DPA/IDFL-2DPA_toluene_T1_preOpt
      * Solvation model:               GBSA
        Solvent                        toluene
        Solvent mass                       9.2140E+01 g/mol
          :  Hamiltonian                  GFN2-xTB          :
 * total energy  :  -136.9036735 Eh     change       -0.6883454E-08 Eh
 * total energy  :  -136.9063379 Eh     change       -0.2664490E-02 Eh
 * total energy  :  -136.9071428 Eh     change       -0.8048939E-03 Eh
 * total energy  :  -136.9071943 Eh     change       -0.5147689E-04 Eh
 * total energy  :  -136.9072178 Eh     change       -0.2347500E-04 Eh
 * total energy  :  -136.9072295 Eh     change       -0.1172807E-04 Eh
 * total energy  :  -136.9072391 Eh     change       -0.9580746E-05 Eh
 * total energy  :  -136.9072452 Eh     change       -0.6086778E-05 Eh
 * total energy  :  -136.9072492 Eh     change       -0.4054269E-05 Eh
 * total energy  :  -136.9072536 Eh     change       -0.4316982E-05 Eh
 * total energy  :  -136.9073016 Eh     change       -0.7684216E-06 Eh
 * total energy  :  -136.9073024 Eh     change       -0.7448056E-06 Eh
 * total energy  :  -136.9073032 Eh     change       -0.7877371E-06 Eh
 * total energy  :  -136.9073040 Eh     change       -0.8547076E-06 Eh
 * total energy  :  -136.9073049 Eh     change       -0.8712048E-06 Eh
 * total energy  :  -136.9073057 Eh     change       -0.8062670E-06 Eh
 * total energy  :  -136.9073064 Eh     change       -0.6943382E-06 Eh
 * total energy  :  -136.9073070 Eh     change       -0.5916559E-06 Eh
 * total energy  :  -136.9073070 Eh     change       -0.3153986E-08 Eh
   *** GEOMETRY OPTIMIZATION CONVERGED AFTER 44 ITERATIONS ***

 final structure:
================
91
 xtb: 6.7.1 (edcfbbe)
C            0.38431788489046        5.51184876628804        1.15083943397981
C           -0.22777525361551        4.80638603766597       -0.06513817317697
C            0.27724059393490        5.45249614540751       -1.36102289560374
C           -1.73542571322390        4.83119962370528        0.00107109777379
C           -2.56856030486800        5.92054350816986        0.03489882669484
C           -3.94657599617443        5.72397345530356        0.11532187085217
C           -4.46173736285283        4.43548753179693        0.16580170698919
C           -3.63266780972720        3.33222076982836        0.12882848348947
C           -2.24825806204546        3.51246571818233        0.03988248089029
C           -1.16561994315056        2.58412966951906       -0.00275943095116
C            0.06873929310680        3.31922021030006       -0.04468290820845
C            1.33894501129121        2.78805837667935       -0.05557346249363
C            1.45093849498327        1.37534970107811       -0.01459448306117
C            2.42063156834107        0.31939929186153        0.00468481398633
C            3.80734883418417        0.30065839602134       -0.00095532160997
C            4.47755323090195       -0.92333210225447        0.03631020562779
N            5.87256684074006       -0.94921909525279        0.03157333242934
C            6.58867134815215       -0.02004831368327       -0.72864542002110
C            6.10937716051616        0.39212958172745       -1.97373689993214
C            6.82203914424578        1.30652027103046       -2.72434711795592
C            8.02035151748821        1.82037012581894       -2.25296664704185
C            8.50037881169696        1.41513831301464       -1.01723095636136
C            7.79317163482680        0.50493326023642       -0.25599887851408
C            6.55685741787796       -1.90512387792229        0.78957678961246
C            7.72276183903427       -2.49673919455010        0.30072436231353
C            8.39594541898701       -3.43466650687251        1.05925791744922
C            7.91870527224947       -3.80077409294499        2.30839638587128
C            6.75859806108841       -3.21946827257440        2.79618116120258
C            6.07994988494027       -2.27755869535360        2.04788691982523
C            3.76145242170016       -2.13572795709065        0.07859845910983
C            2.37745333202136       -2.14476503862411        0.07734179263125
C            1.70328021141848       -0.94026773003882        0.04335183473636
N            0.35644557977657       -0.65399874911675        0.04290268314448
C           -0.90785856116813       -1.17206518158550        0.05434317061008
C           -1.34387926578649       -2.48680062507317        0.07930647324814
C           -2.69749836771372       -2.74410976470750        0.05391622274789
C           -3.62970450219953       -1.67982814262624       -0.00012395980339
N           -4.99241070691808       -1.96278187951883       -0.02953645978024
C           -5.89778655029562       -1.09861922365851        0.59960519480917
C           -5.58287390643742       -0.52528300006665        1.83281335972139
C           -6.47323591382986        0.33378345087072        2.44642563451596
C           -7.68784453124945        0.63037431655777        1.84697635338944
C           -8.00774815808752        0.05854754461562        0.62556440951221
C           -7.12255996697228       -0.79918187618581        0.00127290900313
C           -5.47002720172335       -3.08691569722073       -0.70931329604395
C           -4.86880560085819       -3.50165424840759       -1.89979424583630
C           -5.34356595821629       -4.61486538729925       -2.56545677588746
C           -6.42301873729386       -5.32557652967284       -2.06421030956125
C           -7.02679329068664       -4.91457774471495       -0.88553474841294
C           -6.55635792056926       -3.80681824816717       -0.20806202862936
C           -3.20106826618778       -0.35542686931251       -0.01552208032808
C           -1.84651713978618       -0.05541560123952        0.02277175645471
C           -1.08400779606615        1.16037671296309        0.00595785479980
C            0.23104469443592        0.71455318908799        0.01043372546945
H            0.10553021816158        6.56336453337618        1.15657688765628
H            1.46932099005021        5.43934708862024        1.12748502754929
H            0.02481862910117        5.05252808937155        2.06992780671031
H            1.36066525134067        5.37933661039851       -1.42515211217204
H           -0.00455420583168        6.50281258497982       -1.39329468143022
H           -0.15646255942545        4.95034173012786       -2.22398491321258
H           -2.17003533653642        6.92568456199777        0.00317024272849
H           -4.61258633881219        6.57458385547314        0.14329178921807
H           -5.53215894205360        4.29273350128327        0.23650920399038
H           -4.05712355292269        2.34304652918429        0.17933608303937
H            2.21172202147595        3.42215563560251       -0.08736228399193
H            4.36593145277366        1.22469697106733       -0.01139303785336
H            5.18228380158118       -0.01741717021205       -2.34704684979304
H            6.44301917232827        1.61363142670273       -3.68800898859323
H            8.57567973715075        2.53213369359388       -2.84484727170421
H            9.42873151274645        1.81726442942160       -0.63905614274566
H            8.16179442416091        0.20088615029531        0.71266431771350
H            8.08803297219728       -2.22171979125663       -0.67783801303741
H            9.29510266462961       -3.88838881235630        0.66916031670428
H            8.44771352532370       -4.53382956571450        2.89840766584375
H            6.38369420633543       -3.49501495120462        3.77090890214188
H            5.18297884896027       -1.81475669754168        2.43226299973388
H            4.30594427309024       -3.06684337431364        0.08866620812021
H            1.84296747621122       -3.08239717441445        0.09078340704234
H           -0.63636947381945       -3.30051147418342        0.12788732020355
H           -3.05885632993810       -3.75914331075354        0.09880921705810
H           -4.63958962380756       -0.76273929656683        2.30241866994130
H           -6.21849003060000        0.77139534219274        3.40029726726634
H           -8.37976601916668        1.30424778086149        2.32905695501991
H           -8.94941123727534        0.28964785463147        0.14988389591407
H           -7.36572714382588       -1.23196487377575       -0.95800001452852
H           -4.03895339957422       -2.93733594233692       -2.29880836138578
H           -4.87311367843377       -4.92369186498924       -3.48734000196860
H           -6.79234968501300       -6.19342930104504       -2.58913336609101
H           -7.86504004683804       -5.46608741194466       -0.48622188468947
H           -7.01871736547840       -3.49559415598684        0.71711356924715
H           -3.93528304326435        0.43032538866112       -0.08638964004070

          :  Hamiltonian                  GFN2-xTB          :
         :: gradient norm              0.000045129174 Eh/a0 ::
         :: HOMO-LUMO gap              0.641898434079 eV    ::
         :: SCC energy              -139.447829207956 Eh    ::
         :: -> dispersion             -0.130743708535 Eh    ::
         :: -> Gsolv                  -0.056341896900 Eh    ::
         :: repulsion energy           2.540522213456 Eh    ::

    * Orbital Energies and Occupations

         #    Occupation            Energy/Eh            Energy/eV
      -------------------------------------------------------------
         1        2.0000           -0.6756347             -18.3850
       ...           ...                  ...                  ...
       117        2.0000           -0.4099721             -11.1559
       118        2.0000           -0.4091734             -11.1342
       119        2.0000           -0.4084629             -11.1148
       120        2.0000           -0.3984467             -10.8423
       121        2.0000           -0.3954526             -10.7608
       122        2.0000           -0.3907799             -10.6337
       123        2.0000           -0.3864593             -10.5161
       124        2.0000           -0.3816815             -10.3861
       125        2.0000           -0.3681405             -10.0176
       126        2.0000           -0.3580559              -9.7432
       127        1.9488           -0.3496585              -9.5147
       128        1.0512           -0.3441119              -9.3638
       129        1.0000           -0.2615251              -7.1165 (HOMO)
       130        0.0000           -0.2379356              -6.4746 (LUMO)
       131        0.0000           -0.2371176              -6.4523
       132        0.0000           -0.2354803              -6.4077
       133                         -0.2330621              -6.3419
       134                         -0.2313197              -6.2945
       135                         -0.2283905              -6.2148
       136                         -0.2276548              -6.1948
       137                         -0.2272441              -6.1836
       138                         -0.2206314              -6.0037
       139                         -0.2100973              -5.7170
       140                         -0.2032766              -5.5314
       ...                                ...                  ...
       253                          0.7880241              21.4432
      -------------------------------------------------------------
                  HL-Gap            0.0235895 Eh            0.6419 eV

     #   Z          covCN         q      C6AA      α(0)
     1   6 C        3.758    -0.095    22.364     6.742
     2   6 C        3.933     0.015    20.260     6.396
     3   6 C        3.758    -0.095    22.361     6.742
     4   6 C        3.050    -0.013    28.282     8.722
     5   6 C        2.913    -0.042    29.031     8.835
     6   6 C        2.920    -0.050    29.254     8.869
     7   6 C        2.917    -0.040    28.989     8.829
     8   6 C        2.914    -0.050    29.244     8.868
     9   6 C        3.025    -0.008    28.198     8.710
    10   6 C        3.040    -0.033    28.793     8.801
    11   6 C        3.041    -0.010    28.223     8.713
    12   6 C        2.921    -0.061    29.523     8.910
    13   6 C        3.025    -0.033    28.798     8.803
    14   6 C        3.106    -0.019    28.331     8.721
    15   6 C        2.911    -0.052    29.297     8.876
    16   6 C        2.922     0.058    26.708     8.475
    17   7 N        2.754    -0.048    22.172     6.993
    18   6 C        2.925     0.065    26.538     8.448
    19   6 C        2.922    -0.042    29.055     8.839
    20   6 C        2.919    -0.028    28.693     8.784
    21   6 C        2.919    -0.034    28.847     8.808
    22   6 C        2.919    -0.028    28.696     8.785
    23   6 C        2.921    -0.044    29.101     8.846
    24   6 C        2.925     0.065    26.542     8.449
    25   6 C        2.921    -0.044    29.089     8.845
    26   6 C        2.919    -0.028    28.701     8.785
    27   6 C        2.919    -0.034    28.848     8.808
    28   6 C        2.919    -0.028    28.693     8.784
    29   6 C        2.922    -0.043    29.060     8.840
    30   6 C        2.922    -0.067    29.667     8.932
    31   6 C        2.905    -0.043    29.062     8.839
    32   6 C        3.064     0.032    27.233     8.557
    33   7 N        2.835    -0.012    21.474     6.883
    34   6 C        3.073     0.035    27.150     8.543
    35   6 C        2.904    -0.044    29.089     8.844
    36   6 C        2.920    -0.064    29.602     8.922
    37   6 C        2.921     0.058    26.710     8.475
    38   7 N        2.754    -0.044    22.092     6.981
    39   6 C        2.926     0.065    26.544     8.449
    40   6 C        2.922    -0.040    29.004     8.832
    41   6 C        2.919    -0.027    28.664     8.780
    42   6 C        2.919    -0.032    28.804     8.801
    43   6 C        2.919    -0.027    28.680     8.782
    44   6 C        2.921    -0.043    29.068     8.841
    45   6 C        2.925     0.065    26.548     8.450
    46   6 C        2.921    -0.042    29.051     8.839
    47   6 C        2.919    -0.027    28.687     8.783
    48   6 C        2.919    -0.033    28.834     8.806
    49   6 C        2.919    -0.028    28.692     8.784
    50   6 C        2.921    -0.043    29.079     8.843
    51   6 C        2.912    -0.055    29.365     8.886
    52   6 C        3.112    -0.016    28.255     8.708
    53   6 C        3.006    -0.041    28.993     8.833
    54   6 C        3.438     0.033    22.672     7.237
    55   1 H        0.925     0.036     2.501     2.473
    56   1 H        0.925     0.037     2.489     2.467
    57   1 H        0.925     0.029     2.600     2.521
    58   1 H        0.925     0.037     2.487     2.466
    59   1 H        0.925     0.036     2.501     2.473
    60   1 H        0.925     0.029     2.597     2.520
    61   1 H        0.925     0.012     2.851     2.640
    62   1 H        0.926     0.011     2.878     2.653
    63   1 H        0.925     0.011     2.869     2.649
    64   1 H        0.926     0.013     2.848     2.639
    65   1 H        0.926     0.012     2.865     2.647
    66   1 H        0.926     0.032     2.552     2.498
    67   1 H        0.926     0.038     2.473     2.459
    68   1 H        0.926     0.039     2.461     2.453
    69   1 H        0.926     0.038     2.471     2.458
    70   1 H        0.926     0.040     2.449     2.447
    71   1 H        0.926     0.038     2.472     2.459
    72   1 H        0.926     0.038     2.471     2.458
    73   1 H        0.926     0.040     2.448     2.447
    74   1 H        0.926     0.039     2.467     2.456
    75   1 H        0.926     0.039     2.456     2.451
    76   1 H        0.926     0.038     2.471     2.458
    77   1 H        0.926     0.030     2.583     2.513
    78   1 H        0.926     0.032     2.553     2.499
    79   1 H        0.926     0.034     2.536     2.490
    80   1 H        0.926     0.032     2.554     2.499
    81   1 H        0.926     0.039     2.462     2.454
    82   1 H        0.926     0.040     2.448     2.447
    83   1 H        0.926     0.039     2.458     2.452
    84   1 H        0.926     0.041     2.434     2.440
    85   1 H        0.926     0.039     2.459     2.452
    86   1 H        0.926     0.039     2.456     2.451
    87   1 H        0.926     0.040     2.445     2.445
    88   1 H        0.926     0.040     2.455     2.450
    89   1 H        0.926     0.041     2.437     2.441
    90   1 H        0.926     0.039     2.465     2.455
    91   1 H        0.926     0.031     2.568     2.506

molecular dipole:
                 x           y           z       tot (Debye)
 q only:        0.959      -2.546      -0.036
   full:        0.948      -2.593      -0.026       7.019

 projected vibrational frequencies (cm⁻¹)
eigval :       -0.00    -0.00    -0.00    -0.00    -0.00     0.00
eigval :        9.98    12.38    15.30    23.33    23.54    31.56
eigval :       38.31    49.06    49.64    52.17    54.62    66.39
eigval :       76.03    77.39    84.15    90.31    92.34    95.13
eigval :      128.13   137.54   146.60   157.93   163.67   166.53
eigval :      197.91   209.16   215.30   218.89   223.53   232.38
eigval :      235.75   246.02   259.16   261.96   277.83   290.11
eigval :      308.80   311.93   312.52   323.01   329.79   341.75
eigval :      356.14   364.96   375.70   375.90   377.58   381.64
eigval :      383.72   391.57   401.14   412.01   433.94   443.44
eigval :      446.48   455.51   472.85   492.06   499.52   503.62
eigval :      507.01   508.13   535.97   538.06   546.17   560.80
eigval :      569.62   579.76   584.87   586.02   588.11   588.66
eigval :      597.72   610.29   612.37   622.70   630.57   644.65
eigval :      655.82   658.41   659.28   662.54   664.82   664.99
eigval :      668.94   680.40   684.76   700.25   701.80   712.22
eigval :      748.81   750.12   755.04   755.52   755.81   758.96
eigval :      776.13   787.43   788.97   804.58   824.74   839.80
eigval :      842.11   844.11   850.14   869.50   869.67   870.63
eigval :      871.48   872.83   880.05   892.53   893.36   894.29
eigval :      894.72   895.84   900.03   908.00   908.34   909.43
eigval :      924.19   924.74   926.12   926.60   927.12   927.84
eigval :      928.53   929.50   931.37   951.15   961.01   967.62
eigval :      970.44   995.44   997.70  1003.43  1006.42  1010.37
eigval :     1026.24  1044.13  1070.80  1075.94  1079.66  1080.30
eigval :     1080.77  1081.11  1093.99  1106.94  1119.79  1120.15
eigval :     1121.72  1122.26  1134.24  1147.94  1168.06  1168.33
eigval :     1171.99  1175.81  1176.75  1177.65  1178.06  1178.80
eigval :     1186.91  1190.93  1191.03  1197.60  1199.84  1209.71
eigval :     1219.55  1228.57  1237.58  1247.90  1265.32  1269.71
eigval :     1272.76  1273.81  1274.75  1275.22  1282.93  1291.87
eigval :     1299.71  1300.57  1307.33  1316.64  1317.21  1324.00
eigval :     1324.17  1332.51  1346.71  1350.27  1368.36  1375.04
eigval :     1389.90  1392.71  1399.09  1407.15  1408.50  1421.71
eigval :     1430.04  1430.86  1437.81  1438.84  1449.81  1455.74
eigval :     1457.33  1459.83  1460.52  1461.14  1462.00  1475.25
eigval :     1482.63  1485.88  1488.92  1494.83  1499.23  1501.29
eigval :     1507.13  1542.35  1547.90  1563.29  1567.48  1569.46
eigval :     1571.59  1572.42  1580.19  1581.76  1586.12  1587.21
eigval :     1588.67  1615.02  3019.03  3021.70  3023.02  3023.82
eigval :     3029.68  3032.13  3048.85  3051.47  3070.69  3076.25
eigval :     3076.59  3077.22  3077.80  3077.85  3077.87  3078.24
eigval :     3078.78  3079.17  3083.25  3085.60  3086.19  3086.37
eigval :     3086.59  3087.12  3087.42  3088.87  3089.72  3089.85
eigval :     3090.55  3096.64  3096.99  3097.99  3098.09  3100.64
eigval :     3102.84  3107.10  3114.19

   temp. (K)  partition function   enthalpy   heat capacity  entropy
                                   cal/mol     cal/K/mol   cal/K/mol   J/K/mol
 298.15  VIB  0.828E+20            25789.640    164.049    160.075
         ROT  0.135E+09              888.752      2.981     40.179
         INT  0.111E+29            26678.393    167.030    200.253
         TR   0.176E+29             1481.254      4.968     45.463
         TOT                       28159.6465   171.9985   245.7163  1028.0771

       T/K    H(0)-H(T)+PV         H(T)/Eh          T*S/Eh         G(T)/Eh
   ------------------------------------------------------------------------
    298.15    0.448753E-01    0.753161E+00    0.116748E+00    0.636413E+00
   ------------------------------------------------------------------------

         :::::::::::::::::::::::::::::::::::::::::::::::::::::
         ::                  THERMODYNAMIC                  ::
         :::::::::::::::::::::::::::::::::::::::::::::::::::::
         :: total free energy        -136.270893550917 Eh   ::
         ::.................................................::
         :: total energy             -136.907306994022 Eh   ::
         :: zero point energy           0.708285942886 Eh   ::
         :: G(RRHO) w/o ZPVE           -0.071872499782 Eh   ::
         :: G(RRHO) contrib.            0.636413443105 Eh   ::
         :::::::::::::::::::::::::::::::::::::::::::::::::::::

           -------------------------------------------------
          | TOTAL ENERGY             -136.907306994022 Eh   |
          | TOTAL ENTHALPY           -136.154145798046 Eh   |
          | TOTAL FREE ENERGY        -136.270893550917 Eh   |
          | GRADIENT NORM               0.000044976252 Eh/α |
          | HOMO-LUMO GAP               0.641902521554 eV   |
           -------------------------------------------------

 * finished run on 2025/09/11 at 04:14:59.107
