   * xtb version 6.7.1 (edcfbbe) compiled by 'albert@albert-system' on 2024-07-22

   ID    Z sym.   atoms
    1    6 C      1-16, 18-32, 34-37, 39-54
    2    7 N      17, 33, 38
    3    1 H      55-91

          program call               : xtb data2507/toluene/IDFL-2DPA/IDFL-2DPA_toluene_S0_crest.xyz --gfn 2 --gbsa toluene --ohess vtight --parallel 40 --molden --ceasefiles --namespace data2507/toluene/IDFL-2DPA/IDFL-2DPA_toluene_S0_finalOpt
      * Solvation model:               GBSA
        Solvent                        toluene
        Solvent mass                       9.2140E+01 g/mol
          :  Hamiltonian                  GFN2-xTB          :
 * total energy  :  -136.9857867 Eh     change       -0.8541861E-09 Eh
 * total energy  :  -136.9858241 Eh     change       -0.3740525E-04 Eh
 * total energy  :  -136.9858477 Eh     change       -0.2359809E-04 Eh
 * total energy  :  -136.9858593 Eh     change       -0.1167690E-04 Eh
 * total energy  :  -136.9858780 Eh     change       -0.1867967E-04 Eh
 * total energy  :  -136.9858867 Eh     change       -0.8716717E-05 Eh
 * total energy  :  -136.9858938 Eh     change       -0.7072572E-05 Eh
 * total energy  :  -136.9858983 Eh     change       -0.4494280E-05 Eh
 * total energy  :  -136.9859010 Eh     change       -0.2746599E-05 Eh
 * total energy  :  -136.9859035 Eh     change       -0.2480646E-05 Eh
 * total energy  :  -136.9859438 Eh     change       -0.2709120E-06 Eh
 * total energy  :  -136.9859441 Eh     change       -0.2771646E-06 Eh
 * total energy  :  -136.9859443 Eh     change       -0.2635504E-06 Eh
 * total energy  :  -136.9859446 Eh     change       -0.2517190E-06 Eh
 * total energy  :  -136.9859448 Eh     change       -0.2180441E-06 Eh
 * total energy  :  -136.9859450 Eh     change       -0.1707292E-06 Eh
 * total energy  :  -136.9859451 Eh     change       -0.1323170E-06 Eh
 * total energy  :  -136.9859452 Eh     change       -0.1206141E-06 Eh
 * total energy  :  -136.9859453 Eh     change       -0.9977671E-07 Eh
   *** GEOMETRY OPTIMIZATION CONVERGED AFTER 43 ITERATIONS ***

 final structure:
================
91
 xtb: 6.7.1 (edcfbbe)
C            0.36933871371684        5.49860195283597        1.14961978963697
C           -0.23292701146914        4.78324696772534       -0.06555581139262
C            0.27643858727164        5.42105842821302       -1.36391839508676
C           -1.73944618527482        4.80392627292831       -0.00688113318673
C           -2.57836997583395        5.89743324632086        0.01858904926186
C           -3.94901450941871        5.69327006594789        0.09953332910372
C           -4.46423155684271        4.40799147978101        0.16117121395322
C           -3.62635834502159        3.30576448424158        0.13235932251818
C           -2.25591837600096        3.49954986821304        0.03987580193053
C           -1.14978399872896        2.55640908227647        0.00560798929605
C            0.06273602275202        3.29700660424239       -0.03390140891002
C            1.34351609975949        2.75951577170950       -0.03722331645668
C            1.45421528416081        1.37178322200391        0.00865516547002
C            2.43366950982025        0.30248626103313        0.03545444043040
C            3.81682709398276        0.29958839765018        0.03457966304188
C            4.49402357219420       -0.91803605006391        0.05535338083582
N            5.89737800304645       -0.94200641898007        0.03941755502231
C            6.60003240012898       -0.03652409728586       -0.76213139370069
C            6.09889903952037        0.34507343673760       -2.00751042449482
C            6.79492768015623        1.24205710172917       -2.79455789551437
C            8.00170247135851        1.76824071284155       -2.36214950004216
C            8.50464959693511        1.39317551126090       -1.12658257630850
C            7.81147658641167        0.50376645883404       -0.32836724539295
C            6.58455273292008       -1.87384563310551        0.82475076085553
C            7.75110410876519       -2.47763609770436        0.35390619192170
C            8.42547637254500       -3.39568796021347        1.13558710301969
C            7.94734843325273       -3.73559928522379        2.39108729931921
C            6.78563234404586       -3.14440945163109        2.86120646654363
C            6.10887026056418       -2.21904610443974        2.09035597362466
C            3.77865745402582       -2.12081376897998        0.08779855559540
C            2.39651025909012       -2.14177107781946        0.10697386507044
C            1.71920107932684       -0.93652108728554        0.07643447395659
N            0.36262071997084       -0.65582996646227        0.07355985027660
C           -0.92119055853010       -1.17089632271545        0.07676192571215
C           -1.35699231489883       -2.48296970098026        0.10830346161510
C           -2.71615351807603       -2.73083369851809        0.09035114660935
C           -3.64014313321727       -1.68395962603318        0.01133012564480
N           -5.01503938765238       -1.95900386753432       -0.02992832097242
C           -5.91070691501916       -1.10691546362329        0.62806660243000
C           -5.58026779456605       -0.55230609368123        1.86520138753732
C           -6.45832876929860        0.30199091730714        2.50369391643737
C           -7.68070526427399        0.61101217733694        1.92861480344088
C           -8.01746159538277        0.05779806619705        0.70359870585040
C           -7.14176706941035       -0.79024829811029        0.05299183435079
C           -5.49197921535728       -3.05842814345800       -0.75088382364847
C           -4.88248090996440       -3.44524782258387       -1.94512583649276
C           -5.35439562344597       -4.53767392216219       -2.64687878250329
C           -6.44316554915811       -5.25641705731198       -2.17997807266926
C           -7.05584648431041       -4.87410198820332       -0.99731183956622
C           -6.58526610003629       -3.78909758176787       -0.28343736689780
C           -3.20130971808532       -0.36178335112480       -0.02378132718499
C           -1.84825060138779       -0.07929484890494        0.03252060437859
C           -1.07653568021510        1.15698154273471        0.02036367818652
C            0.23838821399420        0.69865774921503        0.03365360075924
H            0.08609481612228        6.54838175579566        1.14671961832809
H            1.45428966396678        5.43198999687907        1.13039281821512
H            0.00898252669603        5.04391867414770        2.07040930389276
H            1.36010842694045        5.35272639856906       -1.42005646588923
H           -0.00877562014292        6.46960697899985       -1.40468849256022
H           -0.14896705301562        4.91145029867725       -2.22636226082480
H           -2.18134105477032        6.90150071040053       -0.01978483708352
H           -4.61821815193999        6.54133713159365        0.12111389575321
H           -5.53244142229805        4.26081813317004        0.23484538110406
H           -4.04532312177901        2.31574260324850        0.19368343929711
H            2.21046551724070        3.40138140691571       -0.06972639766014
H            4.36878834253105        1.22727770078128        0.01447947481298
H            5.16298206311930       -0.06929992198201       -2.35337413754415
H            6.39531647175675        1.52515023938707       -3.75774790338646
H            8.54507435479625        2.46518807449833       -2.98255252578590
H            9.44093670599870        1.80319591526838       -0.77614223052272
H            8.20251270717536        0.22239778497225        0.63869961145433
H            8.12117848004369       -2.22329255861414       -0.62877651256433
H            9.32670826240216       -3.85598943464406        0.75685595605716
H            8.47577250344443       -4.45538773563943        2.99815925220791
H            6.40713089593881       -3.39909005672330        3.84068377206244
H            5.20806467706517       -1.75362510948194        2.46347323105128
H            4.32583000442901       -3.05179440413326        0.09678965675979
H            1.86629211119488       -3.08099432682343        0.13232805085390
H           -0.65403608970778       -3.30003050547893        0.15433491236888
H           -3.07595972512563       -3.74805006440232        0.12969595582887
H           -4.63045278809163       -0.79569694595609        2.31911037288234
H           -6.18769960185916        0.72449936509478        3.46055768899220
H           -8.36502492867660        1.27802995595157        2.43121109598520
H           -8.96610670716048        0.29618382179742        0.24452272009538
H           -7.40275422041961       -1.21027512629133       -0.90765634314568
H           -4.03976773052162       -2.88160896952048       -2.31853291627785
H           -4.87304769858755       -4.82412936120315       -3.57092581987757
H           -6.81116894836938       -6.10750477964901       -2.73308637832984
H           -7.90199113320368       -5.43121044388882       -0.62165651026129
H           -7.05963183170460       -3.50021218164265        0.64332800062201
H           -3.93211711902690        0.42578904331746       -0.10317435763268

          :  Hamiltonian                  GFN2-xTB          :
         :: gradient norm              0.000028561099 Eh/a0 ::
         :: HOMO-LUMO gap              1.937230326914 eV    ::
         :: SCC energy              -139.539991353856 Eh    ::
         :: -> dispersion             -0.130435762175 Eh    ::
         :: -> Gsolv                  -0.053528621016 Eh    ::
         :: repulsion energy           2.554046012494 Eh    ::

    * Orbital Energies and Occupations

         #    Occupation            Energy/Eh            Energy/eV
      -------------------------------------------------------------
         1        2.0000           -0.6835753             -18.6010
       ...           ...                  ...                  ...
       116        2.0000           -0.4064751             -11.0608
       117        2.0000           -0.4062042             -11.0534
       118        2.0000           -0.4056008             -11.0370
       119        2.0000           -0.4047315             -11.0133
       120        2.0000           -0.4037128             -10.9856
       121        2.0000           -0.4031581             -10.9705
       122        2.0000           -0.4028846             -10.9630
       123        2.0000           -0.3968500             -10.7988
       124        2.0000           -0.3881158             -10.5612
       125        2.0000           -0.3770979             -10.2614
       126        2.0000           -0.3689506             -10.0397
       127        2.0000           -0.3500793              -9.5261
       128        2.0000           -0.3414920              -9.2925 (HOMO)
       129                         -0.2703001              -7.3552 (LUMO)
       130                         -0.2353996              -6.4055
       131                         -0.2339524              -6.3662
       132                         -0.2294120              -6.2426
       133                         -0.2290542              -6.2329
       134                         -0.2253905              -6.1332
       135                         -0.2241937              -6.1006
       136                         -0.2219251              -6.0389
       137                         -0.2208135              -6.0086
       138                         -0.2203785              -5.9968
       139                         -0.2182374              -5.9385
       ...                                ...                  ...
       253                          0.7758468              21.1119
      -------------------------------------------------------------
                  HL-Gap            0.0711919 Eh            1.9372 eV

     #   Z          covCN         q      C6AA      α(0)
     1   6 C        3.758    -0.099    22.448     6.755
     2   6 C        3.935     0.019    20.198     6.387
     3   6 C        3.758    -0.099    22.442     6.754
     4   6 C        3.052    -0.000    27.988     8.676
     5   6 C        2.915    -0.035    28.874     8.811
     6   6 C        2.921    -0.034    28.840     8.807
     7   6 C        2.920    -0.035    28.866     8.811
     8   6 C        2.916    -0.036    28.892     8.814
     9   6 C        3.028     0.000    27.998     8.679
    10   6 C        3.045    -0.003    28.053     8.687
    11   6 C        3.048    -0.012    28.276     8.721
    12   6 C        2.927    -0.037    28.920     8.819
    13   6 C        3.031    -0.022    28.517     8.759
    14   6 C        3.105    -0.012    28.177     8.698
    15   6 C        2.914    -0.051    29.265     8.871
    16   6 C        2.922     0.058    26.705     8.474
    17   7 N        2.752    -0.081    22.817     7.094
    18   6 C        2.922     0.066    26.527     8.446
    19   6 C        2.922    -0.049    29.218     8.864
    20   6 C        2.919    -0.031    28.764     8.795
    21   6 C        2.918    -0.041    29.007     8.832
    22   6 C        2.919    -0.031    28.766     8.795
    23   6 C        2.922    -0.049    29.219     8.864
    24   6 C        2.923     0.066    26.530     8.447
    25   6 C        2.922    -0.049    29.211     8.863
    26   6 C        2.919    -0.031    28.766     8.795
    27   6 C        2.919    -0.040    29.001     8.831
    28   6 C        2.919    -0.031    28.765     8.795
    29   6 C        2.922    -0.049    29.215     8.864
    30   6 C        2.926    -0.051    29.257     8.870
    31   6 C        2.907    -0.047    29.172     8.856
    32   6 C        3.079     0.042    26.968     8.514
    33   7 N        2.835    -0.034    21.887     6.948
    34   6 C        3.083     0.042    26.961     8.512
    35   6 C        2.908    -0.048    29.187     8.859
    36   6 C        2.925    -0.051    29.264     8.871
    37   6 C        2.921     0.057    26.715     8.476
    38   7 N        2.752    -0.081    22.824     7.096
    39   6 C        2.923     0.066    26.527     8.446
    40   6 C        2.922    -0.048    29.193     8.860
    41   6 C        2.919    -0.030    28.749     8.793
    42   6 C        2.919    -0.040    28.982     8.828
    43   6 C        2.919    -0.030    28.757     8.794
    44   6 C        2.922    -0.048    29.201     8.862
    45   6 C        2.922     0.066    26.529     8.447
    46   6 C        2.922    -0.049    29.221     8.865
    47   6 C        2.919    -0.031    28.767     8.795
    48   6 C        2.919    -0.040    29.004     8.832
    49   6 C        2.919    -0.031    28.765     8.795
    50   6 C        2.922    -0.049    29.216     8.864
    51   6 C        2.917    -0.052    29.286     8.874
    52   6 C        3.104    -0.010    28.137     8.692
    53   6 C        3.012    -0.024    28.595     8.772
    54   6 C        3.447     0.034    22.488     7.183
    55   1 H        0.925     0.044     2.400     2.423
    56   1 H        0.925     0.043     2.404     2.424
    57   1 H        0.925     0.034     2.529     2.487
    58   1 H        0.925     0.043     2.403     2.424
    59   1 H        0.925     0.044     2.400     2.423
    60   1 H        0.925     0.034     2.527     2.486
    61   1 H        0.926     0.031     2.571     2.508
    62   1 H        0.926     0.030     2.589     2.516
    63   1 H        0.926     0.028     2.616     2.529
    64   1 H        0.926     0.031     2.576     2.510
    65   1 H        0.926     0.035     2.523     2.484
    66   1 H        0.926     0.037     2.492     2.469
    67   1 H        0.926     0.030     2.588     2.516
    68   1 H        0.926     0.032     2.559     2.501
    69   1 H        0.926     0.030     2.580     2.512
    70   1 H        0.926     0.032     2.560     2.502
    71   1 H        0.926     0.030     2.582     2.513
    72   1 H        0.926     0.031     2.576     2.510
    73   1 H        0.926     0.032     2.556     2.500
    74   1 H        0.926     0.031     2.577     2.510
    75   1 H        0.926     0.032     2.557     2.500
    76   1 H        0.926     0.030     2.583     2.513
    77   1 H        0.926     0.035     2.511     2.478
    78   1 H        0.926     0.036     2.500     2.473
    79   1 H        0.926     0.036     2.499     2.472
    80   1 H        0.926     0.035     2.511     2.478
    81   1 H        0.926     0.030     2.584     2.514
    82   1 H        0.926     0.032     2.552     2.498
    83   1 H        0.926     0.031     2.572     2.508
    84   1 H        0.926     0.032     2.553     2.499
    85   1 H        0.926     0.030     2.580     2.512
    86   1 H        0.926     0.030     2.584     2.514
    87   1 H        0.926     0.032     2.559     2.502
    88   1 H        0.926     0.031     2.579     2.511
    89   1 H        0.926     0.032     2.557     2.501
    90   1 H        0.926     0.030     2.581     2.512
    91   1 H        0.926     0.036     2.496     2.471

molecular dipole:
                 x           y           z       tot (Debye)
 q only:        0.163       0.360       0.007
   full:        0.149       0.207       0.012       0.649

 projected vibrational frequencies (cm⁻¹)
eigval :       -0.00    -0.00    -0.00    -0.00     0.00     0.00
eigval :        9.42    13.29    14.54    23.18    24.62    30.96
eigval :       38.45    46.79    49.13    51.31    55.95    66.04
eigval :       77.68    79.10    84.29    90.16    93.88    94.18
eigval :      125.72   136.19   141.67   158.66   167.03   168.35
eigval :      200.23   205.88   213.02   217.68   223.18   232.09
eigval :      235.21   246.93   261.22   266.77   286.88   289.51
eigval :      310.21   311.89   320.08   324.27   331.49   345.21
eigval :      358.30   367.35   377.04   378.10   382.77   383.29
eigval :      388.76   398.41   409.21   409.86   436.45   449.17
eigval :      451.11   463.96   475.58   488.79   490.85   502.67
eigval :      506.61   512.63   543.75   548.33   551.73   563.85
eigval :      576.16   582.46   586.19   589.37   590.46   593.41
eigval :      602.70   612.82   616.58   630.28   635.48   652.65
eigval :      658.78   660.34   661.53   666.35   667.16   684.24
eigval :      684.91   695.11   706.50   706.86   719.40   724.42
eigval :      752.17   754.32   756.16   756.17   760.70   771.43
eigval :      778.97   810.43   815.50   846.37   850.81   855.04
eigval :      861.25   869.54   871.15   871.91   872.13   874.15
eigval :      874.42   888.65   889.88   890.57   892.00   900.27
eigval :      903.81   906.71   908.13   909.60   923.43   924.94
eigval :      925.16   925.25   926.97   927.14   927.63   928.27
eigval :      928.57   929.81   943.72   959.73   963.30   971.25
eigval :      974.15  1000.01  1002.44  1005.50  1012.18  1012.40
eigval :     1037.54  1065.23  1078.06  1081.83  1082.07  1082.92
eigval :     1082.92  1105.60  1112.56  1120.90  1121.06  1123.34
eigval :     1123.55  1129.26  1146.16  1153.50  1169.73  1174.73
eigval :     1175.95  1178.94  1179.98  1180.63  1180.86  1187.70
eigval :     1188.43  1194.17  1194.78  1199.02  1204.85  1211.30
eigval :     1225.88  1236.48  1248.40  1252.69  1262.91  1273.75
eigval :     1276.46  1277.27  1277.34  1279.79  1297.33  1305.63
eigval :     1308.85  1312.94  1316.88  1318.53  1321.19  1323.95
eigval :     1325.18  1325.52  1342.45  1357.88  1387.88  1391.76
eigval :     1397.53  1409.25  1417.01  1422.03  1426.11  1432.29
eigval :     1434.19  1441.03  1442.33  1443.71  1455.33  1458.46
eigval :     1468.50  1470.90  1471.43  1473.62  1474.88  1483.45
eigval :     1485.94  1493.96  1496.25  1502.02  1557.61  1562.60
eigval :     1573.98  1574.57  1578.68  1578.82  1579.57  1590.59
eigval :     1591.28  1591.57  1597.02  1597.47  1601.00  1606.51
eigval :     1608.24  1622.79  3024.98  3028.21  3030.63  3032.82
eigval :     3037.19  3040.44  3066.57  3070.11  3070.47  3070.47
eigval :     3070.82  3071.28  3071.36  3071.59  3071.80  3072.20
eigval :     3080.53  3080.65  3081.28  3081.58  3083.05  3083.16
eigval :     3083.47  3084.26  3084.49  3085.35  3087.31  3087.84
eigval :     3092.00  3092.45  3092.88  3093.25  3093.57  3097.39
eigval :     3099.91  3116.03  3125.64

   temp. (K)  partition function   enthalpy   heat capacity  entropy
                                   cal/mol     cal/K/mol   cal/K/mol   J/K/mol
 298.15  VIB  0.739E+20            25602.652    162.512    159.132
         ROT  0.135E+09              888.752      2.981     40.179
         INT  0.995E+28            26491.405    165.493    199.311
         TR   0.176E+29             1481.254      4.968     45.463
         TOT                       27972.6585   170.4607   244.7740  1024.1345

       T/K    H(0)-H(T)+PV         H(T)/Eh          T*S/Eh         G(T)/Eh
   ------------------------------------------------------------------------
    298.15    0.445773E-01    0.756603E+00    0.116300E+00    0.640303E+00
   ------------------------------------------------------------------------

         :::::::::::::::::::::::::::::::::::::::::::::::::::::
         ::                  THERMODYNAMIC                  ::
         :::::::::::::::::::::::::::::::::::::::::::::::::::::
         :: total free energy        -136.345642273373 Eh   ::
         ::.................................................::
         :: total energy             -136.985945340764 Eh   ::
         :: zero point energy           0.712025838517 Eh   ::
         :: G(RRHO) w/o ZPVE           -0.071722771126 Eh   ::
         :: G(RRHO) contrib.            0.640303067391 Eh   ::
         :::::::::::::::::::::::::::::::::::::::::::::::::::::

           -------------------------------------------------
          | TOTAL ENERGY             -136.985945340764 Eh   |
          | TOTAL ENTHALPY           -136.229342233530 Eh   |
          | TOTAL FREE ENERGY        -136.345642273373 Eh   |
          | GRADIENT NORM               0.000028552990 Eh/α |
          | HOMO-LUMO GAP               1.937230096300 eV   |
           -------------------------------------------------

 * finished run on 2025/09/11 at 04:14:48.782
