   * xtb version 6.7.1 (edcfbbe) compiled by 'albert@albert-system' on 2024-07-22

   ID    Z sym.   atoms
    1    6 C      1-16, 18-32, 34-37, 39-54
    2    7 N      17, 33, 38
    3    1 H      55-91

          program call               : xtb data2507/toluene/IDFL-2DPA/IDFL-2DPA.xyz --gfn 2 --gbsa toluene --ohess vtight --parallel 40 --molden --ceasefiles --namespace data2507/toluene/IDFL-2DPA/IDFL-2DPA_toluene_S0_preOpt
      * Solvation model:               GBSA
        Solvent                        toluene
        Solvent mass                       9.2140E+01 g/mol
          :  Hamiltonian                  GFN2-xTB          :
 * total energy  :  -136.9464466 Eh     change       -0.1254932E-08 Eh
 * total energy  :  -136.9723885 Eh     change       -0.2594190E-01 Eh
 * total energy  :  -136.9817380 Eh     change       -0.9349424E-02 Eh
 * total energy  :  -136.9840076 Eh     change       -0.2269611E-02 Eh
 * total energy  :  -136.9848751 Eh     change       -0.8675063E-03 Eh
 * total energy  :  -136.9851928 Eh     change       -0.3177007E-03 Eh
 * total energy  :  -136.9853737 Eh     change       -0.1809406E-03 Eh
 * total energy  :  -136.9855140 Eh     change       -0.1402841E-03 Eh
 * total energy  :  -136.9856360 Eh     change       -0.1219689E-03 Eh
 * total energy  :  -136.9857037 Eh     change       -0.6777897E-04 Eh
 * total energy  :  -136.9859414 Eh     change       -0.3882921E-06 Eh
 * total energy  :  -136.9859418 Eh     change       -0.4108329E-06 Eh
 * total energy  :  -136.9859423 Eh     change       -0.4178593E-06 Eh
 * total energy  :  -136.9859426 Eh     change       -0.3713961E-06 Eh
 * total energy  :  -136.9859429 Eh     change       -0.3019905E-06 Eh
 * total energy  :  -136.9859432 Eh     change       -0.2439367E-06 Eh
 * total energy  :  -136.9859434 Eh     change       -0.2323266E-06 Eh
 * total energy  :  -136.9859436 Eh     change       -0.2404351E-06 Eh
 * total energy  :  -136.9859436 Eh     change       -0.2461093E-08 Eh
   *** GEOMETRY OPTIMIZATION CONVERGED AFTER 44 ITERATIONS ***

 final structure:
================
91
 xtb: 6.7.1 (edcfbbe)
C            0.36016140381612        5.34454403629860        1.19142670739183
C           -0.23618079317324        4.63977518941159       -0.03284475790040
C            0.27885527574465        5.28915668696663       -1.32317249800339
C           -1.74293759007022        4.65943911273697        0.01878165026592
C           -2.58240503556627        5.75243740078762        0.04817663446749
C           -3.95334830777291        5.54718429453034        0.12056096832129
C           -4.46836484012107        4.26130222056574        0.16992097754382
C           -3.62993253094502        3.15961855093020        0.13688836511038
C           -2.25913136154876        3.35454258882711        0.05271535144188
C           -1.15248355054550        2.41208533594667        0.01552935132794
C            0.05990572519688        3.15344214067123       -0.01277054922147
C            1.34091367918176        2.61652196723092       -0.01518750765645
C            1.45201799815593        1.22847129885803        0.01873842738841
C            2.43175699509106        0.15942459092251        0.04317289908670
C            3.81487873568401        0.15693945653400        0.05195923477645
C            4.49196110017995       -1.06060644943277        0.07222937930731
N            5.89582242072339       -1.08399695469486        0.06775111593975
C            6.60258851309131       -0.18360742231622       -0.73551243198586
C            6.10594108736531        0.19117696658964       -1.98482697509939
C            6.80469351580756        1.08375141517231       -2.77441512338830
C            8.00998590802777        1.61226195046465       -2.34073691080111
C            8.50841189703574        1.24411881934636       -1.10125833698571
C            7.81234052905669        0.35938127633675       -0.30037171757669
C            6.57546518551825       -2.00835340998965        0.86785786933450
C            7.75034515026302       -2.61156375925890        0.41735930058668
C            8.41694283693955       -3.52173085931165        1.21475614370698
C            7.92267571552225       -3.85483213332713        2.46581600254802
C            6.75220230386317       -3.26495803060658        2.91537929447567
C            6.08310927866833       -2.34724711133988        2.12887847244974
C            3.77729589186663       -2.26389316915917        0.09355577383706
C            2.39502589630321       -2.28548230395510        0.10092436916973
C            1.71765270678188       -1.08021126780268        0.07142317137821
N            0.36107420710016       -0.80004281508995        0.06163476004875
C           -0.92246021355473       -1.31571216527174        0.05584457677422
C           -1.35751557940694       -2.62831821996747        0.07302128505546
C           -2.71651651361322       -2.87675529116924        0.04965505872610
C           -3.64063241513579       -1.82939595029203       -0.01894838253879
N           -5.01574825291366       -2.10403813756746       -0.06228133127403
C           -5.49359776135159       -3.18994455831376       -0.80243409088123
C           -6.58812135454156       -3.92741253029320       -0.34874462488289
C           -7.05959356134145       -4.99895379352571       -1.08208147986061
C           -6.44661637651442       -5.36093476640577       -2.27099337544130
C           -5.35634245943081       -4.63567593793418       -2.72410264540077
C           -4.88342957844718       -3.55654028844276       -2.00272522972327
C           -5.90885263134731       -1.26293820273219        0.61287215182459
C           -5.57280468902584       -0.72880043339225        1.85752364250703
C           -6.44753911894057        0.11539538723248        2.51370280508305
C           -7.67221661894630        0.43434576309395        1.94903645243645
C           -8.01443187232621       -0.09841851044566        0.71648991843356
C           -7.14208537300902       -0.93615248112036        0.04825218450227
C           -3.20262508695213       -0.50673831729323       -0.04110747367980
C           -1.84981748334908       -0.22406553616946        0.01881973880873
C           -1.07864458256441        1.01260821303044        0.01857403329857
C            0.23640045553375        0.55468052327919        0.03210540924448
H            0.07719103859870        6.39439381266385        1.19614374339231
H            1.44517865334493        5.27776454355527        1.17699831679805
H           -0.00481071549310        4.88212092705464        2.10652595498951
H           -0.00636921636612        6.33798622646303       -1.35584082556836
H           -0.14276793065002        4.78721589975577       -2.19195646775189
H            1.36276630012149        5.22149836127603       -1.37518235334422
H           -2.18558271909886        6.75690305952864        0.01941646188422
H           -4.62302112459998        6.39480729865550        0.14474838699180
H           -5.53689483833607        4.11322749703827        0.23679107193228
H           -4.04888706317163        2.16902997885797        0.18819233009847
H            2.20767606644489        3.25905373025526       -0.03795086027498
H            4.36707398775329        1.08465027441030        0.04047087506264
H            5.17121622307573       -0.22504218892914       -2.33169465910746
H            6.40837475552594        1.36150836785307       -3.74051995832964
H            8.55563138973699        2.30570284612844       -2.96306968854853
H            9.44343618478998        1.65611480746428       -0.74975842596123
H            8.19974825791888        0.08406669115140        0.66988006094136
H            8.13310900812119       -2.36313807427379       -0.56195916416871
H            9.32499244279183       -3.98128069232588        0.85172823524480
H            8.44527861862135       -4.56841252306366        3.08512493378052
H            6.36068370770429       -3.51446196907939        3.89106958091257
H            5.17536187184016       -1.88294571231133        2.48632702882397
H            4.32521287968511       -3.19443515103670        0.10359407437311
H            1.86485000284017       -3.22491507139509        0.11750756643143
H           -0.65411951188559       -3.44535074206478        0.11215293976979
H           -3.07614078909459       -3.89443537540197        0.07724915763754
H           -7.06268493190302       -3.65434581614838        0.58270123409981
H           -7.90672201992101       -5.56160161948479       -0.71697900440921
H           -6.81560021883623       -6.20131865769257       -2.83959078156208
H           -4.87458361214926       -4.90646074449175       -3.65266532978802
H           -4.03963915646019       -2.98752321107892       -2.36548003048411
H           -4.62117144681858       -0.97998838576818        2.30327661341400
H           -6.17251610823828        0.52199166762330        3.47618227335489
H           -8.35402071861261        1.09336774870570        2.46540842342461
H           -8.96484815535075        0.14803946284506        0.26541652457401
H           -7.40730530546157       -1.33995805106006       -0.91816676123986
H           -3.93414868653450        0.28088740519855       -0.11290951169654

          :  Hamiltonian                  GFN2-xTB          :
         :: gradient norm              0.000037948644 Eh/a0 ::
         :: HOMO-LUMO gap              1.937360321771 eV    ::
         :: SCC energy              -139.540091950831 Eh    ::
         :: -> dispersion             -0.130405238722 Eh    ::
         :: -> Gsolv                  -0.053542593145 Eh    ::
         :: repulsion energy           2.554148307170 Eh    ::

    * Orbital Energies and Occupations

         #    Occupation            Energy/Eh            Energy/eV
      -------------------------------------------------------------
         1        2.0000           -0.6837212             -18.6050
       ...           ...                  ...                  ...
       116        2.0000           -0.4064246             -11.0594
       117        2.0000           -0.4061316             -11.0514
       118        2.0000           -0.4055923             -11.0367
       119        2.0000           -0.4047005             -11.0125
       120        2.0000           -0.4036776             -10.9846
       121        2.0000           -0.4031025             -10.9690
       122        2.0000           -0.4028915             -10.9632
       123        2.0000           -0.3968931             -10.8000
       124        2.0000           -0.3881285             -10.5615
       125        2.0000           -0.3771484             -10.2627
       126        2.0000           -0.3690357             -10.0420
       127        2.0000           -0.3500653              -9.5258
       128        2.0000           -0.3416077              -9.2956 (HOMO)
       129                         -0.2704111              -7.3583 (LUMO)
       130                         -0.2355197              -6.4088
       131                         -0.2340560              -6.3690
       132                         -0.2293716              -6.2415
       133                         -0.2289692              -6.2306
       134                         -0.2253731              -6.1327
       135                         -0.2241512              -6.0995
       136                         -0.2219383              -6.0392
       137                         -0.2207807              -6.0077
       138                         -0.2203088              -5.9949
       139                         -0.2182783              -5.9397
       ...                                ...                  ...
       253                          0.7757901              21.1103
      -------------------------------------------------------------
                  HL-Gap            0.0711967 Eh            1.9374 eV

     #   Z          covCN         q      C6AA      α(0)
     1   6 C        3.758    -0.099    22.448     6.755
     2   6 C        3.935     0.019    20.197     6.387
     3   6 C        3.758    -0.099    22.442     6.754
     4   6 C        3.052    -0.000    27.987     8.676
     5   6 C        2.915    -0.035    28.873     8.811
     6   6 C        2.921    -0.034    28.839     8.807
     7   6 C        2.920    -0.035    28.866     8.810
     8   6 C        2.916    -0.036    28.892     8.814
     9   6 C        3.028     0.000    27.998     8.679
    10   6 C        3.045    -0.003    28.052     8.687
    11   6 C        3.048    -0.012    28.275     8.721
    12   6 C        2.927    -0.037    28.919     8.819
    13   6 C        3.031    -0.022    28.516     8.759
    14   6 C        3.105    -0.012    28.176     8.697
    15   6 C        2.914    -0.051    29.259     8.870
    16   6 C        2.923     0.058    26.705     8.474
    17   7 N        2.752    -0.081    22.817     7.094
    18   6 C        2.922     0.066    26.527     8.446
    19   6 C        2.922    -0.049    29.221     8.865
    20   6 C        2.919    -0.031    28.764     8.795
    21   6 C        2.918    -0.041    29.009     8.832
    22   6 C        2.919    -0.031    28.767     8.795
    23   6 C        2.922    -0.049    29.221     8.865
    24   6 C        2.923     0.066    26.530     8.447
    25   6 C        2.922    -0.049    29.214     8.864
    26   6 C        2.919    -0.031    28.766     8.795
    27   6 C        2.919    -0.040    29.003     8.831
    28   6 C        2.919    -0.031    28.765     8.795
    29   6 C        2.922    -0.049    29.219     8.864
    30   6 C        2.925    -0.050    29.252     8.870
    31   6 C        2.907    -0.047    29.171     8.856
    32   6 C        3.079     0.042    26.966     8.513
    33   7 N        2.835    -0.033    21.884     6.948
    34   6 C        3.083     0.042    26.960     8.512
    35   6 C        2.908    -0.048    29.186     8.859
    36   6 C        2.925    -0.051    29.260     8.871
    37   6 C        2.921     0.057    26.715     8.476
    38   7 N        2.752    -0.081    22.825     7.096
    39   6 C        2.922     0.066    26.529     8.447
    40   6 C        2.922    -0.049    29.218     8.864
    41   6 C        2.919    -0.031    28.766     8.795
    42   6 C        2.919    -0.040    29.006     8.832
    43   6 C        2.919    -0.031    28.767     8.795
    44   6 C        2.922    -0.049    29.223     8.865
    45   6 C        2.923     0.066    26.527     8.446
    46   6 C        2.922    -0.048    29.194     8.861
    47   6 C        2.919    -0.030    28.749     8.793
    48   6 C        2.919    -0.040    28.983     8.828
    49   6 C        2.919    -0.030    28.758     8.794
    50   6 C        2.922    -0.048    29.202     8.862
    51   6 C        2.917    -0.052    29.282     8.874
    52   6 C        3.104    -0.010    28.136     8.692
    53   6 C        3.012    -0.024    28.594     8.772
    54   6 C        3.447     0.034    22.487     7.182
    55   1 H        0.925     0.044     2.400     2.423
    56   1 H        0.925     0.043     2.403     2.424
    57   1 H        0.925     0.034     2.529     2.487
    58   1 H        0.925     0.044     2.400     2.422
    59   1 H        0.925     0.034     2.527     2.486
    60   1 H        0.925     0.044     2.403     2.424
    61   1 H        0.926     0.031     2.571     2.507
    62   1 H        0.926     0.030     2.589     2.516
    63   1 H        0.926     0.028     2.616     2.529
    64   1 H        0.926     0.031     2.576     2.510
    65   1 H        0.926     0.035     2.521     2.483
    66   1 H        0.926     0.037     2.491     2.468
    67   1 H        0.926     0.030     2.590     2.517
    68   1 H        0.926     0.032     2.560     2.502
    69   1 H        0.926     0.030     2.582     2.513
    70   1 H        0.926     0.032     2.561     2.502
    71   1 H        0.926     0.030     2.581     2.512
    72   1 H        0.926     0.031     2.576     2.510
    73   1 H        0.926     0.032     2.557     2.501
    74   1 H        0.926     0.031     2.579     2.511
    75   1 H        0.926     0.032     2.558     2.501
    76   1 H        0.926     0.030     2.586     2.514
    77   1 H        0.926     0.036     2.509     2.477
    78   1 H        0.926     0.036     2.498     2.472
    79   1 H        0.926     0.036     2.498     2.471
    80   1 H        0.926     0.035     2.510     2.478
    81   1 H        0.926     0.030     2.581     2.512
    82   1 H        0.926     0.032     2.558     2.501
    83   1 H        0.926     0.030     2.580     2.512
    84   1 H        0.926     0.032     2.560     2.502
    85   1 H        0.926     0.030     2.586     2.515
    86   1 H        0.926     0.030     2.586     2.515
    87   1 H        0.926     0.032     2.553     2.499
    88   1 H        0.926     0.031     2.573     2.508
    89   1 H        0.926     0.032     2.553     2.499
    90   1 H        0.926     0.030     2.580     2.512
    91   1 H        0.926     0.036     2.496     2.470

molecular dipole:
                 x           y           z       tot (Debye)
 q only:        0.153       0.367       0.011
   full:        0.139       0.215       0.015       0.651

 projected vibrational frequencies (cm⁻¹)
eigval :       -0.00    -0.00    -0.00    -0.00     0.00     0.00
eigval :        9.81    13.70    14.16    22.96    26.51    30.75
eigval :       38.95    46.50    48.54    51.16    55.37    65.93
eigval :       77.60    78.97    84.93    89.80    94.07    94.15
eigval :      125.77   136.27   141.15   158.64   166.38   168.18
eigval :      199.47   205.73   212.81   217.43   222.14   231.85
eigval :      234.84   246.38   261.34   266.72   286.61   290.04
eigval :      310.00   311.81   319.90   324.39   331.34   345.55
eigval :      358.01   367.60   376.67   377.79   382.66   383.07
eigval :      388.50   398.27   409.10   409.62   436.62   449.27
eigval :      451.32   464.04   475.48   488.55   490.65   502.53
eigval :      506.39   512.63   543.66   548.29   551.78   563.61
eigval :      576.00   582.54   586.28   589.44   590.63   593.45
eigval :      602.84   613.08   616.68   630.56   635.55   652.81
eigval :      658.73   660.10   661.43   666.13   667.00   684.45
eigval :      684.99   695.39   706.50   707.01   719.41   724.52
eigval :      752.21   753.85   755.86   756.10   760.65   771.64
eigval :      778.96   810.48   814.91   846.37   850.33   855.06
eigval :      860.41   869.40   870.68   871.09   871.84   873.52
eigval :      873.90   888.31   889.40   890.07   891.81   900.39
eigval :      903.60   907.49   908.19   909.64   923.37   924.84
eigval :      924.94   925.52   926.19   926.45   927.16   927.74
eigval :      928.76   929.69   943.66   959.76   963.05   971.21
eigval :      974.18  1000.00  1002.43  1005.40  1012.05  1012.39
eigval :     1037.61  1065.24  1078.05  1081.58  1082.09  1082.86
eigval :     1082.96  1105.63  1112.66  1120.66  1120.94  1123.37
eigval :     1124.14  1129.23  1146.19  1153.35  1169.72  1174.77
eigval :     1175.80  1178.99  1180.20  1180.93  1182.47  1187.50
eigval :     1188.33  1193.43  1194.98  1198.79  1204.99  1211.34
eigval :     1225.89  1236.40  1248.30  1252.70  1262.88  1273.92
eigval :     1276.23  1276.91  1277.24  1279.65  1297.29  1305.57
eigval :     1308.97  1313.26  1317.24  1318.74  1321.21  1323.95
eigval :     1325.30  1325.63  1342.50  1357.88  1387.85  1391.63
eigval :     1397.48  1409.13  1417.03  1421.99  1426.12  1432.40
eigval :     1434.19  1441.22  1442.44  1443.84  1455.36  1458.51
eigval :     1468.56  1470.84  1471.37  1473.63  1474.90  1483.34
eigval :     1485.63  1493.88  1496.02  1501.91  1557.65  1562.73
eigval :     1573.98  1574.58  1578.73  1578.84  1579.59  1590.65
eigval :     1591.31  1591.57  1597.06  1597.50  1601.05  1606.53
eigval :     1608.16  1622.88  3025.03  3028.24  3030.66  3032.84
eigval :     3037.20  3040.47  3066.68  3069.95  3070.31  3070.40
eigval :     3070.59  3071.47  3071.54  3071.65  3071.91  3072.27
eigval :     3080.43  3080.53  3081.19  3081.66  3083.01  3083.10
eigval :     3083.51  3084.20  3084.47  3085.43  3087.33  3087.86
eigval :     3091.77  3092.36  3092.91  3093.19  3093.59  3097.49
eigval :     3100.02  3116.12  3125.81

   temp. (K)  partition function   enthalpy   heat capacity  entropy
                                   cal/mol     cal/K/mol   cal/K/mol   J/K/mol
 298.15  VIB  0.691E+20            25608.067    162.524    159.112
         ROT  0.135E+09              888.752      2.981     40.178
         INT  0.931E+28            26496.819    165.505    199.290
         TR   0.176E+29             1481.254      4.968     45.463
         TOT                       27978.0728   170.4734   244.7529  1024.0460

       T/K    H(0)-H(T)+PV         H(T)/Eh          T*S/Eh         G(T)/Eh
   ------------------------------------------------------------------------
    298.15    0.445859E-01    0.756584E+00    0.116290E+00    0.640294E+00
   ------------------------------------------------------------------------

         :::::::::::::::::::::::::::::::::::::::::::::::::::::
         ::                  THERMODYNAMIC                  ::
         :::::::::::::::::::::::::::::::::::::::::::::::::::::
         :: total free energy        -136.345649909997 Eh   ::
         ::.................................................::
         :: total energy             -136.985943642309 Eh   ::
         :: zero point energy           0.711997819033 Eh   ::
         :: G(RRHO) w/o ZPVE           -0.071704086722 Eh   ::
         :: G(RRHO) contrib.            0.640293732311 Eh   ::
         :::::::::::::::::::::::::::::::::::::::::::::::::::::

           -------------------------------------------------
          | TOTAL ENERGY             -136.985943642309 Eh   |
          | TOTAL ENTHALPY           -136.229359926272 Eh   |
          | TOTAL FREE ENERGY        -136.345649909997 Eh   |
          | GRADIENT NORM               0.000037948960 Eh/α |
          | HOMO-LUMO GAP               1.937360081098 eV   |
           -------------------------------------------------

 * finished run on 2025/09/11 at 04:06:22.844
