   * xtb version 6.7.1 (edcfbbe) compiled by 'albert@albert-system' on 2024-07-22

   ID    Z sym.   atoms
    1    6 C      1-16, 18-32, 34-37, 39-54
    2    7 N      17, 33, 38
    3    1 H      55-91

          program call               : xtb data2507/toluene/IDFL-2DPA/IDFL-2DPA_toluene_T1_crest.xyz --gfn 2 --uhf 2 --gbsa toluene --ohess vtight --parallel 40 --molden --ceasefiles --namespace data2507/toluene/IDFL-2DPA/IDFL-2DPA_toluene_T1_finalOpt
      * Solvation model:               GBSA
        Solvent                        toluene
        Solvent mass                       9.2140E+01 g/mol
          :  Hamiltonian                  GFN2-xTB          :
 * total energy  :  -136.9071821 Eh     change       -0.3370388E-08 Eh
 * total energy  :  -136.9072300 Eh     change       -0.4792879E-04 Eh
 * total energy  :  -136.9072543 Eh     change       -0.2432661E-04 Eh
 * total energy  :  -136.9072656 Eh     change       -0.1126317E-04 Eh
 * total energy  :  -136.9072784 Eh     change       -0.1275427E-04 Eh
 * total energy  :  -136.9072922 Eh     change       -0.1383389E-04 Eh
 * total energy  :  -136.9073013 Eh     change       -0.9077780E-05 Eh
 * total energy  :  -136.9073047 Eh     change       -0.3455457E-05 Eh
 * total energy  :  -136.9073066 Eh     change       -0.1839733E-05 Eh
 * total energy  :  -136.9073084 Eh     change       -0.1801519E-05 Eh
 * total energy  :  -136.9073186 Eh     change       -0.8647533E-06 Eh
 * total energy  :  -136.9073194 Eh     change       -0.8086184E-06 Eh
 * total energy  :  -136.9073202 Eh     change       -0.8111869E-06 Eh
 * total energy  :  -136.9073209 Eh     change       -0.6501643E-06 Eh
 * total energy  :  -136.9073210 Eh     change       -0.1413124E-06 Eh
 * total energy  :  -136.9073214 Eh     change       -0.3994704E-06 Eh
 * total energy  :  -136.9073213 Eh     change        0.8922686E-07 Eh
 * total energy  :  -136.9073216 Eh     change       -0.2457598E-06 Eh
 * total energy  :  -136.9073216 Eh     change       -0.8682932E-07 Eh
   *** GEOMETRY OPTIMIZATION CONVERGED AFTER 26 ITERATIONS ***

 final structure:
================
91
 xtb: 6.7.1 (edcfbbe)
C            0.38695188093268        5.50478055564842        1.18224663176819
C           -0.22128468911685        4.80781531181477       -0.04059537352900
C            0.28885133632637        5.46203296306741       -1.33034291813094
C           -1.72914716586115        4.83348348826130        0.02087627575867
C           -2.56161345162989        5.92324735813703        0.05870651211539
C           -3.93996273637737        5.72724367159668        0.13446730423243
C           -4.45618664942745        4.43891672310990        0.17611963090890
C           -3.62776002143530        3.33526324594070        0.13477457222865
C           -2.24309625242910        3.51505283838802        0.05059338368365
C           -1.16089823435759        2.58608687542793        0.00575882815497
C            0.07401146664302        3.32027798231745       -0.02836300602185
C            1.34390478102401        2.78804987533400       -0.03838159796225
C            1.45463789601680        1.37507812434970       -0.00476094901355
C            2.42329605523683        0.31792094385341        0.01034533591541
C            3.80993660119412        0.29774512782760        0.00793522570549
C            4.47926819822052       -0.92736441112769        0.03076359379743
N            5.87356343708964       -0.95495395975552        0.02839356082042
C            6.59458207713026       -0.00435763574967       -0.70078386234158
C            6.12568551540927        0.44169414605547       -1.93799267589228
C            6.84295079371964        1.37874567120631       -2.65563195863128
C            8.03561068630938        1.88155716690155       -2.15869247312204
C            8.50629062328897        1.44098298842045       -0.93154106885893
C            7.79438308567658        0.50788118978303       -0.20313410159255
C            6.55657504443161       -1.93502166595767        0.75656703612261
C            7.72016676096194       -2.51376343025077        0.24734151796593
C            8.39075062811674       -3.47864277233981        0.97364209740412
C            7.91343692774039       -3.88427052396810        2.21043633976715
C            6.75696035734271       -3.31396016480364        2.71939770161076
C            6.08107748333060       -2.34516992865898        2.00358230622580
C            3.76119986795309       -2.13942341123242        0.05550775985068
C            2.37736273389715       -2.14679044819619        0.05689182466309
C            1.70443272185257       -0.94117498554120        0.03875865605445
N            0.35813437157243       -0.65354926280297        0.04121108046406
C           -0.90658394668326       -1.17024052278247        0.05367784831355
C           -1.34450000006019       -2.48416674878833        0.08703573400603
C           -2.69840135837856       -2.73979666695938        0.06527609738336
C           -3.62995297686240       -1.67513177957335        0.00003245068735
N           -4.99189954150226       -1.95715675937673       -0.03319636809497
C           -5.90577032732998       -1.07571654099066        0.55976610610520
C           -5.61148416027164       -0.46970435960407        1.78226990205425
C           -6.51177587155145        0.40580654370741        2.35716325986013
C           -7.71575313944831        0.68647456680321        1.72933412548013
C           -8.01569216260463        0.08141341647781        0.51894051386535
C           -7.12045054689353       -0.79301146021075       -0.06658581511104
C           -5.46667089754161       -3.10131848323365       -0.68224635097854
C           -4.86634647548208       -3.54735340959419       -1.86166925213432
C           -5.33860688197229       -4.68075526847470       -2.49437415771520
C           -6.41466776520594       -5.38050712576320       -1.97091157913061
C           -7.01847884475504       -4.93753413732495       -0.80389108696183
C           -6.55041532011505       -3.80935723644223       -0.15923973941151
C           -3.19883115891718       -0.35129747928428       -0.02280908894925
C           -1.84417536373979       -0.05284010853877        0.02036403591653
C           -1.08049723931793        1.16237064487081        0.00793657336521
C            0.23413722610993        0.71538110782385        0.01373443245970
H            0.10833747954696        6.55629382335000        1.19430906062367
H            1.47201283336640        5.43215172455497        1.16201746805849
H            0.02431755004479        5.03925344159886        2.09698212837179
H            1.37240883573075        5.38804247670900       -1.39128401971559
H            0.00840402528033        6.51288874731745       -1.35647032010975
H           -0.14254000015308        4.96626145163371       -2.19815040384389
H           -2.16227698871123        6.92827513676329        0.03379393396668
H           -4.60538998017305        6.57821347910712        0.16572826500304
H           -5.52688361398973        4.29641324099847        0.24328833417832
H           -4.05305763021874        2.34610818564434        0.17812637594012
H            2.21727730094793        3.42163566275098       -0.06390037876665
H            4.36893649111491        1.22155852881655        0.01003203053966
H            5.20282160472081        0.04106314879406       -2.33097697727858
H            6.47167828595791        1.71284621745674       -3.61332520467591
H            8.59394538382166        2.61243998434179       -2.72383298151926
H            9.43067743618365        1.83347324356278       -0.53402645913542
H            8.15550862772927        0.17576414074611        0.75914268423823
H            8.08532685019052       -2.20781744786248       -0.72203772669692
H            9.28763241172440       -3.92272110693798        0.56753740579849
H            8.43956003191587       -4.63982052637273        2.77403160869598
H            6.38238893458520       -3.61980806586883        3.68518853019040
H            5.18661929509600       -1.89156577685058        2.40439982162748
H            4.30402532203465       -3.07150533518371        0.05048302152034
H            1.84175351416829       -3.08389145935271        0.05871258633040
H           -0.63810698304833       -3.29851573248456        0.14117714300253
H           -3.06027268349881       -3.75407960854060        0.12037666667325
H           -4.67675590572392       -0.69460111989169        2.27457478475271
H           -6.27286140197632        0.86958304376657        3.30276161386395
H           -8.41516649189773        1.37351440682630        2.18110805188383
H           -8.94914646714425        0.29937879977688        0.02138038966224
H           -7.34784814157717       -1.25240983726484       -1.01732556273540
H           -4.03917283728158       -2.99171061797085       -2.27808821716283
H           -4.86872452855868       -5.01444284085628       -3.40782965114670
H           -6.78160824336776       -6.26454786247513       -2.46985693453975
H           -7.85450344780580       -5.47983360032881       -0.38768358961788
H           -7.01256943387820       -3.47259477348927        0.75706943664826
H           -3.93081780771578        0.43565161901748       -0.10232385445901

          :  Hamiltonian                  GFN2-xTB          :
         :: gradient norm              0.000059828427 Eh/a0 ::
         :: HOMO-LUMO gap              0.634912700880 eV    ::
         :: SCC energy              -139.447831317012 Eh    ::
         :: -> dispersion             -0.130842201410 Eh    ::
         :: -> Gsolv                  -0.056332936033 Eh    ::
         :: repulsion energy           2.540509603384 Eh    ::

    * Orbital Energies and Occupations

         #    Occupation            Energy/Eh            Energy/eV
      -------------------------------------------------------------
         1        2.0000           -0.6755542             -18.3828
       ...           ...                  ...                  ...
       117        2.0000           -0.4100071             -11.1569
       118        2.0000           -0.4090684             -11.1313
       119        2.0000           -0.4083486             -11.1117
       120        2.0000           -0.3983172             -10.8388
       121        2.0000           -0.3953199             -10.7572
       122        2.0000           -0.3906631             -10.6305
       123        2.0000           -0.3866769             -10.5220
       124        2.0000           -0.3815339             -10.3821
       125        2.0000           -0.3680310             -10.0146
       126        2.0000           -0.3580415              -9.7428
       127        1.9516           -0.3495195              -9.5109
       128        1.0485           -0.3438617              -9.3570
       129        1.0000           -0.2613542              -7.1118 (HOMO)
       130        0.0000           -0.2380223              -6.4769 (LUMO)
       131        0.0000           -0.2371611              -6.4535
       132        0.0000           -0.2354836              -6.4078
       133                         -0.2331227              -6.3436
       134                         -0.2313942              -6.2966
       135                         -0.2284526              -6.2165
       136                         -0.2276965              -6.1959
       137                         -0.2272857              -6.1848
       138                         -0.2207667              -6.0074
       139                         -0.2099760              -5.7137
       140                         -0.2032609              -5.5310
       ...                                ...                  ...
       253                          0.7881825              21.4475
      -------------------------------------------------------------
                  HL-Gap            0.0233318 Eh            0.6349 eV

     #   Z          covCN         q      C6AA      α(0)
     1   6 C        3.758    -0.095    22.363     6.742
     2   6 C        3.933     0.015    20.260     6.397
     3   6 C        3.758    -0.095    22.361     6.742
     4   6 C        3.050    -0.013    28.285     8.722
     5   6 C        2.913    -0.042    29.033     8.835
     6   6 C        2.920    -0.051    29.257     8.870
     7   6 C        2.917    -0.040    28.990     8.829
     8   6 C        2.914    -0.050    29.247     8.868
     9   6 C        3.025    -0.008    28.201     8.711
    10   6 C        3.040    -0.034    28.796     8.802
    11   6 C        3.041    -0.010    28.225     8.714
    12   6 C        2.921    -0.061    29.525     8.911
    13   6 C        3.025    -0.033    28.803     8.803
    14   6 C        3.106    -0.019    28.330     8.721
    15   6 C        2.911    -0.053    29.304     8.877
    16   6 C        2.922     0.058    26.704     8.474
    17   7 N        2.754    -0.048    22.168     6.993
    18   6 C        2.925     0.065    26.539     8.448
    19   6 C        2.921    -0.042    29.052     8.839
    20   6 C        2.919    -0.028    28.693     8.784
    21   6 C        2.919    -0.034    28.845     8.807
    22   6 C        2.919    -0.028    28.696     8.784
    23   6 C        2.921    -0.044    29.098     8.846
    24   6 C        2.925     0.065    26.544     8.449
    25   6 C        2.921    -0.044    29.088     8.844
    26   6 C        2.919    -0.028    28.701     8.785
    27   6 C        2.919    -0.034    28.847     8.808
    28   6 C        2.919    -0.028    28.694     8.784
    29   6 C        2.922    -0.043    29.059     8.840
    30   6 C        2.922    -0.067    29.673     8.933
    31   6 C        2.905    -0.043    29.062     8.839
    32   6 C        3.064     0.031    27.236     8.558
    33   7 N        2.835    -0.011    21.471     6.882
    34   6 C        3.073     0.035    27.152     8.544
    35   6 C        2.904    -0.044    29.088     8.843
    36   6 C        2.921    -0.065    29.609     8.923
    37   6 C        2.920     0.058    26.705     8.474
    38   7 N        2.754    -0.044    22.089     6.980
    39   6 C        2.926     0.065    26.545     8.449
    40   6 C        2.921    -0.040    29.001     8.831
    41   6 C        2.919    -0.026    28.663     8.779
    42   6 C        2.919    -0.032    28.801     8.801
    43   6 C        2.919    -0.027    28.680     8.782
    44   6 C        2.921    -0.043    29.066     8.841
    45   6 C        2.925     0.065    26.551     8.450
    46   6 C        2.921    -0.042    29.048     8.838
    47   6 C        2.919    -0.027    28.687     8.783
    48   6 C        2.919    -0.033    28.832     8.805
    49   6 C        2.919    -0.028    28.692     8.784
    50   6 C        2.921    -0.043    29.075     8.842
    51   6 C        2.912    -0.055    29.374     8.887
    52   6 C        3.112    -0.016    28.254     8.708
    53   6 C        3.006    -0.041    28.994     8.833
    54   6 C        3.438     0.033    22.670     7.236
    55   1 H        0.925     0.036     2.502     2.473
    56   1 H        0.925     0.037     2.490     2.468
    57   1 H        0.925     0.029     2.600     2.522
    58   1 H        0.925     0.037     2.488     2.467
    59   1 H        0.925     0.036     2.502     2.473
    60   1 H        0.925     0.029     2.597     2.520
    61   1 H        0.925     0.012     2.853     2.642
    62   1 H        0.926     0.011     2.880     2.654
    63   1 H        0.925     0.011     2.871     2.650
    64   1 H        0.926     0.012     2.850     2.640
    65   1 H        0.926     0.011     2.868     2.648
    66   1 H        0.926     0.032     2.552     2.498
    67   1 H        0.926     0.038     2.471     2.458
    68   1 H        0.926     0.039     2.460     2.453
    69   1 H        0.926     0.038     2.469     2.457
    70   1 H        0.926     0.040     2.448     2.447
    71   1 H        0.926     0.038     2.472     2.459
    72   1 H        0.926     0.038     2.472     2.459
    73   1 H        0.926     0.040     2.448     2.447
    74   1 H        0.926     0.039     2.467     2.456
    75   1 H        0.926     0.039     2.456     2.451
    76   1 H        0.926     0.039     2.468     2.457
    77   1 H        0.926     0.030     2.583     2.513
    78   1 H        0.926     0.032     2.554     2.499
    79   1 H        0.926     0.033     2.537     2.491
    80   1 H        0.926     0.032     2.553     2.499
    81   1 H        0.926     0.039     2.459     2.452
    82   1 H        0.926     0.040     2.448     2.447
    83   1 H        0.926     0.039     2.458     2.452
    84   1 H        0.926     0.041     2.433     2.439
    85   1 H        0.926     0.039     2.459     2.452
    86   1 H        0.926     0.040     2.453     2.449
    87   1 H        0.926     0.040     2.443     2.444
    88   1 H        0.926     0.040     2.453     2.449
    89   1 H        0.926     0.041     2.436     2.441
    90   1 H        0.926     0.039     2.466     2.456
    91   1 H        0.926     0.031     2.566     2.505

molecular dipole:
                 x           y           z       tot (Debye)
 q only:        0.956      -2.571      -0.047
   full:        0.945      -2.618      -0.037       7.075

 projected vibrational frequencies (cm⁻¹)
eigval :       -0.00    -0.00    -0.00    -0.00    -0.00     0.00
eigval :        9.08    12.58    15.04    23.06    25.20    31.28
eigval :       38.80    49.31    50.38    53.23    54.81    65.83
eigval :       75.53    76.89    83.57    90.43    91.67    94.76
eigval :      129.18   138.18   147.43   157.93   163.95   166.46
eigval :      197.54   208.89   215.21   218.47   223.40   232.11
eigval :      235.83   246.22   258.99   262.89   277.37   290.20
eigval :      309.09   311.96   312.08   323.03   330.17   341.42
eigval :      356.31   365.24   375.83   376.15   377.84   381.83
eigval :      383.74   392.21   401.88   412.57   433.48   443.81
eigval :      446.17   455.50   473.10   491.97   499.68   503.58
eigval :      507.23   508.54   535.21   538.08   546.30   561.36
eigval :      570.25   579.79   584.91   586.04   588.05   588.71
eigval :      597.47   610.03   611.95   622.61   630.39   644.22
eigval :      655.83   658.28   659.34   662.47   664.64   665.20
eigval :      668.78   680.56   684.35   700.14   701.61   712.25
eigval :      749.00   750.78   754.22   755.18   756.22   758.13
eigval :      776.20   787.52   790.96   803.89   825.68   840.02
eigval :      842.45   844.61   850.19   869.77   869.95   871.19
eigval :      871.72   874.69   881.64   891.38   893.46   895.43
eigval :      896.30   896.42   900.04   908.03   908.99   909.48
eigval :      924.37   925.48   925.89   926.51   927.19   927.26
eigval :      928.02   930.82   931.48   951.16   960.73   967.63
eigval :      970.40   995.53   997.77  1003.71  1006.59  1010.17
eigval :     1026.10  1044.00  1071.15  1076.18  1079.34  1080.47
eigval :     1080.84  1081.56  1094.34  1107.18  1119.09  1120.42
eigval :     1122.03  1122.65  1134.50  1148.42  1168.20  1168.89
eigval :     1172.12  1175.87  1176.50  1177.09  1177.35  1178.80
eigval :     1187.38  1190.50  1192.95  1198.39  1200.08  1209.81
eigval :     1219.47  1228.75  1237.94  1248.30  1265.66  1269.66
eigval :     1272.84  1273.70  1274.30  1275.45  1282.96  1292.05
eigval :     1299.12  1300.06  1307.67  1316.44  1317.08  1323.78
eigval :     1324.16  1332.68  1346.65  1350.19  1368.41  1375.29
eigval :     1389.81  1393.05  1399.22  1407.13  1408.69  1422.12
eigval :     1429.96  1430.74  1437.68  1438.69  1449.79  1455.82
eigval :     1457.29  1459.53  1460.73  1461.17  1462.28  1475.35
eigval :     1483.23  1485.87  1488.86  1495.27  1499.13  1501.35
eigval :     1507.20  1542.63  1548.26  1563.38  1567.49  1569.57
eigval :     1571.63  1572.45  1580.13  1581.88  1586.24  1587.03
eigval :     1588.73  1615.25  3019.08  3021.67  3023.04  3023.73
eigval :     3029.59  3032.02  3048.70  3051.28  3070.57  3076.37
eigval :     3076.68  3077.37  3077.66  3077.77  3077.83  3078.27
eigval :     3078.66  3079.34  3083.14  3085.66  3085.94  3086.33
eigval :     3086.62  3087.23  3087.45  3089.01  3089.54  3089.91
eigval :     3090.31  3096.62  3096.85  3097.46  3098.31  3100.86
eigval :     3103.47  3107.37  3114.60

   temp. (K)  partition function   enthalpy   heat capacity  entropy
                                   cal/mol     cal/K/mol   cal/K/mol   J/K/mol
 298.15  VIB  0.840E+20            25783.913    164.065    160.127
         ROT  0.135E+09              888.752      2.981     40.180
         INT  0.113E+29            26672.665    167.046    200.307
         TR   0.176E+29             1481.254      4.968     45.463
         TOT                       28153.9191   172.0145   245.7700  1028.3017

       T/K    H(0)-H(T)+PV         H(T)/Eh          T*S/Eh         G(T)/Eh
   ------------------------------------------------------------------------
    298.15    0.448661E-01    0.753205E+00    0.116773E+00    0.636432E+00
   ------------------------------------------------------------------------

         :::::::::::::::::::::::::::::::::::::::::::::::::::::
         ::                  THERMODYNAMIC                  ::
         :::::::::::::::::::::::::::::::::::::::::::::::::::::
         :: total free energy        -136.270889693243 Eh   ::
         ::.................................................::
         :: total energy             -136.907321712493 Eh   ::
         :: zero point energy           0.708339151797 Eh   ::
         :: G(RRHO) w/o ZPVE           -0.071907132547 Eh   ::
         :: G(RRHO) contrib.            0.636432019250 Eh   ::
         :::::::::::::::::::::::::::::::::::::::::::::::::::::

           -------------------------------------------------
          | TOTAL ENERGY             -136.907321712493 Eh   |
          | TOTAL ENTHALPY           -136.154116434768 Eh   |
          | TOTAL FREE ENERGY        -136.270889693243 Eh   |
          | GRADIENT NORM               0.000058229678 Eh/α |
          | HOMO-LUMO GAP               0.634891952648 eV   |
           -------------------------------------------------

 * finished run on 2025/09/11 at 04:25:13.713
