   * xtb version 6.7.1 (edcfbbe) compiled by 'albert@albert-system' on 2024-07-22

   ID    Z sym.   atoms
    1    7 N      1, 6, 20, 36
    2    6 C      2-5, 7-19, 21-35
    3    1 H      37-54

          program call               : xtb data2507/gas/2CzPN/2CzPN_gas_S0_finalOpt.xtbopt.xyz --gfn 2 --spinpol --tblite --uhf 2 --ohess vtight --parallel 40 --molden --ceasefiles --namespace data2507/gas/2CzPN/2CzPN_gas_T1_preOpt
 * total energy  :   -89.2968320 Eh     change       -0.6863729E-08 Eh
 * total energy  :   -89.3013596 Eh     change       -0.4527579E-02 Eh
 * total energy  :   -89.3022549 Eh     change       -0.8952849E-03 Eh
 * total energy  :   -89.3027823 Eh     change       -0.5274530E-03 Eh
 * total energy  :   -89.3028865 Eh     change       -0.1042083E-03 Eh
 * total energy  :   -89.3028915 Eh     change       -0.4946547E-05 Eh
 * total energy  :   -89.3029333 Eh     change       -0.4181940E-04 Eh
 * total energy  :   -89.3029495 Eh     change       -0.1620219E-04 Eh
 * total energy  :   -89.3029697 Eh     change       -0.2023049E-04 Eh
 * total energy  :   -89.3029764 Eh     change       -0.6645559E-05 Eh
 * total energy  :   -89.3030589 Eh     change       -0.7081718E-06 Eh
 * total energy  :   -89.3030596 Eh     change       -0.7269786E-06 Eh
 * total energy  :   -89.3030603 Eh     change       -0.6893691E-06 Eh
 * total energy  :   -89.3030610 Eh     change       -0.6833952E-06 Eh
 * total energy  :   -89.3030616 Eh     change       -0.6521679E-06 Eh
 * total energy  :   -89.3030623 Eh     change       -0.6458048E-06 Eh
 * total energy  :   -89.3030629 Eh     change       -0.6170071E-06 Eh
 * total energy  :   -89.3030635 Eh     change       -0.6113819E-06 Eh
 * total energy  :   -89.3030635 Eh     change       -0.3806076E-07 Eh
   *** GEOMETRY OPTIMIZATION CONVERGED AFTER 68 ITERATIONS ***

 final structure:
================
54
 xtb: 6.7.1 (edcfbbe)
N            5.92938457614231       -1.87064612784041       -0.87021944005850
C            4.94890257615104       -1.31240894403303       -0.61611730233773
C            3.75765913219841       -0.68283394278431       -0.29074888328534
C            2.53588929983329       -1.30217830342743       -0.54773698058890
C            1.33645680692727       -0.67077442105769       -0.30229114047152
N            0.12661791249837       -1.25331209044008       -0.66436021439444
C           -0.32396656287033       -2.49229184764167       -0.25079626843219
C            0.34425867068503       -3.48443801691482        0.45534629669183
C           -0.36476636143855       -4.61909336508886        0.80137170485880
C           -1.70799473577980       -4.76643401491989        0.46234692299111
C           -2.38517001669789       -3.77199148439737       -0.22138990379722
C           -1.69487126130119       -2.62580000752537       -0.58074129465833
C           -2.07511591964836       -1.41296124762627       -1.25418523664030
C           -3.25817146914365       -0.95852268165927       -1.81362287659046
C           -3.26313253750120        0.27702309614881       -2.43795081489390
C           -2.09919039506585        1.03297275594021       -2.54498226731517
C           -0.90741405103345        0.59753440613556       -1.99611598178614
C           -0.91567714800832       -0.60560351102358       -1.30424566278200
C            1.33808874559774        0.66619124759649        0.30400975476884
N            0.12952535307722        1.25242678071478        0.66445732386420
C           -0.31675537250241        2.49272146403928        0.25012456138031
C            0.35546479242439        3.48280348694250       -0.45512022688016
C           -0.34966453042520        4.61953126223792       -0.80230326034171
C           -1.69294260093397        4.77092376911191       -0.46525630976842
C           -2.37407534005847        3.77858829672800        0.21760016627609
C           -1.68772971194699        2.63036535480591        0.57805941233853
C           -2.07259788910782        1.41872447793290        1.25102148902281
C           -3.25786006798113        0.96786980809970        1.80869944549559
C           -3.26748536872000       -0.26763732841605        2.43303580361969
C           -2.10598735180000       -1.02709603511939        2.54180538360766
C           -0.91208270557149       -0.59526812352122        1.99471770585451
C           -0.91567093814715        0.60788416884338        1.30283191189295
C            2.53910841136965        1.29390974322625        0.55108925507270
C            3.75933300683381        0.67086747081480        0.29564575908043
C            4.95207096606229        1.29686053447656        0.62243547669232
N            5.93393089985741        1.85215743525588        0.87765930614712
H            2.53871086824843       -2.27536592823642       -1.01812386130132
H            1.38095621083973       -3.37662669881278        0.73495271732965
H            0.13327828752906       -5.40603303141208        1.34681646006566
H           -2.22726859225329       -5.66906655594399        0.74650743823190
H           -3.43069172619212       -3.87994907724327       -0.46546253409902
H           -4.15315590232185       -1.55942385690039       -1.76669839084774
H           -4.17741208328010        0.65299766306211       -2.87101972730655
H           -2.12265660746965        1.97504648209861       -3.07101158619856
H           -0.00052878662985        1.17076770311658       -2.11556235294411
H            1.39224520436811        3.37187121240832       -0.73319171858569
H            0.15152186008167        5.40491820450160       -1.34710754236216
H           -2.20910013517648        5.67507110206097       -0.75027312580946
H           -3.41961980436342        3.88969271708496        0.46015430891591
H           -4.15095025334059        1.57147419880955        1.76041480126845
H           -4.18354020698045       -0.64084873481196        2.86473926709080
H           -2.13309188174456       -1.96909311222335        3.06779777518924
H           -0.00712197659048       -1.17125646869993        2.11549718986443
H            2.54427919559016        2.26707386765720        1.02150748657689

 projected vibrational frequencies (cm⁻¹)
eigval :       -0.00    -0.00    -0.00     0.00     0.00     0.00
eigval :       17.79    29.76    37.21    39.65    47.44    54.63
eigval :       84.62    97.69   105.10   106.44   117.15   138.50
eigval :      143.29   161.39   171.38   182.29   192.66   197.56
eigval :      255.92   267.81   273.69   280.20   308.33   318.26
eigval :      335.32   365.26   370.71   394.66   398.57   400.55
eigval :      417.52   421.59   434.67   439.18   446.34   474.83
eigval :      476.51   513.13   514.95   519.17   533.90   535.02
eigval :      546.60   550.36   578.89   579.26   587.96   590.28
eigval :      592.37   634.67   642.85   660.10   667.59   675.06
eigval :      687.23   704.94   706.63   728.21   752.99   755.55
eigval :      768.09   769.93   777.97   778.03   830.67   862.18
eigval :      867.56   875.40   875.76   877.27   886.08   893.95
eigval :      894.21   905.56   905.70   906.47   907.30   920.65
eigval :      920.89   921.79   922.13   927.67  1009.02  1009.76
eigval :     1067.21  1067.45  1068.43  1071.30  1073.63  1104.45
eigval :     1127.68  1140.47  1141.96  1149.69  1162.85  1166.76
eigval :     1176.43  1176.98  1180.47  1180.76  1217.51  1225.72
eigval :     1226.71  1228.10  1258.21  1273.40  1275.29  1288.46
eigval :     1293.49  1293.99  1327.45  1328.13  1333.02  1342.09
eigval :     1361.93  1363.09  1369.11  1394.52  1405.62  1409.23
eigval :     1414.07  1419.95  1440.00  1449.63  1460.29  1460.48
eigval :     1481.16  1481.93  1562.31  1563.91  1573.01  1573.60
eigval :     1574.25  1574.74  1594.34  1597.18  2221.35  2249.80
eigval :     3081.82  3082.01  3085.50  3085.55  3087.06  3087.08
eigval :     3089.24  3089.32  3091.66  3091.81  3096.45  3096.75
eigval :     3098.77  3098.78  3103.61  3103.99  3104.51  3105.45

   temp. (K)  partition function   enthalpy   heat capacity  entropy
                                   cal/mol     cal/K/mol   cal/K/mol   J/K/mol
 298.15  VIB  0.113E+12            15838.195    102.877     96.162
         ROT  0.106E+08              888.752      2.981     35.119
         INT  0.119E+19            16726.947    105.858    131.281
         TR   0.950E+28             1481.254      4.968     44.237
         TOT                       18208.2010   110.8264   175.5186   734.3697

       T/K    H(0)-H(T)+PV         H(T)/Eh          T*S/Eh         G(T)/Eh
   ------------------------------------------------------------------------
    298.15    0.290166E-01    0.423411E+00    0.833945E-01    0.340017E+00
   ------------------------------------------------------------------------

         :::::::::::::::::::::::::::::::::::::::::::::::::::::
         ::                  THERMODYNAMIC                  ::
         :::::::::::::::::::::::::::::::::::::::::::::::::::::
         :: total free energy         -88.963047015032 Eh   ::
         ::.................................................::
         :: total energy              -89.303063539475 Eh   ::
         :: zero point energy           0.394394440727 Eh   ::
         :: G(RRHO) w/o ZPVE           -0.054377916284 Eh   ::
         :: G(RRHO) contrib.            0.340016524443 Eh   ::
         :::::::::::::::::::::::::::::::::::::::::::::::::::::

           -------------------------------------------------
          | TOTAL ENERGY              -89.303063539475 Eh   |
          | TOTAL ENTHALPY            -88.879652483538 Eh   |
          | TOTAL FREE ENERGY         -88.963047015032 Eh   |
          | GRADIENT NORM               0.000078852718 Eh/α |
           -------------------------------------------------

 * finished run on 2025/07/16 at 11:54:36.461
