   * xtb version 6.7.1 (edcfbbe) compiled by 'albert@albert-system' on 2024-07-22

   ID    Z sym.   atoms
    1    7 N      1, 6, 20, 36
    2    6 C      2-5, 7-19, 21-35
    3    1 H      37-54

          program call               : xtb data2507/gas/2CzPN/2CzPN_gas_T1_crest.xyz --gfn 2 --spinpol --tblite --uhf 2 --ohess vtight --parallel 40 --molden --ceasefiles --namespace data2507/gas/2CzPN/2CzPN_gas_T1_finalOpt
 * total energy  :   -89.3030292 Eh     change       -0.3299618E-08 Eh
 * total energy  :   -89.3030645 Eh     change       -0.3533597E-04 Eh
 * total energy  :   -89.3030729 Eh     change       -0.8446559E-05 Eh
 * total energy  :   -89.3030763 Eh     change       -0.3385565E-05 Eh
 * total energy  :   -89.3030781 Eh     change       -0.1806270E-05 Eh
 * total energy  :   -89.3030788 Eh     change       -0.6790180E-06 Eh
 * total energy  :   -89.3030799 Eh     change       -0.1136777E-05 Eh
 * total energy  :   -89.3030815 Eh     change       -0.1523797E-05 Eh
 * total energy  :   -89.3030828 Eh     change       -0.1329043E-05 Eh
 * total energy  :   -89.3030834 Eh     change       -0.5746793E-06 Eh
 * total energy  :   -89.3030850 Eh     change       -0.4361637E-06 Eh
 * total energy  :   -89.3030855 Eh     change       -0.5121608E-06 Eh
 * total energy  :   -89.3030860 Eh     change       -0.5092557E-06 Eh
 * total energy  :   -89.3030863 Eh     change       -0.3261146E-06 Eh
 * total energy  :   -89.3030866 Eh     change       -0.2674809E-06 Eh
 * total energy  :   -89.3030868 Eh     change       -0.2041606E-06 Eh
 * total energy  :   -89.3030869 Eh     change       -0.1377611E-06 Eh
 * total energy  :   -89.3030871 Eh     change       -0.1522341E-06 Eh
 * total energy  :   -89.3030871 Eh     change       -0.2051084E-07 Eh
   *** GEOMETRY OPTIMIZATION CONVERGED AFTER 22 ITERATIONS ***

 final structure:
================
54
 xtb: 6.7.1 (edcfbbe)
N            5.93989945145061       -1.84098090481423        0.88687794012302
C            4.95747451131096       -1.28747608252325        0.62998800616252
C            3.76377391174905       -0.66416297785641        0.30155290321111
C            2.54438323567991       -1.28566464622975        0.56533462030867
C            1.34347195760403       -0.65994551003705        0.31401225444188
N            0.13375101833806       -1.23442088130118        0.68953531120516
C           -0.90178187136157       -0.57125583417942        1.32481793134991
C           -0.88206063849878        0.64132044820885        1.99957366311841
C           -2.06792134810617        1.09154483568622        2.54947981673184
C           -3.23692348114634        0.34132878014162        2.45944779179728
C           -3.24339252947129       -0.90227714960319        1.85123975143179
C           -2.06640223332176       -1.37167166491966        1.29120335719986
C           -1.69682290475417       -2.59574485438033        0.63220855315464
C           -2.39621195199723       -3.74158789709070        0.28994255015377
C           -1.72828139325665       -4.74929324744282       -0.38338817746766
C           -0.38499248621568       -4.61609066763745       -0.72810478254918
C            0.33309954259596       -3.48213747444622       -0.39909561356956
C           -0.32626942103498       -2.47575524002665        0.29515237138752
C            1.34048295343124        0.66888906718223       -0.31013912395985
N            0.12833960943655        1.23643290325616       -0.68848838844575
C           -0.90163331527325        0.56701456881955       -1.32626128163517
C           -0.87281259361327       -0.64535901781260       -2.00105065038345
C           -2.05454177059294       -1.10281149060740       -2.55385648412080
C           -3.22833982128755       -0.35978814585969       -2.46658127070163
C           -3.24391873452801        0.88371133913641       -1.85832111877333
C           -2.07118263652313        1.36030293580804       -1.29542753159762
C           -1.71058952239271        2.58663256193861       -0.63563831095540
C           -2.41768178499674        3.72829747205566       -0.29523829445850
C           -1.75741173939397        4.74017208909789        0.37939033953683
C           -0.41412224582093        4.61519636825492        0.72719168390450
C            0.31157281150766        3.48552786675051        0.40012428885194
C           -0.34011759113961        2.47499216556092       -0.29533853519378
C            2.53849085612006        1.30094593205104       -0.55945476081078
C            3.76069790968638        0.68574549229346       -0.29394532691561
C            4.95167268343538        1.31489011349206       -0.62108282923662
N            5.93188946968617        1.87276558639296       -0.87707201739206
H            2.55072780260212       -2.25407931791579        1.04544108039637
H            0.02928730945719        1.21007103503348        2.10589581924564
H           -2.08259707507441        2.04075604376153        3.06283388749506
H           -4.14620123074044        0.72853935853649        2.89314146686363
H           -4.14245047347437       -1.49794293438782        1.81736178110130
H           -3.44160751838614       -3.83913305596457        0.53887967169525
H           -2.25493864019748       -5.65164465175141       -0.65455546364069
H            0.10571067606893       -5.41377137060726       -1.26453863709522
H            1.36992583742321       -3.38540914694991       -0.68231192231932
H            0.04229449117124       -1.20844743940550       -2.10520985133720
H           -2.06213973578173       -2.05204764954235       -3.06731589743068
H           -4.13417443514460       -0.75255655288639       -2.90247020116994
H           -4.14670166082475        1.47383266174150       -1.82659859565554
H           -3.46306775647618        3.81946843131325       -0.54661912669330
H           -2.29014208549794        5.63938294549923        0.64912178960247
H            0.07052386647187        5.41601373391662        1.26445899212975
H            1.34834480797146        3.39514982137231        0.68563386178623
H            2.54050037682497        2.26941853927754       -1.03948316967768

 projected vibrational frequencies (cm⁻¹)
eigval :       -0.00    -0.00     0.00     0.00     0.00     0.00
eigval :       17.66    29.83    37.11    39.51    47.60    54.02
eigval :       84.71    97.71   105.54   106.00   116.91   138.39
eigval :      143.31   161.67   171.69   181.92   192.59   196.86
eigval :      255.77   267.88   273.45   280.31   308.37   318.09
eigval :      335.39   365.79   369.81   394.22   398.59   400.42
eigval :      417.37   421.62   434.55   439.02   446.62   474.68
eigval :      476.60   513.13   514.99   519.05   533.96   534.96
eigval :      546.40   550.61   579.09   579.21   587.89   590.14
eigval :      592.45   634.76   642.55   660.04   667.73   675.13
eigval :      687.62   704.96   706.66   728.49   752.93   755.67
eigval :      767.71   769.85   777.75   777.81   830.58   861.78
eigval :      867.51   875.33   875.70   876.50   886.00   893.44
eigval :      894.09   905.21   905.48   906.24   907.11   920.50
eigval :      920.61   921.63   921.85   927.95  1009.16  1009.89
eigval :     1067.20  1067.41  1068.66  1071.42  1074.22  1104.32
eigval :     1128.90  1140.41  1141.73  1149.35  1162.48  1166.80
eigval :     1176.19  1176.72  1180.06  1180.08  1217.23  1225.88
eigval :     1226.68  1228.45  1258.09  1273.48  1275.19  1288.08
eigval :     1292.07  1293.61  1327.02  1328.29  1333.32  1342.44
eigval :     1361.39  1362.44  1368.79  1393.97  1405.13  1408.57
eigval :     1413.97  1419.90  1440.54  1450.84  1459.98  1460.39
eigval :     1481.12  1481.78  1562.33  1563.98  1572.81  1573.87
eigval :     1574.45  1574.86  1594.63  1597.07  2221.41  2249.93
eigval :     3081.67  3081.94  3085.41  3085.45  3086.99  3087.03
eigval :     3089.19  3089.28  3091.54  3091.57  3096.43  3096.69
eigval :     3098.78  3098.80  3103.56  3103.86  3104.26  3105.31

   temp. (K)  partition function   enthalpy   heat capacity  entropy
                                   cal/mol     cal/K/mol   cal/K/mol   J/K/mol
 298.15  VIB  0.116E+12            15841.383    102.877     96.188
         ROT  0.105E+08              888.752      2.981     35.113
         INT  0.122E+19            16730.136    105.858    131.301
         TR   0.950E+28             1481.254      4.968     44.237
         TOT                       18211.3895   110.8259   175.5379   734.4504

       T/K    H(0)-H(T)+PV         H(T)/Eh          T*S/Eh         G(T)/Eh
   ------------------------------------------------------------------------
    298.15    0.290217E-01    0.423389E+00    0.834037E-01    0.339986E+00
   ------------------------------------------------------------------------

         :::::::::::::::::::::::::::::::::::::::::::::::::::::
         ::                  THERMODYNAMIC                  ::
         :::::::::::::::::::::::::::::::::::::::::::::::::::::
         :: total free energy         -88.963101389732 Eh   ::
         ::.................................................::
         :: total energy              -89.303087086338 Eh   ::
         :: zero point energy           0.394367703843 Eh   ::
         :: G(RRHO) w/o ZPVE           -0.054382007236 Eh   ::
         :: G(RRHO) contrib.            0.339985696607 Eh   ::
         :::::::::::::::::::::::::::::::::::::::::::::::::::::

           -------------------------------------------------
          | TOTAL ENERGY              -89.303087086338 Eh   |
          | TOTAL ENTHALPY            -88.879697686006 Eh   |
          | TOTAL FREE ENERGY         -88.963101389732 Eh   |
          | GRADIENT NORM               0.000083313467 Eh/α |
           -------------------------------------------------

 * finished run on 2025/07/16 at 11:57:08.478
