   * xtb version 6.7.1 (edcfbbe) compiled by 'albert@albert-system' on 2024-07-22

   ID    Z sym.   atoms
    1    7 N      1, 6, 20, 36
    2    6 C      2-5, 7-19, 21-35
    3    1 H      37-54

          program call               : xtb data2507/gas/2CzPN/2CzPN.xyz --gfn 2 --ohess vtight --parallel 40 --molden --ceasefiles --namespace data2507/gas/2CzPN/2CzPN_gas_S0_preOpt
          :  Hamiltonian                  GFN2-xTB          :
 * total energy  :   -89.3696275 Eh     change       -0.5478725E-08 Eh
 * total energy  :   -89.3830124 Eh     change       -0.1338489E-01 Eh
 * total energy  :   -89.3860733 Eh     change       -0.3060913E-02 Eh
 * total energy  :   -89.3865475 Eh     change       -0.4742499E-03 Eh
 * total energy  :   -89.3871440 Eh     change       -0.5964551E-03 Eh
 * total energy  :   -89.3874172 Eh     change       -0.2732215E-03 Eh
 * total energy  :   -89.3875570 Eh     change       -0.1397742E-03 Eh
 * total energy  :   -89.3876498 Eh     change       -0.9287940E-04 Eh
 * total energy  :   -89.3877179 Eh     change       -0.6801331E-04 Eh
 * total energy  :   -89.3878497 Eh     change       -0.1318690E-03 Eh
 * total energy  :   -89.3901343 Eh     change       -0.3030524E-06 Eh
 * total energy  :   -89.3901345 Eh     change       -0.2205393E-06 Eh
 * total energy  :   -89.3901347 Eh     change       -0.1561852E-06 Eh
 * total energy  :   -89.3901348 Eh     change       -0.1237471E-06 Eh
 * total energy  :   -89.3901349 Eh     change       -0.1155611E-06 Eh
 * total energy  :   -89.3901350 Eh     change       -0.1133786E-06 Eh
 * total energy  :   -89.3901352 Eh     change       -0.1092955E-06 Eh
 * total energy  :   -89.3901353 Eh     change       -0.1120344E-06 Eh
 * total energy  :   -89.3901354 Eh     change       -0.9899743E-07 Eh
   *** GEOMETRY OPTIMIZATION CONVERGED AFTER 60 ITERATIONS ***

 final structure:
================
54
 xtb: 6.7.1 (edcfbbe)
N            1.83617530697111        6.37683945686255        0.84047339809200
C            1.28994937408248        5.40007464885566        0.59515829711523
C            0.63875852080132        4.18166734287920        0.29481682690843
C            1.25646442142817        2.97320839672379        0.59595999559617
C            0.63341875531461        1.76307653666965        0.31627079385268
N            1.25807592814589        0.56792634415595        0.66435971816952
C            0.64156665278634       -0.50234897269940        1.29460052772366
C           -0.55714504967487       -0.53499362019265        1.98848280551366
C           -0.95142399752571       -1.74269662336259        2.53280890953288
C           -0.15890864432134       -2.88083576905145        2.41821547279957
C            1.06910536317353       -2.83359487435347        1.78718881593483
C            1.48183435627826       -1.63308130539018        1.22764899598073
C            2.67302028010793       -1.21779507001939        0.53778480319125
C            3.83390402252150       -1.87853774658421        0.16236384578462
C            4.80173274526461       -1.17580249772887       -0.52849997725922
C            4.61726667770143        0.16439443570026       -0.85487115555822
C            3.46733051502413        0.84274897332928       -0.49397162662870
C            2.50225282529921        0.14585495012293        0.21503901087017
C           -0.63336983228411        1.76320135900048       -0.31665666075764
N           -1.25818859961936        0.56818486351701       -0.66493664491028
C           -0.64186740888772       -0.50211952979569       -1.29529855567067
C            0.55673442007367       -0.53485151829440       -1.98937076171832
C            0.95073835508727       -1.74254206071434       -2.53392633223901
C            0.15810251535673       -2.88059799937338       -2.41930962669035
C           -1.06971371859949       -2.83331394514052       -1.78790335425465
C           -1.48217337430276       -1.63281587786917       -1.22813355257450
C           -2.67306698773991       -1.21754852723724       -0.53775339784250
C           -3.83362032986363       -1.87838428160281       -0.16147790030009
C           -4.80102805663812       -1.17570896448522        0.53003397324009
C           -4.61653459109665        0.16456061069903        0.85609403348059
C           -3.46692678870182        0.84301028970442        0.49434405451456
C           -2.50219924842816        0.14611463819461       -0.21514405910375
C           -1.25633978458012        2.97343113315424       -0.59607383434531
C           -0.63855123652169        4.18178392899755       -0.29467261757694
C           -1.28965786612935        5.40029574350155       -0.59476454895776
N           -1.83584826343838        6.37709907366546       -0.84000982238025
H            2.21767723430366        2.97401979798411        1.08826340310079
H           -1.16418967203004        0.34932473841620        2.11136561471815
H           -1.89205293764004       -1.79924182833753        3.05948069116301
H           -0.50367769009481       -3.80820081433023        2.85000716320319
H            1.69928922508964       -3.70785309273972        1.73177360032466
H            3.97007215304649       -2.92147440812922        0.40374475545606
H            5.71342793470919       -1.67053309188963       -0.82764836195862
H            5.38579185936088        0.68706420601275       -1.40437306383093
H            3.33168512567173        1.87811783056807       -0.77023860699388
H            1.16390590692646        0.34938862714940       -2.11221866577371
H            1.89124289180754       -1.79915187384300       -3.06081438821130
H            0.50263461345858       -3.80793977117143       -2.85133948493610
H           -1.69996039224744       -3.70751833908939       -1.73237632311775
H           -3.96980997434488       -2.92137756048943       -0.40260948158212
H           -5.71240091155077       -1.67055288262947        0.82998032155539
H           -5.38473943414432        0.68719082013239        1.40608019525218
H           -3.33119944348569        1.87842165330858        0.77040908071864
H           -2.21756374589893        2.97440844721016       -1.08835629861502

          :  Hamiltonian                  GFN2-xTB          :
         :: gradient norm              0.000025792287 Eh/a0 ::
         :: HOMO-LUMO gap              1.987991318356 eV    ::
         :: SCC energy               -91.135799652131 Eh    ::
         :: -> dispersion             -0.089499206943 Eh    ::
         :: repulsion energy           1.745664282467 Eh    ::

    * Orbital Energies and Occupations

         #    Occupation            Energy/Eh            Energy/eV
      -------------------------------------------------------------
         1        2.0000           -0.7102794             -19.3277
       ...           ...                  ...                  ...
        71        2.0000           -0.4378687             -11.9150
        72        2.0000           -0.4357179             -11.8565
        73        2.0000           -0.4345405             -11.8244
        74        2.0000           -0.4331336             -11.7862
        75        2.0000           -0.4325865             -11.7713
        76        2.0000           -0.4320788             -11.7575
        77        2.0000           -0.4306763             -11.7193
        78        2.0000           -0.4191621             -11.4060
        79        2.0000           -0.4182671             -11.3816
        80        2.0000           -0.3961859             -10.7808
        81        2.0000           -0.3898932             -10.6095
        82        2.0000           -0.3839960             -10.4491
        83        2.0000           -0.3805893             -10.3564 (HOMO)
        84                         -0.3075319              -8.3684 (LUMO)
        85                         -0.2850201              -7.7558
        86                         -0.2593046              -7.0560
        87                         -0.2585594              -7.0358
        88                         -0.2405023              -6.5444
        89                         -0.2316724              -6.3041
        90                         -0.2250270              -6.1233
        91                         -0.2229986              -6.0681
        92                         -0.2202491              -5.9933
        93                         -0.2104891              -5.7277
        94                         -0.2005282              -5.4567
       ...                                ...                  ...
       162                          1.1751023              31.9762
      -------------------------------------------------------------
                  HL-Gap            0.0730574 Eh            1.9880 eV

     #   Z          covCN         q      C6AA      α(0)
     1   7 N        0.911    -0.212    25.609     7.319
     2   6 C        1.910     0.114    28.292     8.590
     3   6 C        2.975     0.021    27.524     8.606
     4   6 C        2.929    -0.035    28.877     8.813
     5   6 C        2.910     0.061    26.628     8.462
     6   7 N        2.800    -0.047    22.146     6.989
     7   6 C        3.073     0.049    26.837     8.494
     8   6 C        2.910    -0.047    29.158     8.854
     9   6 C        2.925    -0.030    28.761     8.795
    10   6 C        2.921    -0.037    28.916     8.818
    11   6 C        2.913    -0.031    28.772     8.796
    12   6 C        3.065    -0.014    28.288     8.721
    13   6 C        3.068    -0.013    28.260     8.717
    14   6 C        2.913    -0.030    28.757     8.794
    15   6 C        2.920    -0.037    28.931     8.820
    16   6 C        2.925    -0.031    28.775     8.797
    17   6 C        2.910    -0.049    29.224     8.864
    18   6 C        3.068     0.049    26.829     8.493
    19   6 C        2.910     0.061    26.628     8.462
    20   7 N        2.800    -0.047    22.147     6.989
    21   6 C        3.073     0.049    26.837     8.494
    22   6 C        2.910    -0.047    29.158     8.854
    23   6 C        2.925    -0.030    28.761     8.795
    24   6 C        2.921    -0.037    28.916     8.818
    25   6 C        2.913    -0.031    28.772     8.796
    26   6 C        3.065    -0.014    28.288     8.721
    27   6 C        3.068    -0.013    28.260     8.717
    28   6 C        2.913    -0.030    28.757     8.794
    29   6 C        2.920    -0.037    28.931     8.820
    30   6 C        2.925    -0.031    28.775     8.797
    31   6 C        2.910    -0.049    29.224     8.864
    32   6 C        3.068     0.049    26.829     8.493
    33   6 C        2.929    -0.035    28.877     8.813
    34   6 C        2.975     0.021    27.524     8.606
    35   6 C        1.910     0.114    28.292     8.590
    36   7 N        0.911    -0.212    25.609     7.319
    37   1 H        0.926     0.060     2.200     2.319
    38   1 H        0.926     0.023     2.687     2.564
    39   1 H        0.926     0.034     2.536     2.491
    40   1 H        0.926     0.034     2.524     2.484
    41   1 H        0.926     0.036     2.498     2.472
    42   1 H        0.926     0.036     2.500     2.472
    43   1 H        0.926     0.034     2.524     2.485
    44   1 H        0.926     0.035     2.510     2.478
    45   1 H        0.926     0.026     2.649     2.545
    46   1 H        0.926     0.023     2.687     2.564
    47   1 H        0.926     0.034     2.536     2.491
    48   1 H        0.926     0.034     2.524     2.484
    49   1 H        0.926     0.036     2.498     2.472
    50   1 H        0.926     0.036     2.500     2.472
    51   1 H        0.926     0.034     2.524     2.485
    52   1 H        0.926     0.035     2.510     2.478
    53   1 H        0.926     0.026     2.649     2.545
    54   1 H        0.926     0.060     2.200     2.319

molecular dipole:
                 x           y           z       tot (Debye)
 q only:       -0.000      -2.086      -0.000
   full:        0.000      -2.718      -0.000       6.909

 projected vibrational frequencies (cm⁻¹)
eigval :       -0.00    -0.00     0.00     0.00     0.00     0.00
eigval :       21.67    31.16    38.02    44.84    48.70    52.91
eigval :       87.91    96.77   106.28   108.42   116.08   136.59
eigval :      146.83   163.37   172.21   190.67   191.71   207.40
eigval :      263.21   270.22   276.47   281.40   310.04   312.72
eigval :      353.59   390.52   397.34   401.29   420.28   420.86
eigval :      426.13   432.34   442.47   444.33   480.88   482.62
eigval :      517.15   518.54   529.35   530.34   541.62   542.24
eigval :      549.10   557.32   583.89   588.29   590.82   598.56
eigval :      648.38   656.20   663.23   670.99   676.73   690.95
eigval :      706.61   707.71   709.67   750.82   754.90   760.04
eigval :      770.43   771.66   782.72   782.91   837.08   866.04
eigval :      869.46   878.01   878.66   881.10   891.46   895.27
eigval :      899.60   905.18   905.64   906.93   907.10   924.01
eigval :      924.26   925.05   925.30   954.69  1012.06  1013.12
eigval :     1070.16  1071.17  1072.38  1075.70  1077.64  1117.22
eigval :     1138.90  1152.09  1152.23  1169.46  1171.72  1180.05
eigval :     1180.90  1182.86  1183.52  1220.31  1222.35  1233.74
eigval :     1235.38  1236.40  1260.18  1292.53  1294.72  1298.12
eigval :     1299.83  1311.64  1327.33  1358.04  1359.28  1360.83
eigval :     1361.12  1381.32  1406.29  1426.48  1427.62  1427.81
eigval :     1428.67  1472.25  1474.00  1485.28  1486.63  1486.72
eigval :     1501.23  1552.74  1578.52  1578.67  1592.27  1592.65
eigval :     1600.31  1600.94  1613.82  1614.95  2373.85  2374.33
eigval :     3076.80  3076.93  3081.39  3081.44  3084.44  3084.57
eigval :     3085.66  3086.07  3092.05  3092.29  3094.23  3094.37
eigval :     3098.12  3098.55  3100.22  3100.40  3101.75  3102.19

   temp. (K)  partition function   enthalpy   heat capacity  entropy
                                   cal/mol     cal/K/mol   cal/K/mol   J/K/mol
 298.15  VIB  0.539E+11            15534.043    101.450     94.266
         ROT  0.106E+08              888.752      2.981     35.128
         INT  0.572E+18            16422.795    104.431    129.393
         TR   0.950E+28             1481.254      4.968     44.237
         TOT                       17904.0493   109.3989   173.6305   726.4702

       T/K    H(0)-H(T)+PV         H(T)/Eh          T*S/Eh         G(T)/Eh
   ------------------------------------------------------------------------
    298.15    0.285319E-01    0.426974E+00    0.824975E-01    0.344477E+00
   ------------------------------------------------------------------------

         :::::::::::::::::::::::::::::::::::::::::::::::::::::
         ::                  THERMODYNAMIC                  ::
         :::::::::::::::::::::::::::::::::::::::::::::::::::::
         :: total free energy         -89.045658392519 Eh   ::
         ::.................................................::
         :: total energy              -89.390135369660 Eh   ::
         :: zero point energy           0.398442533428 Eh   ::
         :: G(RRHO) w/o ZPVE           -0.053965556287 Eh   ::
         :: G(RRHO) contrib.            0.344476977141 Eh   ::
         :::::::::::::::::::::::::::::::::::::::::::::::::::::

           -------------------------------------------------
          | TOTAL ENERGY              -89.390135369660 Eh   |
          | TOTAL ENTHALPY            -88.963160917601 Eh   |
          | TOTAL FREE ENERGY         -89.045658392519 Eh   |
          | GRADIENT NORM               0.000025851809 Eh/α |
          | HOMO-LUMO GAP               1.987993095075 eV   |
           -------------------------------------------------

 * finished run on 2025/07/16 at 11:52:28.518
