   * xtb version 6.7.1 (edcfbbe) compiled by 'albert@albert-system' on 2024-07-22

   ID    Z sym.   atoms
    1    7 N      1, 6, 20, 36
    2    6 C      2-5, 7-19, 21-35
    3    1 H      37-54

          program call               : xtb data2507/gas/2CzPN/2CzPN_gas_S0_crest.xyz --gfn 2 --ohess vtight --parallel 40 --molden --ceasefiles --namespace data2507/gas/2CzPN/2CzPN_gas_S0_finalOpt
          :  Hamiltonian                  GFN2-xTB          :
 * total energy  :   -89.3900996 Eh     change       -0.2880810E-08 Eh
 * total energy  :   -89.3901074 Eh     change       -0.7818271E-05 Eh
 * total energy  :   -89.3901201 Eh     change       -0.1267656E-04 Eh
 * total energy  :   -89.3901039 Eh     change        0.1621141E-04 Eh
 * total energy  :   -89.3901266 Eh     change       -0.2267563E-04 Eh
 * total energy  :   -89.3901311 Eh     change       -0.4480360E-05 Eh
 * total energy  :   -89.3901327 Eh     change       -0.1615771E-05 Eh
 * total energy  :   -89.3901326 Eh     change        0.1210631E-06 Eh
 * total energy  :   -89.3901334 Eh     change       -0.8514485E-06 Eh
 * total energy  :   -89.3901338 Eh     change       -0.4247583E-06 Eh
 * total energy  :   -89.3901341 Eh     change       -0.3149437E-06 Eh
 * total energy  :   -89.3901344 Eh     change       -0.2633603E-06 Eh
 * total energy  :   -89.3901347 Eh     change       -0.2496716E-06 Eh
 * total energy  :   -89.3901349 Eh     change       -0.2184761E-06 Eh
 * total energy  :   -89.3901350 Eh     change       -0.1552917E-06 Eh
 * total energy  :   -89.3901351 Eh     change       -0.6628655E-07 Eh
 * total energy  :   -89.3901352 Eh     change       -0.7595033E-07 Eh
   *** GEOMETRY OPTIMIZATION CONVERGED AFTER 17 ITERATIONS ***

 final structure:
================
54
 xtb: 6.7.1 (edcfbbe)
N            5.93001589604764       -1.82777702981281       -0.87347853713540
C            4.95378311782909       -1.28522708857721       -0.61806314077028
C            3.73602903531488       -0.63853263645989       -0.30560282536147
C            2.52698990048021       -1.24753698563550       -0.62165824073582
C            1.31733579166363       -0.62891941964471       -0.33014073459719
N            0.12204244127931       -1.24570016076216       -0.69157820702133
C           -0.30018194403651       -2.49843356553344       -0.26647248283051
C            0.39736001445778       -3.47814527599529        0.42151654142709
C           -0.28123761074728       -4.63450410962471        0.76082280078159
C           -1.62234211310960       -4.81118480033352        0.43391677253244
C           -2.32573091193541       -3.82902142825933       -0.23573340629024
C           -1.66473693498644       -2.66145801615482       -0.58936624789512
C           -2.08063968361592       -1.45607431068109       -1.25373510741702
C           -3.28250423219863       -1.03046186361097       -1.80052720684128
C           -3.33034727148063        0.21046513805578       -2.40571700467294
C           -2.19158465400537        1.00378877633762       -2.50785093477754
C           -0.98258911742317        0.59701685231452       -1.97570959115183
C           -0.94924027117085       -0.61568621361423       -1.30660478295708
C            1.31856726020752        0.62428931258269        0.32933231916393
N            0.12432466815311        1.24451689351023        0.68837667263630
C           -0.29355478882939        2.49891438664227        0.26412228942409
C            0.40753825518923        3.47704402565075       -0.42251810209529
C           -0.26694542694325        4.63622068760890       -0.76042014141845
C           -1.60748470413861        4.81720265323976       -0.43352182917076
C           -2.31451332073176        3.83654546263266        0.23449610762300
C           -1.65769358711644        2.66619062469622        0.58666987802827
C           -2.07785961634242        1.46161949451020        1.24980804006953
C           -3.28136284156472        1.03944861630661        1.79567620686871
C           -3.33345391363394       -0.20171687345145        2.40002381147272
C           -2.19720100406973       -0.99858714547205        2.50245579804467
C           -0.98662874739469       -0.59525080248350        1.97129868705693
C           -0.94916419322654        0.61760830395944        1.30270913566438
C            2.52949133005573        1.23888691160780        0.62399036266781
C            3.73733324204492        0.62566006819373        0.31148465898868
C            4.95631755234168        1.26814634014002        0.62775121001910
N            5.93350338267650        1.80769549330162        0.88581722676349
H            2.52696282224473       -2.19790152259889       -1.13458902559808
H            1.43340466139512       -3.34900056351927        0.69832830087033
H            0.24198801329838       -5.41431374210750        1.29364164921592
H           -2.11725961637581       -5.72822214906735        0.71593909035250
H           -3.36940482820673       -3.95928711423163       -0.47719968036634
H           -4.15740409816944       -1.66054325374127       -1.75501156914117
H           -4.25880691000258        0.56532235949902       -2.82684333034593
H           -2.24875134051135        1.95517518718601       -3.01476365347584
H           -0.09796630695749        1.20557260009380       -2.08862612773173
H            1.44323272055249        3.34465615093816       -0.69912527754228
H            0.25911734251953        5.41497055832250       -1.29199772266399
H           -2.09905051515952        5.73646460110938       -0.71416445168230
H           -3.35774687165708        3.97017294722489        0.47603285908853
H           -4.15423271640153        1.67233360566848        1.75011260258988
H           -4.26326955869945       -0.55396764009847        2.82034210950396
H           -2.25757264532986       -1.95006577682870        3.00882142967287
H           -0.10393681376043       -1.20651712059159        2.08462270537747
H            2.53128412608017        2.18929650415823        1.13683645178324

          :  Hamiltonian                  GFN2-xTB          :
         :: gradient norm              0.000072223810 Eh/a0 ::
         :: HOMO-LUMO gap              1.988588226105 eV    ::
         :: SCC energy               -91.135764909906 Eh    ::
         :: -> dispersion             -0.089564177767 Eh    ::
         :: repulsion energy           1.745629731577 Eh    ::

    * Orbital Energies and Occupations

         #    Occupation            Energy/Eh            Energy/eV
      -------------------------------------------------------------
         1        2.0000           -0.7102526             -19.3270
       ...           ...                  ...                  ...
        71        2.0000           -0.4378776             -11.9153
        72        2.0000           -0.4357125             -11.8563
        73        2.0000           -0.4344837             -11.8229
        74        2.0000           -0.4331423             -11.7864
        75        2.0000           -0.4325868             -11.7713
        76        2.0000           -0.4320881             -11.7577
        77        2.0000           -0.4306720             -11.7192
        78        2.0000           -0.4191157             -11.4047
        79        2.0000           -0.4183122             -11.3829
        80        2.0000           -0.3962061             -10.7813
        81        2.0000           -0.3898757             -10.6091
        82        2.0000           -0.3840185             -10.4497
        83        2.0000           -0.3805920             -10.3564 (HOMO)
        84                         -0.3075127              -8.3678 (LUMO)
        85                         -0.2849997              -7.7552
        86                         -0.2593199              -7.0565
        87                         -0.2585649              -7.0359
        88                         -0.2405132              -6.5447
        89                         -0.2316812              -6.3044
        90                         -0.2250063              -6.1227
        91                         -0.2230093              -6.0684
        92                         -0.2202436              -5.9931
        93                         -0.2104845              -5.7276
        94                         -0.2005387              -5.4569
       ...                                ...                  ...
       162                          1.1751151              31.9765
      -------------------------------------------------------------
                  HL-Gap            0.0730793 Eh            1.9886 eV

     #   Z          covCN         q      C6AA      α(0)
     1   7 N        0.911    -0.212    25.610     7.319
     2   6 C        1.910     0.114    28.292     8.590
     3   6 C        2.975     0.021    27.525     8.606
     4   6 C        2.929    -0.035    28.878     8.813
     5   6 C        2.910     0.061    26.628     8.462
     6   7 N        2.800    -0.047    22.148     6.990
     7   6 C        3.068     0.049    26.829     8.493
     8   6 C        2.910    -0.049    29.224     8.864
     9   6 C        2.925    -0.031    28.775     8.797
    10   6 C        2.920    -0.037    28.931     8.820
    11   6 C        2.913    -0.030    28.757     8.794
    12   6 C        3.068    -0.013    28.259     8.717
    13   6 C        3.065    -0.014    28.287     8.721
    14   6 C        2.913    -0.031    28.772     8.796
    15   6 C        2.921    -0.037    28.916     8.818
    16   6 C        2.925    -0.030    28.760     8.795
    17   6 C        2.910    -0.047    29.157     8.854
    18   6 C        3.073     0.049    26.837     8.494
    19   6 C        2.910     0.061    26.628     8.462
    20   7 N        2.800    -0.047    22.147     6.990
    21   6 C        3.068     0.049    26.830     8.493
    22   6 C        2.910    -0.049    29.224     8.864
    23   6 C        2.925    -0.031    28.775     8.797
    24   6 C        2.920    -0.037    28.931     8.820
    25   6 C        2.913    -0.030    28.757     8.794
    26   6 C        3.068    -0.013    28.260     8.717
    27   6 C        3.065    -0.014    28.288     8.721
    28   6 C        2.913    -0.031    28.772     8.796
    29   6 C        2.921    -0.037    28.916     8.818
    30   6 C        2.925    -0.030    28.761     8.795
    31   6 C        2.910    -0.047    29.157     8.854
    32   6 C        3.073     0.049    26.837     8.494
    33   6 C        2.929    -0.035    28.877     8.813
    34   6 C        2.975     0.021    27.525     8.606
    35   6 C        1.910     0.114    28.292     8.590
    36   7 N        0.911    -0.212    25.610     7.319
    37   1 H        0.926     0.060     2.200     2.319
    38   1 H        0.926     0.026     2.649     2.545
    39   1 H        0.926     0.035     2.510     2.478
    40   1 H        0.926     0.034     2.524     2.484
    41   1 H        0.926     0.036     2.500     2.472
    42   1 H        0.926     0.036     2.498     2.472
    43   1 H        0.926     0.034     2.524     2.484
    44   1 H        0.926     0.034     2.536     2.490
    45   1 H        0.926     0.023     2.687     2.563
    46   1 H        0.926     0.026     2.649     2.545
    47   1 H        0.926     0.035     2.510     2.478
    48   1 H        0.926     0.034     2.524     2.485
    49   1 H        0.926     0.036     2.500     2.472
    50   1 H        0.926     0.036     2.498     2.472
    51   1 H        0.926     0.034     2.524     2.484
    52   1 H        0.926     0.034     2.537     2.491
    53   1 H        0.926     0.023     2.688     2.564
    54   1 H        0.926     0.060     2.200     2.319

molecular dipole:
                 x           y           z       tot (Debye)
 q only:       -2.087       0.003      -0.003
   full:       -2.719       0.004      -0.003       6.912

 projected vibrational frequencies (cm⁻¹)
eigval :       -0.00    -0.00    -0.00     0.00     0.00     0.00
eigval :       21.77    31.55    38.05    45.00    48.71    53.02
eigval :       87.92    96.76   106.23   108.52   116.09   136.63
eigval :      146.88   163.42   172.27   190.91   191.72   207.65
eigval :      263.21   270.21   276.63   281.48   310.11   312.74
eigval :      353.58   390.52   397.32   401.36   420.35   420.87
eigval :      426.15   432.39   442.51   444.41   480.87   482.65
eigval :      517.15   518.55   529.40   530.40   541.64   542.25
eigval :      549.13   557.34   583.88   588.30   590.81   598.54
eigval :      648.42   656.17   663.23   670.98   676.77   690.95
eigval :      706.61   707.72   709.64   750.81   754.90   760.04
eigval :      770.46   771.66   782.72   782.93   837.07   866.04
eigval :      869.45   878.03   878.66   881.17   891.53   895.24
eigval :      899.60   905.19   905.67   906.96   907.10   924.02
eigval :      924.27   925.08   925.32   954.67  1012.04  1013.10
eigval :     1070.16  1071.18  1072.39  1075.73  1077.68  1117.23
eigval :     1138.90  1152.11  1152.22  1169.44  1171.72  1180.04
eigval :     1180.90  1182.84  1183.56  1220.40  1222.38  1233.72
eigval :     1235.36  1236.34  1260.09  1292.52  1294.67  1298.09
eigval :     1299.83  1311.62  1327.27  1358.01  1359.27  1360.80
eigval :     1361.11  1381.28  1406.25  1426.39  1427.60  1427.81
eigval :     1428.63  1472.24  1473.98  1485.25  1486.62  1486.71
eigval :     1501.19  1552.76  1578.52  1578.67  1592.26  1592.63
eigval :     1600.29  1600.92  1613.82  1614.94  2373.85  2374.34
eigval :     3076.87  3077.01  3081.35  3081.41  3084.44  3084.58
eigval :     3085.66  3086.07  3092.05  3092.29  3094.23  3094.38
eigval :     3098.13  3098.57  3100.22  3100.40  3101.75  3102.21

   temp. (K)  partition function   enthalpy   heat capacity  entropy
                                   cal/mol     cal/K/mol   cal/K/mol   J/K/mol
 298.15  VIB  0.525E+11            15531.622    101.460     94.245
         ROT  0.106E+08              888.752      2.981     35.127
         INT  0.557E+18            16420.374    104.441    129.373
         TR   0.950E+28             1481.254      4.968     44.237
         TOT                       17901.6279   109.4088   173.6097   726.3828

       T/K    H(0)-H(T)+PV         H(T)/Eh          T*S/Eh         G(T)/Eh
   ------------------------------------------------------------------------
    298.15    0.285281E-01    0.426975E+00    0.824876E-01    0.344488E+00
   ------------------------------------------------------------------------

         :::::::::::::::::::::::::::::::::::::::::::::::::::::
         ::                  THERMODYNAMIC                  ::
         :::::::::::::::::::::::::::::::::::::::::::::::::::::
         :: total free energy         -89.045647344677 Eh   ::
         ::.................................................::
         :: total energy              -89.390135178330 Eh   ::
         :: zero point energy           0.398447325383 Eh   ::
         :: G(RRHO) w/o ZPVE           -0.053959491730 Eh   ::
         :: G(RRHO) contrib.            0.344487833653 Eh   ::
         :::::::::::::::::::::::::::::::::::::::::::::::::::::

           -------------------------------------------------
          | TOTAL ENERGY              -89.390135178330 Eh   |
          | TOTAL ENTHALPY            -88.963159793056 Eh   |
          | TOTAL FREE ENERGY         -89.045647344677 Eh   |
          | GRADIENT NORM               0.000072270055 Eh/α |
          | HOMO-LUMO GAP               1.988590299680 eV   |
           -------------------------------------------------

 * finished run on 2025/07/16 at 11:54:30.572
