   * xtb version 6.7.1 (edcfbbe) compiled by 'albert@albert-system' on 2024-07-22

   ID    Z sym.   atoms
    1    6 C      1-4, 6-22, 24-28, 31-35, 37-53, 55-63, 65-69
    2    7 N      5, 23, 29, 30, 36, 54
    3    8 O      64
    4    1 H      70-107

          program call               : xtb data2507/gas/2ICz-OXD/2ICz-OXD.xyz --gfn 2 --ohess vtight --parallel 40 --molden --ceasefiles --namespace data2507/gas/2ICz-OXD/2ICz-OXD_gas_S0_preOpt
          :  Hamiltonian                  GFN2-xTB          :
 * total energy  :  -173.8579470 Eh     change       -0.4155879E-08 Eh
 * total energy  :  -173.8861131 Eh     change       -0.2816606E-01 Eh
 * total energy  :  -173.8949644 Eh     change       -0.8851341E-02 Eh
 * total energy  :  -173.8982668 Eh     change       -0.3302394E-02 Eh
 * total energy  :  -173.9009461 Eh     change       -0.2679285E-02 Eh
 * total energy  :  -173.9028345 Eh     change       -0.1888373E-02 Eh
 * total energy  :  -173.9042848 Eh     change       -0.1450342E-02 Eh
 * total energy  :  -173.9053475 Eh     change       -0.1062675E-02 Eh
 * total energy  :  -173.9060938 Eh     change       -0.7463317E-03 Eh
 * total energy  :  -173.9066413 Eh     change       -0.5475083E-03 Eh
 * total energy  :  -173.9102174 Eh     change       -0.5938119E-06 Eh
 * total energy  :  -173.9102180 Eh     change       -0.6321229E-06 Eh
 * total energy  :  -173.9102188 Eh     change       -0.7385780E-06 Eh
 * total energy  :  -173.9102196 Eh     change       -0.8884143E-06 Eh
 * total energy  :  -173.9102206 Eh     change       -0.9409039E-06 Eh
 * total energy  :  -173.9102214 Eh     change       -0.8385024E-06 Eh
 * total energy  :  -173.9102221 Eh     change       -0.7134703E-06 Eh
 * total energy  :  -173.9102229 Eh     change       -0.7398799E-06 Eh
 * total energy  :  -173.9102229 Eh     change       -0.6155858E-08 Eh
   *** GEOMETRY OPTIMIZATION CONVERGED AFTER 68 ITERATIONS ***

 final structure:
================
107
 xtb: 6.7.1 (edcfbbe)
C           11.92077356924336        3.29344620161829       -2.05173147548334
C           11.82518350777323        1.91218820946940       -2.08755356869576
C           10.67483374549410        1.28136382076026       -1.65151650782711
C            9.61121533654623        2.03524312806854       -1.16447926988952
N            8.44397265323736        1.39790678004929       -0.71769717760075
C            7.15946909973009        1.70343566065756       -1.10830387487592
C            6.73269352782742        2.64698278709982       -2.03177195707161
C            5.37420185735777        2.79245540296285       -2.22703831967373
C            4.46173339693442        2.03027060522720       -1.50247311754557
C            4.88216604019008        1.06913601999436       -0.60586457000995
C            6.24703418429867        0.86047620107074       -0.42738153587146
C            7.04187301265780       -0.01775302366594        0.38982662622539
C            8.38978922834874        0.38044768169674        0.21035414699523
C            9.45145677261014       -0.14043218326820        0.95060543768288
C            9.18699174631548       -1.10298210173424        1.89665642625120
C            7.88396087930932       -1.57493176369580        2.05174837620829
C            7.33142497727967       -2.57567711461030        2.91943609498284
C            7.87916000370294       -3.40307722724843        3.89109445663946
C            7.05389784126775       -4.30301555900284        4.53503149771303
C            5.70379436728410       -4.39729829435707        4.20758990574965
C            5.13740012827531       -3.58507575218583        3.24272716207137
C            5.95577599002111       -2.65919352087491        2.61503779584158
N            5.65493454439612       -1.74640866419537        1.61504300160910
C            4.47068380074572       -1.78392295427094        0.87321424498243
C            3.23782406767518       -1.65285785609206        1.50976996335317
C            2.07148022453529       -1.71712802371385        0.77620293194025
C            2.12221468155664       -1.91879999105678       -0.60308103246707
C            0.91220897261229       -1.99261066346228       -1.38288603672055
N            0.81981587881124       -2.20273913133848       -2.66495584756635
N           -0.48004760819294       -2.20196857915688       -2.97731386207046
C           -1.14485333233269       -1.98992984402026       -1.87741219158935
C           -2.57652168318603       -1.90335288557379       -1.73497306735695
C           -3.38685210699532       -2.08986053316613       -2.85654688574841
C           -4.75714905541443       -2.00121661693090       -2.74085653312012
C           -5.33764771374492       -1.71899468170830       -1.50409602185112
N           -6.72736428535430       -1.64127643258457       -1.37530071179509
C           -7.58104075600032       -2.70058819890532       -1.64454190220336
C           -7.32459980620026       -3.90063177954376       -2.28883144587164
C           -8.36523043541816       -4.80299130153922       -2.40833071104913
C           -9.62825988043713       -4.52809674311719       -1.89032865834815
C           -9.87988205492861       -3.34663635974295       -1.22214678607484
C           -8.85000622030598       -2.42403773361767       -1.09181776386132
C           -8.74892764325708       -1.14377560872311       -0.45077244251322
C           -9.67585239002784       -0.39556618608153        0.27424237587769
C           -9.29813591076469        0.81008296713395        0.81803871215509
C           -8.00693106102138        1.27922219115043        0.57508173802593
C           -7.06076714357023        0.58645040567998       -0.21986452663607
C           -5.93186241570933        1.46660976224171       -0.36699435991017
C           -4.75307917609445        1.43707906135102       -1.10738709145777
C           -3.86761514894474        2.49040856503670       -1.00113212077270
C           -4.13239968407910        3.57777919632228       -0.17267964900667
C           -5.31789040901290        3.66239497512539        0.52914655007381
C           -6.22513688018761        2.62035288934727        0.40118330670832
N           -7.47424464447652        2.48931127717544        0.96529853613190
C           -8.11211544932496        3.43919672894294        1.77714074922633
C           -8.21806142300695        4.76161594212038        1.35721657738334
C           -8.84141768607446        5.69404463235919        2.16572047365794
C           -9.37117996368912        5.31615635163841        3.38833084021792
C           -9.27235851163619        3.99881350704616        3.80441919051522
C           -8.64165035194581        3.06152775577774        3.00753065079775
C           -7.42859244322337       -0.68795952237768       -0.66232036557408
C           -4.52764000289196       -1.53891965763506       -0.38262043215721
C           -3.15743304225285       -1.62944484681793       -0.49653754821747
O           -0.31142699234177       -1.84713907210371       -0.81856703535934
C            3.35734359575945       -2.05247127841291       -1.24076386358972
C            4.52075529582442       -1.98592147037288       -0.50774365557372
C            6.81502040102937       -1.07743362959219        1.27346620223927
C            9.71112410125092        3.42257401690098       -1.12275073907946
C           10.86147333718762        4.04504264992902       -1.57092431574227
H           12.81882073872485        3.78290255602416       -2.39708431051815
H           12.64777083031637        1.32259384956477       -2.46438411375940
H           10.58807075641155        0.20586254953382       -1.69508438211273
H            7.44222629508797        3.24819628366963       -2.58002980944674
H            5.01370856951671        3.51963547011436       -2.93919805687318
H            3.40409249559160        2.19199765148198       -1.64756071804106
H            4.15408653878762        0.50954210238479       -0.04365443408971
H           10.45281469537451        0.23292077096060        0.80234608045076
H            9.97888472784132       -1.50039622150756        2.51216462380911
H            8.92979303819753       -3.34270892653906        4.13164735673321
H            7.45868987549228       -4.95250997026912        5.29691952469591
H            5.08572138596269       -5.12299856890681        4.71523046841836
H            4.09403901213182       -3.68228801192182        2.98368486314862
H            3.20465466442947       -1.47581878157551        2.57424594092336
H            1.11530078704432       -1.60451149487349        1.26481735069525
H           -2.91689226304681       -2.29270949706839       -3.80547847862215
H           -5.38833821026619       -2.12111322163067       -3.60819364661658
H           -6.34498093417927       -4.13354669617184       -2.67764359182312
H           -8.19293012241278       -5.74274198436533       -2.91170398967109
H          -10.41648449382090       -5.25697251091048       -2.00698319068673
H          -10.85412898274984       -3.14113547810782       -0.80501174372868
H          -10.67850810737745       -0.76946351228049        0.41121662009091
H           -9.99260534058097        1.40211500320477        1.39365747164696
H           -4.53320764831020        0.62130089143032       -1.77501612724145
H           -2.95104610980388        2.47031943469882       -1.57178971831731
H           -3.40863815102549        4.37523621197975       -0.09293567396876
H           -5.53407665498912        4.51332622604968        1.15742844606884
H           -7.82330873251784        5.04686309605765        0.39353343853427
H           -8.92124649799831        6.71908166526273        1.83527209822126
H           -9.86053326677998        6.04630748447805        4.01499896977269
H           -9.68180227994817        3.70050040342869        4.75817863892908
H           -8.54584571122465        2.03710738539479        3.33554224549291
H           -4.98494743405844       -1.32430322614149        0.57122994676023
H           -2.52924490039199       -1.48967964799616        0.36985487374719
H            3.37496547470285       -2.21074989267677       -2.30674522931429
H            5.48017643846532       -2.08715640380640       -0.99127682734341
H            8.89143384984854        4.00307955916083       -0.72648919976943
H           10.93400121234539        5.12201786446905       -1.53656870972012

          :  Hamiltonian                  GFN2-xTB          :
         :: gradient norm              0.000055754542 Eh/a0 ::
         :: HOMO-LUMO gap              1.960169974944 eV    ::
         :: SCC energy              -177.073458949340 Eh    ::
         :: -> dispersion             -0.161336728548 Eh    ::
         :: repulsion energy           3.163236063425 Eh    ::

    * Orbital Energies and Occupations

         #    Occupation            Energy/Eh            Energy/eV
      -------------------------------------------------------------
         1        2.0000           -0.7659646             -20.8430
       ...           ...                  ...                  ...
       149        2.0000           -0.4106839             -11.1753
       150        2.0000           -0.4102277             -11.1629
       151        2.0000           -0.4092548             -11.1364
       152        2.0000           -0.3971707             -10.8076
       153        2.0000           -0.3921340             -10.6705
       154        2.0000           -0.3913197             -10.6484
       155        2.0000           -0.3845796             -10.4649
       156        2.0000           -0.3840775             -10.4513
       157        2.0000           -0.3831303             -10.4255
       158        2.0000           -0.3618836              -9.8474
       159        2.0000           -0.3605961              -9.8123
       160        2.0000           -0.3565090              -9.7011
       161        2.0000           -0.3556593              -9.6780 (HOMO)
       162                         -0.2836244              -7.7178 (LUMO)
       163                         -0.2604590              -7.0875
       164                         -0.2487314              -6.7683
       165                         -0.2478150              -6.7434
       166                         -0.2405714              -6.5463
       167                         -0.2403190              -6.5394
       168                         -0.2349279              -6.3927
       169                         -0.2347878              -6.3889
       170                         -0.2341943              -6.3728
       171                         -0.2338131              -6.3624
       172                         -0.2337114              -6.3596
       ...                                ...                  ...
       314                          0.7647850              20.8109
      -------------------------------------------------------------
                  HL-Gap            0.0720349 Eh            1.9602 eV

     #   Z          covCN         q      C6AA      α(0)
     1   6 C        2.919    -0.033    28.811     8.802
     2   6 C        2.920    -0.028    28.695     8.784
     3   6 C        2.922    -0.041    29.026     8.835
     4   6 C        2.914     0.065    26.538     8.447
     5   7 N        2.803    -0.041    22.041     6.973
     6   6 C        3.080     0.046    26.894     8.502
     7   6 C        2.910    -0.051    29.272     8.872
     8   6 C        2.923    -0.033    28.833     8.806
     9   6 C        2.919    -0.041    29.008     8.832
    10   6 C        2.914    -0.038    28.943     8.822
    11   6 C        3.062    -0.017    28.376     8.735
    12   6 C        3.054    -0.038    28.884     8.814
    13   6 C        3.080     0.044    26.938     8.509
    14   6 C        2.912    -0.061    29.506     8.907
    15   6 C        2.916    -0.036    28.898     8.815
    16   6 C        3.068    -0.027    28.615     8.771
    17   6 C        3.068    -0.014    28.302     8.723
    18   6 C        2.913    -0.034    28.853     8.808
    19   6 C        2.920    -0.040    28.995     8.830
    20   6 C        2.924    -0.035    28.867     8.811
    21   6 C        2.910    -0.051    29.265     8.871
    22   6 C        3.075     0.044    26.929     8.508
    23   7 N        2.803    -0.043    22.060     6.976
    24   6 C        2.915     0.074    26.345     8.417
    25   6 C        2.920    -0.041    29.027     8.835
    26   6 C        2.923    -0.026    28.664     8.780
    27   6 C        2.975    -0.007    28.202     8.711
    28   6 C        3.171     0.214    23.179     7.865
    29   7 N        2.048    -0.197    26.008     7.565
    30   7 N        2.048    -0.198    26.014     7.566
    31   6 C        3.171     0.214    23.180     7.865
    32   6 C        2.975    -0.007    28.201     8.711
    33   6 C        2.925    -0.028    28.696     8.785
    34   6 C        2.920    -0.039    28.964     8.825
    35   6 C        2.915     0.074    26.348     8.417
    36   7 N        2.803    -0.042    22.054     6.975
    37   6 C        3.075     0.044    26.929     8.508
    38   6 C        2.910    -0.051    29.264     8.870
    39   6 C        2.925    -0.034    28.859     8.810
    40   6 C        2.920    -0.040    28.992     8.830
    41   6 C        2.913    -0.034    28.854     8.808
    42   6 C        3.068    -0.015    28.305     8.724
    43   6 C        3.068    -0.027    28.614     8.771
    44   6 C        2.916    -0.036    28.896     8.815
    45   6 C        2.912    -0.061    29.509     8.908
    46   6 C        3.080     0.043    26.942     8.510
    47   6 C        3.054    -0.038    28.888     8.815
    48   6 C        3.062    -0.017    28.377     8.736
    49   6 C        2.914    -0.038    28.951     8.823
    50   6 C        2.919    -0.041    29.023     8.834
    51   6 C        2.923    -0.034    28.848     8.808
    52   6 C        2.910    -0.052    29.280     8.873
    53   6 C        3.079     0.045    26.897     8.503
    54   7 N        2.803    -0.042    22.049     6.974
    55   6 C        2.914     0.065    26.539     8.448
    56   6 C        2.922    -0.041    29.029     8.836
    57   6 C        2.920    -0.028    28.692     8.784
    58   6 C        2.919    -0.033    28.811     8.802
    59   6 C        2.920    -0.028    28.697     8.785
    60   6 C        2.922    -0.041    29.030     8.836
    61   6 C        3.061     0.043    26.983     8.518
    62   6 C        2.921    -0.036    28.904     8.816
    63   6 C        2.922    -0.024    28.612     8.772
    64   8 O        1.722    -0.229    17.790     5.695
    65   6 C        2.924    -0.026    28.646     8.777
    66   6 C        2.921    -0.034    28.840     8.807
    67   6 C        3.060     0.043    26.984     8.519
    68   6 C        2.922    -0.041    29.031     8.836
    69   6 C        2.920    -0.028    28.694     8.784
    70   1 H        0.926     0.036     2.504     2.475
    71   1 H        0.926     0.037     2.488     2.467
    72   1 H        0.926     0.042     2.428     2.436
    73   1 H        0.926     0.028     2.617     2.530
    74   1 H        0.926     0.030     2.592     2.517
    75   1 H        0.926     0.026     2.639     2.540
    76   1 H        0.926     0.024     2.667     2.554
    77   1 H        0.926     0.029     2.606     2.525
    78   1 H        0.926     0.033     2.541     2.493
    79   1 H        0.926     0.030     2.579     2.511
    80   1 H        0.926     0.028     2.614     2.528
    81   1 H        0.926     0.029     2.605     2.524
    82   1 H        0.926     0.026     2.642     2.542
    83   1 H        0.926     0.049     2.337     2.391
    84   1 H        0.926     0.048     2.340     2.392
    85   1 H        0.926     0.066     2.135     2.285
    86   1 H        0.926     0.052     2.292     2.367
    87   1 H        0.926     0.028     2.618     2.530
    88   1 H        0.926     0.030     2.592     2.518
    89   1 H        0.926     0.028     2.610     2.526
    90   1 H        0.926     0.030     2.580     2.512
    91   1 H        0.926     0.033     2.540     2.492
    92   1 H        0.926     0.028     2.608     2.526
    93   1 H        0.926     0.026     2.648     2.545
    94   1 H        0.926     0.026     2.646     2.544
    95   1 H        0.926     0.029     2.605     2.524
    96   1 H        0.926     0.027     2.624     2.533
    97   1 H        0.926     0.042     2.427     2.436
    98   1 H        0.926     0.037     2.489     2.467
    99   1 H        0.926     0.036     2.504     2.474
   100   1 H        0.926     0.037     2.491     2.468
   101   1 H        0.926     0.041     2.434     2.440
   102   1 H        0.926     0.047     2.363     2.404
   103   1 H        0.926     0.049     2.334     2.389
   104   1 H        0.926     0.066     2.130     2.283
   105   1 H        0.926     0.050     2.317     2.380
   106   1 H        0.926     0.041     2.431     2.438
   107   1 H        0.926     0.037     2.492     2.469

molecular dipole:
                 x           y           z       tot (Debye)
 q only:        0.139       0.944       0.718
   full:        0.033       1.143       1.273       4.351

 projected vibrational frequencies (cm⁻¹)
eigval :       -0.00    -0.00    -0.00    -0.00     0.00     0.00
eigval :        3.69     5.27     9.64    15.88    16.38    25.69
eigval :       33.31    34.96    35.90    51.64    55.57    58.12
eigval :       61.26    65.10    66.74    70.60    74.30    85.05
eigval :       91.28    96.11   101.15   102.34   117.32   127.19
eigval :      133.40   150.05   153.89   155.67   159.19   171.43
eigval :      177.93   214.74   218.88   222.20   227.81   230.65
eigval :      235.57   244.29   245.11   263.62   265.38   285.85
eigval :      292.53   294.58   321.71   322.33   342.82   350.32
eigval :      376.71   376.86   378.96   380.14   381.44   381.89
eigval :      385.02   390.33   391.84   398.11   412.47   420.08
eigval :      420.81   426.95   441.24   443.41   452.25   455.22
eigval :      472.84   475.57   484.36   493.43   500.06   501.53
eigval :      502.81   505.98   521.51   523.76   536.18   536.32
eigval :      554.34   554.41   568.19   570.39   582.87   584.03
eigval :      591.57   591.95   595.48   596.96   606.71   606.93
eigval :      612.28   613.20   624.51   626.11   645.62   649.66
eigval :      673.50   673.65   673.99   675.20   675.27   679.50
eigval :      688.11   688.29   697.96   700.10   700.22   705.67
eigval :      708.29   713.77   722.70   722.89   757.33   759.57
eigval :      771.81   773.47   773.87   774.66   775.71   776.80
eigval :      819.74   819.76   822.43   823.80   841.91   842.08
eigval :      866.14   866.60   869.96   870.85   874.22   876.33
eigval :      879.38   879.61   882.48   882.68   895.75   895.87
eigval :      900.62   901.48   903.93   904.56   908.84   909.45
eigval :      914.51   915.29   915.96   918.62   920.91   921.33
eigval :      921.89   923.14   923.79   925.47   929.70   933.30
eigval :      933.38   933.54   934.52   934.59   972.15   974.39
eigval :      988.51   990.03  1006.71  1008.64  1011.46  1019.29
eigval :     1071.94  1071.95  1073.64  1073.98  1079.55  1079.69
eigval :     1082.25  1086.35  1086.57  1097.76  1103.44  1104.26
eigval :     1118.15  1118.16  1126.21  1127.09  1140.68  1140.76
eigval :     1153.45  1153.48  1172.48  1173.02  1178.26  1178.50
eigval :     1180.69  1180.99  1181.10  1181.32  1183.94  1184.76
eigval :     1186.70  1190.82  1192.36  1207.84  1208.73  1226.79
eigval :     1226.96  1242.28  1242.35  1256.12  1256.77  1260.04
eigval :     1261.63  1274.50  1274.67  1281.41  1288.69  1289.01
eigval :     1305.44  1310.08  1310.91  1314.02  1316.26  1317.98
eigval :     1318.03  1323.43  1325.18  1349.51  1349.81  1362.39
eigval :     1363.03  1364.64  1364.68  1375.22  1376.05  1397.34
eigval :     1397.72  1406.14  1406.97  1411.29  1413.48  1429.40
eigval :     1429.81  1434.11  1434.18  1436.13  1436.16  1465.64
eigval :     1465.81  1469.37  1471.98  1479.23  1479.36  1483.15
eigval :     1483.40  1485.39  1485.44  1536.64  1538.91  1559.92
eigval :     1562.51  1569.57  1569.75  1575.70  1575.95  1582.90
eigval :     1582.98  1587.68  1587.87  1589.79  1590.05  1595.89
eigval :     1595.94  1598.03  1598.23  1606.94  1607.10  1609.56
eigval :     1609.77  3076.84  3077.37  3077.68  3078.80  3079.48
eigval :     3079.49  3081.61  3081.63  3082.38  3082.88  3084.67
eigval :     3085.63  3088.64  3089.29  3089.59  3090.49  3090.57
eigval :     3091.29  3091.31  3092.35  3094.06  3094.30  3094.74
eigval :     3095.43  3096.20  3096.39  3097.06  3098.83  3099.60
eigval :     3099.72  3099.85  3101.93  3102.00  3103.01  3116.18
eigval :     3119.43  3129.62  3130.37

   temp. (K)  partition function   enthalpy   heat capacity  entropy
                                   cal/mol     cal/K/mol   cal/K/mol   J/K/mol
 298.15  VIB  0.117E+26            30981.168    197.445    194.946
         ROT  0.363E+09              888.752      2.981     42.148
         INT  0.423E+34            31869.920    200.426    237.093
         TR   0.254E+29             1481.254      4.968     46.190
         TOT                       33351.1744   205.3943   283.2830  1185.2560

       T/K    H(0)-H(T)+PV         H(T)/Eh          T*S/Eh         G(T)/Eh
   ------------------------------------------------------------------------
    298.15    0.531485E-01    0.862792E+00    0.134597E+00    0.728195E+00
   ------------------------------------------------------------------------

         :::::::::::::::::::::::::::::::::::::::::::::::::::::
         ::                  THERMODYNAMIC                  ::
         :::::::::::::::::::::::::::::::::::::::::::::::::::::
         :: total free energy        -173.182027992359 Eh   ::
         ::.................................................::
         :: total energy             -173.910222885914 Eh   ::
         :: zero point energy           0.809643302270 Eh   ::
         :: G(RRHO) w/o ZPVE           -0.081448408714 Eh   ::
         :: G(RRHO) contrib.            0.728194893556 Eh   ::
         :::::::::::::::::::::::::::::::::::::::::::::::::::::

           -------------------------------------------------
          | TOTAL ENERGY             -173.910222885914 Eh   |
          | TOTAL ENTHALPY           -173.047431104184 Eh   |
          | TOTAL FREE ENERGY        -173.182027992359 Eh   |
          | GRADIENT NORM               0.000055745887 Eh/α |
          | HOMO-LUMO GAP               1.960170171910 eV   |
           -------------------------------------------------

 * finished run on 2025/09/11 at 18:45:34.263
