   * xtb version 6.7.1 (edcfbbe) compiled by 'albert@albert-system' on 2024-07-22

   ID    Z sym.   atoms
    1    6 C      1-4, 6-22, 24-28, 31-35, 37-53, 55-63, 65-69
    2    7 N      5, 23, 29, 30, 36, 54
    3    8 O      64
    4    1 H      70-107

          program call               : xtb data2507/gas/2ICz-OXD/2ICz-OXD_gas_T1_crest.xyz --gfn 2 --spinpol --tblite --uhf 2 --ohess vtight --parallel 40 --molden --ceasefiles --namespace data2507/gas/2ICz-OXD/2ICz-OXD_gas_T1_finalOpt
 * total energy  :  -173.8283095 Eh     change       -0.4776663E-07 Eh
 * total energy  :  -173.8283166 Eh     change       -0.7071279E-05 Eh
 * total energy  :  -173.8283209 Eh     change       -0.4317636E-05 Eh
 * total energy  :  -173.8283219 Eh     change       -0.1030538E-05 Eh
 * total energy  :  -173.8283237 Eh     change       -0.1729408E-05 Eh
 * total energy  :  -173.8283261 Eh     change       -0.2437892E-05 Eh
 * total energy  :  -173.8283292 Eh     change       -0.3081667E-05 Eh
 * total energy  :  -173.8283312 Eh     change       -0.2051861E-05 Eh
 * total energy  :  -173.8283335 Eh     change       -0.2285194E-05 Eh
 * total energy  :  -173.8283348 Eh     change       -0.1274540E-05 Eh
 * total energy  :  -173.8283421 Eh     change       -0.5804728E-06 Eh
 * total energy  :  -173.8283433 Eh     change       -0.1213673E-05 Eh
 * total energy  :  -173.8283446 Eh     change       -0.1312600E-05 Eh
 * total energy  :  -173.8283463 Eh     change       -0.1636797E-05 Eh
 * total energy  :  -173.8283471 Eh     change       -0.8674342E-06 Eh
 * total energy  :  -173.8283473 Eh     change       -0.1637875E-06 Eh
 * total energy  :  -173.8283480 Eh     change       -0.6969519E-06 Eh
 * total energy  :  -173.8283482 Eh     change       -0.1580995E-06 Eh
 * total energy  :  -173.8283482 Eh     change       -0.4275898E-07 Eh
   *** GEOMETRY OPTIMIZATION CONVERGED AFTER 25 ITERATIONS ***

 final structure:
================
107
 xtb: 6.7.1 (edcfbbe)
C           12.01581778202184        3.15639826417314       -2.60001966452869
C           11.90453398762104        1.78407582385829       -2.44930684774569
C           10.75507168588617        1.23253158766885       -1.91452793749837
C            9.70856578979926        2.05916185568368       -1.51678285995411
N            8.54213758966785        1.50176052732230       -0.97056746617411
C            7.25457202462957        1.76520585478222       -1.37811162733668
C            6.81927569172462        2.58417093334706       -2.41098231274164
C            5.45923136080894        2.71736667581163       -2.59945562188502
C            4.55220336263914        2.06552561553388       -1.76550776404657
C            4.97876650309126        1.22589746242919       -0.75844767942456
C            6.34616473250002        1.02921744526180       -0.57608768656702
C            7.14562270360275        0.26115447969589        0.33766003504435
C            8.49443632067087        0.62025863014842        0.08776932244633
C            9.56209183622840        0.20366743288649        0.88147742033185
C            9.30469614175366       -0.61066525030121        1.96423540767204
C            8.00483938279515       -1.04506127085005        2.20106828043667
C            7.45639748344110       -1.90365889094722        3.21423671113587
C            8.00796812495193       -2.57799097027521        4.29336895816330
C            7.18257883082220       -3.37142368412614        5.06907143928739
C            5.83214084409006       -3.51274285554283        4.76446496581313
C            5.26228014966686       -2.85302184435874        3.68984045381008
C            6.07852060488853       -2.02903312893759        2.93085093726069
N            5.77463979072689       -1.28021456575994        1.80375394218385
C            4.57393531058597       -1.39342464321326        1.10187520555226
C            3.34541971827320       -1.18313773317528        1.74918869000728
C            2.17028223800688       -1.32584097410213        1.06472100694663
C            2.17426302932073       -1.71070433304605       -0.30128394837035
C            0.98150056859426       -1.87177952712841       -1.01439424149365
N            0.85722723963267       -2.22892926971960       -2.30014954266898
N           -0.40002167349921       -2.27654820512615       -2.59492399039031
C           -1.10762759421962       -1.95128504512927       -1.50400981794545
C           -2.50113508222638       -1.88922070101045       -1.39760536288236
C           -3.31198735279854       -2.18594686977864       -2.52467297779803
C           -4.67387471235329       -2.13518093550578       -2.43076893498843
C           -5.29049000652186       -1.76459760610403       -1.22231847627414
N           -6.68133566864308       -1.73752513764462       -1.11304895568288
C           -7.49281761344846       -2.83675008784828       -1.35043833794389
C           -7.17254475865830       -4.06745648913783       -1.90195773978185
C           -8.18048783421590       -5.01003438603537       -2.00357312676654
C           -9.47045403499050       -4.74414213314624       -1.55423355097121
C           -9.78546969518352       -3.52997359251484       -0.97192120475937
C           -8.79157868263736       -2.56858767607371       -0.86462793189994
C           -8.75234626283516       -1.24681446186427       -0.30232274218339
C           -9.72344896940272       -0.48830747956806        0.34280706504196
C           -9.40212237208518        0.76636720445676        0.81650655898949
C           -8.12237091176950        1.26512133135762        0.57785945850967
C           -7.12638740034228        0.55498334579370       -0.13906980900146
C           -6.03315258086856        1.46817913933160       -0.32630004930592
C           -4.83430184353985        1.43237206833068       -1.03574119913011
C           -3.99974863200057        2.52930892928130       -0.99423428595148
C           -4.33223482743680        3.66653872984301       -0.25988392911901
C           -5.53567911881732        3.75286641595457        0.40910648615939
C           -6.39430587876110        2.66404208319224        0.34419895174050
N           -7.65001953580053        2.52222646427486        0.88873157786450
C           -8.35166933501356        3.50381126414650        1.60547288861981
C           -8.50346845351019        4.78203575382329        1.07707537783114
C           -9.19099927472344        5.74583996305698        1.79131559371417
C           -9.73879343176937        5.44215463877155        3.02662813129262
C           -9.59373840553623        4.16828410281214        3.55059145782009
C           -8.89939627456669        3.20066334511956        2.84836625810892
C           -7.43511153057196       -0.76261301896728       -0.50240093374461
C           -4.49668121717106       -1.45992643088729       -0.10213821001861
C           -3.13471193230005       -1.52945081610968       -0.17959256483852
O           -0.26186360510913       -1.67841084901629       -0.44928839573382
C            3.42188820788440       -1.92998752824924       -0.94283805208678
C            4.58978100780830       -1.76451918480973       -0.25661992054720
C            6.92394038038748       -0.66378838837266        1.36668942567318
C            9.82397790974177        3.43810360906963       -1.66244994552956
C           10.97348580194499        3.97967517903989       -2.20757557021702
H           12.91301489209835        3.58330344198776       -3.02192070136918
H           12.71372374177654        1.13854975644870       -2.75692525487536
H           10.65538492202715        0.16208207336041       -1.81264713205116
H            7.52416366626910        3.09939187565842       -3.04588048696615
H            5.09163453564787        3.34762745946696       -3.39533554526801
H            3.49398573607763        2.21674371126523       -1.91508449806478
H            4.25738103635332        0.74700170563254       -0.11913299203698
H           10.56360237461071        0.54450816172901        0.66971577036675
H           10.10361143442581       -0.91695683659321        2.62127413673723
H            9.06003779938882       -2.48722370822905        4.51732491503024
H            7.59118320326376       -3.90032580450266        5.91717070926110
H            5.21596935846115       -4.15497571585828        5.37576303180173
H            4.21960352051153       -2.98859231419830        3.44829827013433
H            3.34331772272412       -0.86658470460258        2.78212839816629
H            1.22368184544368       -1.14041253337283        1.54832759481854
H           -2.81979992210256       -2.44256287639439       -3.44865750716559
H           -5.29168431894164       -2.33723364184583       -3.29334578864410
H           -6.17046408559559       -4.29190061418065       -2.23257804538034
H           -7.95885237548720       -5.97395505720367       -2.43649494383451
H          -10.23145960425345       -5.50383410350952       -1.65271550213951
H          -10.78100907778001       -3.33327260037938       -0.60385136483955
H          -10.71767420099660       -0.88541102407046        0.47546516602917
H          -10.13468373489803        1.36944206384604        1.33001154369059
H           -4.56097269840157        0.57385385006848       -1.62476486172405
H           -3.06802846214720        2.50542360533484       -1.53889947147735
H           -3.64471902533851        4.49855469070986       -0.22748907729313
H           -5.80310273254937        4.63865642300552        0.96531938286587
H           -8.09365693424110        5.00748589381030        0.10390945000557
H           -9.30650725086672        6.73640291697405        1.37709405740847
H          -10.27808063415415        6.19631634189174        3.57946899304463
H          -10.01685773232391        3.92835397640346        4.51473809648887
H           -8.76733762639514        2.21134734792851        3.26073388588751
H           -4.98265496873653       -1.18878502349333        0.82351278329143
H           -2.52108854806164       -1.31723740618442        0.68179819564964
H            3.41360843368588       -2.23351423942985       -1.97674674699257
H            5.54118754105550       -1.93359188633003       -0.73840780465094
H            9.01760674028088        4.07705461886139       -1.33483198686446
H           11.05858561299123        5.05043879612287       -2.31877559140000

 projected vibrational frequencies (cm⁻¹)
eigval :       -0.00    -0.00    -0.00    -0.00     0.00     0.00
eigval :        4.46     5.60     8.80    15.13    16.41    25.68
eigval :       33.60    35.50    35.72    53.00    55.71    57.95
eigval :       61.49    65.61    66.66    70.21    79.78    89.02
eigval :       91.19    99.20   106.43   114.49   119.12   127.48
eigval :      132.66   148.88   152.90   153.45   159.61   166.99
eigval :      170.08   213.37   217.57   221.28   225.35   227.87
eigval :      234.64   241.36   243.24   259.71   261.96   283.21
eigval :      290.86   291.53   312.34   321.57   322.04   342.66
eigval :      362.94   377.86   378.10   380.22   380.33   382.08
eigval :      382.75   383.61   391.04   392.50   404.30   419.83
eigval :      420.27   424.89   435.83   438.95   444.61   451.28
eigval :      460.04   463.17   478.02   479.68   482.04   497.14
eigval :      497.23   507.74   515.85   517.00   535.17   535.51
eigval :      542.97   553.37   553.40   566.90   569.41   578.42
eigval :      580.15   589.72   589.87   594.16   595.93   603.73
eigval :      603.89   609.62   611.00   623.70   626.04   643.39
eigval :      646.36   657.37   659.15   672.92   673.62   674.39
eigval :      675.44   684.13   686.85   687.85   689.41   699.63
eigval :      700.32   702.46   708.09   709.23   753.88   754.60
eigval :      768.72   769.27   772.59   772.90   774.76   775.63
eigval :      801.37   802.49   816.50   817.34   831.75   836.39
eigval :      839.95   840.28   869.13   869.60   870.01   870.41
eigval :      876.69   876.83   882.01   882.28   888.16   892.07
eigval :      893.27   893.84   899.99   900.68   902.76   903.98
eigval :      905.40   907.69   908.50   909.97   911.60   914.59
eigval :      915.76   917.24   918.04   922.21   922.97   923.11
eigval :      923.95   924.60   933.17   933.25   934.44   934.52
eigval :      981.99   982.98   991.48   991.64  1007.13  1007.58
eigval :     1027.02  1044.56  1069.74  1070.50  1071.92  1072.27
eigval :     1078.79  1079.01  1083.84  1084.59  1097.86  1100.33
eigval :     1117.86  1117.98  1124.01  1124.87  1137.51  1139.53
eigval :     1146.02  1146.66  1147.13  1166.51  1172.65  1174.35
eigval :     1179.09  1179.74  1180.71  1180.75  1182.26  1184.63
eigval :     1188.83  1189.70  1192.97  1206.16  1207.34  1212.94
eigval :     1219.45  1223.86  1236.19  1238.07  1248.02  1252.74
eigval :     1254.94  1258.41  1273.49  1273.68  1280.75  1281.79
eigval :     1292.93  1302.82  1304.25  1304.72  1307.87  1317.73
eigval :     1317.76  1328.16  1330.83  1331.19  1344.86  1345.79
eigval :     1351.47  1353.72  1359.86  1360.14  1362.90  1364.51
eigval :     1391.89  1392.99  1400.90  1401.36  1411.98  1414.43
eigval :     1418.39  1419.11  1426.65  1427.05  1434.69  1435.22
eigval :     1439.54  1449.71  1450.50  1454.63  1468.07  1468.34
eigval :     1473.66  1474.01  1481.69  1481.76  1482.84  1483.35
eigval :     1533.16  1540.88  1557.05  1557.39  1564.66  1565.04
eigval :     1577.99  1581.29  1582.02  1583.13  1583.31  1586.39
eigval :     1588.62  1594.44  1594.69  1596.54  1598.17  1598.62
eigval :     1598.88  3079.57  3079.68  3079.94  3080.06  3080.24
eigval :     3080.27  3080.82  3082.39  3082.54  3082.78  3084.27
eigval :     3086.20  3086.70  3087.33  3087.78  3088.75  3090.59
eigval :     3090.73  3091.79  3091.86  3094.39  3094.64  3094.80
eigval :     3094.83  3096.24  3097.45  3100.34  3100.43  3100.51
eigval :     3100.69  3101.35  3102.48  3102.88  3103.70  3115.29
eigval :     3117.95  3134.26  3135.20

   temp. (K)  partition function   enthalpy   heat capacity  entropy
                                   cal/mol     cal/K/mol   cal/K/mol   J/K/mol
 298.15  VIB  0.113E+26            31272.266    199.745    196.128
         ROT  0.366E+09              888.752      2.981     42.168
         INT  0.412E+34            32161.018    202.726    238.296
         TR   0.254E+29             1481.254      4.968     46.190
         TOT                       33642.2723   207.6943   284.4861  1190.2899

       T/K    H(0)-H(T)+PV         H(T)/Eh          T*S/Eh         G(T)/Eh
   ------------------------------------------------------------------------
    298.15    0.536124E-01    0.858467E+00    0.135169E+00    0.723299E+00
   ------------------------------------------------------------------------

         :::::::::::::::::::::::::::::::::::::::::::::::::::::
         ::                  THERMODYNAMIC                  ::
         :::::::::::::::::::::::::::::::::::::::::::::::::::::
         :: total free energy        -173.105049623488 Eh   ::
         ::.................................................::
         :: total energy             -173.828348314984 Eh   ::
         :: zero point energy           0.804854853079 Eh   ::
         :: G(RRHO) w/o ZPVE           -0.081556161584 Eh   ::
         :: G(RRHO) contrib.            0.723298691496 Eh   ::
         :::::::::::::::::::::::::::::::::::::::::::::::::::::

           -------------------------------------------------
          | TOTAL ENERGY             -173.828348314984 Eh   |
          | TOTAL ENTHALPY           -172.969881088462 Eh   |
          | TOTAL FREE ENERGY        -173.105049623488 Eh   |
          | GRADIENT NORM               0.000095861719 Eh/α |
           -------------------------------------------------

 * finished run on 2025/09/11 at 19:31:24.684
