   * xtb version 6.7.1 (edcfbbe) compiled by 'albert@albert-system' on 2024-07-22

   ID    Z sym.   atoms
    1    6 C      1-4, 6-22, 24-28, 31-35, 37-53, 55-63, 65-69
    2    7 N      5, 23, 29, 30, 36, 54
    3    8 O      64
    4    1 H      70-107

          program call               : xtb data2507/gas/2ICz-OXD/2ICz-OXD_gas_S0_finalOpt.xtbopt.xyz --gfn 2 --spinpol --tblite --uhf 2 --ohess vtight --parallel 40 --molden --ceasefiles --namespace data2507/gas/2ICz-OXD/2ICz-OXD_gas_T1_preOpt
 * total energy  :  -173.8209220 Eh     change       -0.1738618E-07 Eh
 * total energy  :  -173.8260645 Eh     change       -0.5142501E-02 Eh
 * total energy  :  -173.8281051 Eh     change       -0.2040579E-02 Eh
 * total energy  :  -173.8282027 Eh     change       -0.9757139E-04 Eh
 * total energy  :  -173.8282463 Eh     change       -0.4361969E-04 Eh
 * total energy  :  -173.8282537 Eh     change       -0.7403802E-05 Eh
 * total energy  :  -173.8282657 Eh     change       -0.1195946E-04 Eh
 * total energy  :  -173.8282728 Eh     change       -0.7139907E-05 Eh
 * total energy  :  -173.8282796 Eh     change       -0.6786765E-05 Eh
 * total energy  :  -173.8282843 Eh     change       -0.4735833E-05 Eh
 * total energy  :  -173.8283401 Eh     change       -0.7403081E-06 Eh
 * total energy  :  -173.8283396 Eh     change        0.4763525E-06 Eh
 * total energy  :  -173.8283404 Eh     change       -0.7122344E-06 Eh
 * total energy  :  -173.8283406 Eh     change       -0.2047749E-06 Eh
 * total energy  :  -173.8283410 Eh     change       -0.3864963E-06 Eh
 * total energy  :  -173.8283412 Eh     change       -0.2242221E-06 Eh
 * total energy  :  -173.8283413 Eh     change       -0.7592851E-07 Eh
 * total energy  :  -173.8283416 Eh     change       -0.3520070E-06 Eh
 * total energy  :  -173.8283417 Eh     change       -0.4750862E-07 Eh
   *** GEOMETRY OPTIMIZATION CONVERGED AFTER 53 ITERATIONS ***

 final structure:
================
107
 xtb: 6.7.1 (edcfbbe)
C           11.90084672303056        3.25943963928063       -2.56338690847906
C           11.81569467046583        1.88291443638388       -2.43579879021734
C           10.67886970862958        1.30093578019451       -1.90623272321079
C            9.61883471378645        2.10102595466624       -1.49058138275794
N            8.46493113619120        1.51317272386189       -0.94968735221411
C            7.17135655156544        1.76101962813104       -1.34784029638166
C            6.71806250938815        2.58745645005017       -2.36695023355086
C            5.35521585555322        2.70048470847420       -2.54810453243338
C            4.46279965272394        2.02152611270745       -1.72004868058107
C            4.90761530849613        1.17474200924004       -0.72698563489769
C            6.27886912828574        0.99831077760260       -0.55297437670182
C            7.09516079858966        0.23054172932949        0.34603876950732
C            8.43674097309622        0.61533268891171        0.09553664131276
C            9.51470382683638        0.20408444438637        0.87804461312159
C            9.27571900166636       -0.63030388819366        1.94976454633366
C            7.98408337932380       -1.08858625456606        2.18662721909972
C            7.45350181518647       -1.96923246715904        3.19044889959862
C            8.01994316543385       -2.65031333835411        4.25758479019901
C            7.20963017351858       -3.46550267839473        5.02666153788303
C            5.85956167496280       -3.62124660602532        4.72746025666540
C            5.27500863152010       -2.95535809116168        3.66460495248810
C            6.07607842722601       -2.11067217987400        2.91231092776154
N            5.75572516868038       -1.35159938951236        1.79692154207400
C            4.55374654451471       -1.47285387356848        1.09834247629037
C            3.32527705743772       -1.28140731676119        1.75131301350063
C            2.14980407174400       -1.42659019722632        1.06790296241852
C            2.15387295811419       -1.79689085807370       -0.30212765411313
C            0.96045527266526       -1.95540713130596       -1.01476843203838
N            0.83378710545813       -2.30408740073802       -2.30251588837972
N           -0.42407898235951       -2.34667845462006       -2.59609875638181
C           -1.12940689458469       -2.02565367634466       -1.50262289619000
C           -2.52214871390959       -1.94953134811037       -1.39518865109011
C           -3.33780423579753       -2.22993728034591       -2.52292328163014
C           -4.69857429414875       -2.15154362137584       -2.43029888004031
C           -5.30827327692281       -1.76855968049590       -1.22227108840063
N           -6.69783406884993       -1.70028919486658       -1.11559237807872
C           -7.54425351202656       -2.77235432174935       -1.35425661872151
C           -7.26436400537703       -4.01089375972020       -1.91007604279849
C           -8.30197183733055       -4.92070002107229       -2.01215293053291
C           -9.58182219414856       -4.61523708469430       -1.55911090586460
C           -9.85701935018633       -3.39321545822040       -0.97293647655428
C           -8.83301964666128       -2.46407322056132       -0.86527409285511
C           -8.75077324916178       -1.14548251392719       -0.29986105284188
C           -9.69495551748253       -0.35757365390446        0.34998865617840
C           -9.33162710844592        0.88452098340788        0.82681363247139
C           -8.03708050489724        1.34253076006046        0.58619134304499
C           -7.06721233425111        0.60288635730404       -0.13658043413134
C           -5.94558654676774        1.48060186229080       -0.32512357747723
C           -4.75178784392655        1.40858742888148       -1.04035296831640
C           -3.88123433408792        2.47709032589220       -0.99754262849912
C           -4.17273609968942        3.62107713148481       -0.25629574068279
C           -5.37004601014568        3.74422932345364        0.41791983970689
C           -6.26470049931183        2.68486463382802        0.35160404930228
N           -7.52260826330269        2.58229561931521        0.90006074217958
C           -8.18726494557831        3.58281181746311        1.62567253575493
C           -8.29587913582435        4.86917758996131        1.10641575681381
C           -8.94545936857606        5.85198993041307        1.83019185011058
C           -9.49842198295129        5.55961811311754        3.06592696787705
C           -9.39693040030656        4.27775100366126        3.58055163410376
C           -8.74044916361939        3.29084504921987        2.86883328794757
C           -7.41928403948407       -0.70318096670728       -0.50187758164970
C           -4.50970395155120       -1.48699545918807       -0.09941699114575
C           -3.14952341300068       -1.58478533183629       -0.17545418490201
O           -0.28174409724749       -1.76342470778101       -0.44672752595739
C            3.40154791102345       -2.00111883585070       -0.94836357478677
C            4.56963611420314       -1.83126523061381       -0.26348399030170
C            6.89335880448445       -0.71219895410705        1.36285586329446
C            9.70798448923772        3.48418015041801       -1.61306177805534
C           10.84500435227231        4.05635477244190       -2.15302925552221
H           12.78822425464410        3.71014055034779       -2.98127998875451
H           12.63548397831975        1.25796324262492       -2.75750349027438
H           10.59950255812049        0.22724267168997       -1.82229347006672
H            7.41159264076573        3.12355205469905       -2.99706014356033
H            4.97373569493607        3.33577843755511       -3.33337646659700
H            3.40156027987232        2.15705959706054       -1.86313087808533
H            4.19697113665913        0.67486565610211       -0.09179323996492
H           10.50961941101509        0.56403312836608        0.66681556929361
H           10.08276530916802       -0.93343547968743        2.59827560347543
H            9.07179210262681       -2.54799441413668        4.47755180078249
H            7.63003732013008       -4.00004906021234        5.86540108855772
H            5.25549914015304       -4.27965627123247        5.33361377839920
H            4.23287662105393       -3.10132775342024        3.42671365605719
H            3.32312189771629       -0.97652477930620        2.78776806721111
H            1.20276777334224       -1.25418170992247        1.55544139224955
H           -2.84997751893621       -2.49428850677225       -3.44704315060240
H           -5.31940097889855       -2.33915235246296       -3.29395637803602
H           -6.27060619386917       -4.26589170078207       -2.24367586401969
H           -8.11207404923127       -5.88987891322110       -2.44842427741990
H          -10.36676573253112       -5.35013171054160       -1.65789259760596
H          -10.84509956007534       -3.16608145797873       -0.60227197465503
H          -10.70125708021235       -0.72239901568616        0.48433775824897
H          -10.04287624967301        1.50919445328227        1.34446715654480
H           -4.50979821905137        0.54464219492346       -1.63508718523537
H           -2.95321773896408        2.42501368963687       -1.54654673900671
H           -3.45779053295236        4.42960451905812       -0.22280366761195
H           -5.60549809643946        4.63585157862729        0.97922765002153
H           -7.88255670237672        5.08654945880936        0.13290881496300
H           -9.02718206278077        6.84887569276636        1.42317424442020
H          -10.00786409822363        6.32878684229997        3.62632945747645
H           -9.82431804304158        4.04643016376380        4.54490892955173
H           -8.64190268246406        2.29472136475596        3.27410443688501
H           -4.99110622174500       -1.20956576742803        0.82675410896630
H           -2.53258375689463       -1.38894840292561        0.68742008634913
H            3.39324374176010       -2.29494380542209       -1.98507449806653
H            5.52145956655386       -1.98651315000180       -0.74912607577465
H            8.89108840202594        4.10221287130443       -1.27165944835229
H           10.90971800383087        5.13026034501993       -2.24617383116173

 projected vibrational frequencies (cm⁻¹)
eigval :       -0.00    -0.00    -0.00    -0.00     0.00     0.00
eigval :        4.40     5.98     9.33    15.70    16.73    25.76
eigval :       34.74    35.76    36.31    53.04    56.08    58.01
eigval :       61.45    65.72    66.71    70.28    79.88    89.31
eigval :       91.59    98.85   106.15   114.83   119.29   127.55
eigval :      132.66   148.94   152.80   153.25   159.33   167.46
eigval :      170.14   213.42   217.58   221.33   225.35   227.65
eigval :      234.60   241.28   243.33   259.61   261.93   283.36
eigval :      291.00   291.65   312.46   321.67   322.11   342.65
eigval :      362.86   377.58   377.95   380.31   380.60   382.00
eigval :      383.10   383.81   390.94   392.41   404.42   420.06
eigval :      420.38   425.11   435.90   438.97   444.57   451.30
eigval :      460.00   463.19   478.00   479.71   482.07   496.96
eigval :      497.27   507.84   515.82   516.94   535.12   535.55
eigval :      542.93   553.32   553.48   566.87   569.47   578.39
eigval :      580.23   589.73   589.91   594.15   595.94   603.73
eigval :      603.89   609.61   610.96   623.85   626.21   643.36
eigval :      646.53   657.14   659.16   672.91   673.65   674.42
eigval :      675.47   684.05   686.68   687.86   689.48   699.51
eigval :      700.33   702.54   708.14   709.24   754.28   754.69
eigval :      768.95   769.23   772.69   772.96   774.78   775.88
eigval :      801.44   802.66   817.38   817.41   831.91   836.23
eigval :      839.98   840.32   869.21   869.97   870.05   870.80
eigval :      876.65   876.83   882.24   882.44   888.26   892.08
eigval :      893.37   893.91   900.09   900.77   903.13   904.07
eigval :      905.48   907.68   908.54   910.08   911.77   914.77
eigval :      915.63   917.19   918.02   922.23   922.78   923.21
eigval :      924.16   924.37   933.27   933.33   934.53   934.70
eigval :      982.08   982.97   991.46   991.71  1007.13  1007.56
eigval :     1027.47  1045.44  1070.06  1070.47  1071.89  1072.39
eigval :     1078.85  1079.04  1083.92  1084.69  1097.80  1100.32
eigval :     1118.05  1118.10  1124.07  1124.67  1137.75  1139.62
eigval :     1146.56  1146.74  1147.33  1168.41  1174.16  1175.16
eigval :     1179.42  1179.69  1180.91  1180.94  1182.41  1185.09
eigval :     1189.10  1190.48  1193.21  1207.09  1207.49  1211.07
eigval :     1219.21  1222.92  1236.30  1238.07  1247.99  1250.89
eigval :     1254.71  1258.22  1273.62  1273.70  1280.02  1280.81
eigval :     1292.79  1302.78  1304.29  1304.75  1308.52  1317.76
eigval :     1317.77  1328.21  1330.62  1331.01  1344.94  1345.79
eigval :     1351.30  1353.56  1359.85  1360.13  1363.03  1364.42
eigval :     1391.88  1393.16  1401.02  1401.43  1411.83  1414.56
eigval :     1418.28  1419.15  1426.59  1426.99  1434.80  1435.28
eigval :     1439.50  1449.70  1450.12  1454.69  1468.02  1468.33
eigval :     1473.68  1473.98  1481.61  1481.75  1482.81  1483.30
eigval :     1532.97  1540.95  1556.98  1557.37  1564.54  1565.11
eigval :     1577.97  1581.32  1582.04  1583.14  1583.35  1586.45
eigval :     1588.71  1594.54  1594.76  1596.52  1598.13  1598.61
eigval :     1599.00  3079.64  3079.75  3080.01  3080.02  3080.37
eigval :     3080.44  3080.89  3082.55  3082.66  3082.82  3084.29
eigval :     3086.27  3086.69  3087.08  3087.84  3088.75  3090.64
eigval :     3090.81  3091.78  3091.88  3094.40  3094.57  3094.92
eigval :     3094.94  3096.27  3097.46  3100.41  3100.44  3100.54
eigval :     3100.60  3101.23  3102.39  3102.75  3103.82  3115.19
eigval :     3117.90  3134.52  3135.96

   temp. (K)  partition function   enthalpy   heat capacity  entropy
                                   cal/mol     cal/K/mol   cal/K/mol   J/K/mol
 298.15  VIB  0.891E+25            31263.307    199.779    195.928
         ROT  0.364E+09              888.752      2.981     42.154
         INT  0.324E+34            32152.059    202.760    238.082
         TR   0.254E+29             1481.254      4.968     46.190
         TOT                       33633.3133   207.7278   284.2718  1189.3933

       T/K    H(0)-H(T)+PV         H(T)/Eh          T*S/Eh         G(T)/Eh
   ------------------------------------------------------------------------
    298.15    0.535981E-01    0.858494E+00    0.135067E+00    0.723427E+00
   ------------------------------------------------------------------------

         :::::::::::::::::::::::::::::::::::::::::::::::::::::
         ::                  THERMODYNAMIC                  ::
         :::::::::::::::::::::::::::::::::::::::::::::::::::::
         :: total free energy        -173.104914465390 Eh   ::
         ::.................................................::
         :: total energy             -173.828341747944 Eh   ::
         :: zero point energy           0.804895905624 Eh   ::
         :: G(RRHO) w/o ZPVE           -0.081468623070 Eh   ::
         :: G(RRHO) contrib.            0.723427282554 Eh   ::
         :::::::::::::::::::::::::::::::::::::::::::::::::::::

           -------------------------------------------------
          | TOTAL ENERGY             -173.828341747944 Eh   |
          | TOTAL ENTHALPY           -172.969847745938 Eh   |
          | TOTAL FREE ENERGY        -173.104914465390 Eh   |
          | GRADIENT NORM               0.000092038484 Eh/α |
           -------------------------------------------------

 * finished run on 2025/09/11 at 19:06:22.860
