   * xtb version 6.7.1 (edcfbbe) compiled by 'albert@albert-system' on 2024-07-22

   ID    Z sym.   atoms
    1    6 C      1-4, 6-22, 24-28, 31-35, 37-53, 55-63, 65-69
    2    7 N      5, 23, 29, 30, 36, 54
    3    8 O      64
    4    1 H      70-107

          program call               : xtb data2507/gas/2ICz-OXD/2ICz-OXD_gas_S0_crest.xyz --gfn 2 --ohess vtight --parallel 40 --molden --ceasefiles --namespace data2507/gas/2ICz-OXD/2ICz-OXD_gas_S0_finalOpt
          :  Hamiltonian                  GFN2-xTB          :
 * total energy  :  -173.9102077 Eh     change       -0.4473520E-08 Eh
 * total energy  :  -173.9102089 Eh     change       -0.1191147E-05 Eh
 * total energy  :  -173.9102104 Eh     change       -0.1468695E-05 Eh
 * total energy  :  -173.9102140 Eh     change       -0.3564079E-05 Eh
 * total energy  :  -173.9102151 Eh     change       -0.1149615E-05 Eh
 * total energy  :  -173.9102163 Eh     change       -0.1203266E-05 Eh
 * total energy  :  -173.9102182 Eh     change       -0.1917137E-05 Eh
 * total energy  :  -173.9102201 Eh     change       -0.1831851E-05 Eh
 * total energy  :  -173.9102215 Eh     change       -0.1463667E-05 Eh
 * total energy  :  -173.9102231 Eh     change       -0.1536969E-05 Eh
 * total energy  :  -173.9102383 Eh     change       -0.1788647E-06 Eh
 * total energy  :  -173.9102386 Eh     change       -0.2546693E-06 Eh
 * total energy  :  -173.9102388 Eh     change       -0.2609743E-06 Eh
 * total energy  :  -173.9102390 Eh     change       -0.2064660E-06 Eh
 * total energy  :  -173.9102393 Eh     change       -0.2501832E-06 Eh
 * total energy  :  -173.9102395 Eh     change       -0.2377184E-06 Eh
 * total energy  :  -173.9102398 Eh     change       -0.3338192E-06 Eh
 * total energy  :  -173.9102403 Eh     change       -0.4758025E-06 Eh
 * total energy  :  -173.9102403 Eh     change       -0.3565361E-08 Eh
   *** GEOMETRY OPTIMIZATION CONVERGED AFTER 44 ITERATIONS ***

 final structure:
================
107
 xtb: 6.7.1 (edcfbbe)
C           11.86563887725105        3.32120102455174       -2.49387645753972
C           11.78928514309161        1.94405287895719       -2.36759802881740
C           10.65101459749352        1.35334967352678       -1.85112007638252
C            9.58023603068288        2.14486471307687       -1.44640815866079
N            8.42533703297433        1.54845601866850       -0.91839485990309
C            7.13397450211924        1.78703098451360       -1.33227689957474
C            6.68702428608216        2.61071310916495       -2.35549541440143
C            5.32526406973703        2.71275068745871       -2.55549046495064
C            4.42917188670518        2.02647284796126       -1.74028849293428
C            4.86989790122115        1.18204188639184       -0.74171436503536
C            6.23890058969176        1.01551621453624       -0.55096972106584
C            7.05219877425537        0.25063942691829        0.35701909138143
C            8.39250969114118        0.64584817021274        0.12254921604781
C            9.46633606815256        0.23241733587792        0.91147081204948
C            9.22245489547295       -0.61603659980525        1.96602819227910
C            7.92821793266167       -1.08728708902564        2.18417291703193
C            7.39650093642177       -1.98762776302198        3.16719659934049
C            7.96252198085875       -2.68587153425929        4.22586738409614
C            7.15538301549759       -3.51658635714769        4.97689374123162
C            5.80548736027465       -3.67029869427403        4.67187919749694
C            5.22113337836156       -2.98680074295689        3.62172224337146
C            6.02101543413298       -2.12848246688140        2.88382609969203
N            5.70042230779725       -1.34491473360370        1.78529281170345
C            4.51309580422524       -1.48630653220254        1.06125112275833
C            3.28167418816221       -1.30079528330366        1.68696825533451
C            2.11283335585971       -1.46434693305214        0.97316781225503
C            2.15954043115530       -1.82060948117726       -0.37466254897447
C            0.94632856862953       -1.99320013597238       -1.13355625611777
N            0.84848086175854       -2.33686482761937       -2.38602821376430
N           -0.45327261170179       -2.38221760305213       -2.68735552106350
C           -1.11364092394536       -2.06393833663432       -1.61062646176053
C           -2.54507801554201       -1.97630125624370       -1.46691880936743
C           -3.36098322323910       -2.26658543503834       -2.56204834107736
C           -4.73112748666220       -2.17678129600894       -2.44536481110728
C           -5.30607909365647       -1.79105584837746       -1.23417572012148
N           -6.69537534004429       -1.71142756091986       -1.10316442527232
C           -7.54390788767178       -2.79454161753616       -1.27762887104943
C           -7.28352741295924       -4.04329128974433       -1.81970847879329
C           -8.31923776340104       -4.95838518892041       -1.85676671929770
C           -9.58129468841397       -4.64790489126960       -1.35684718451628
C           -9.83658418123172       -3.41577747367296       -0.78914835845218
C           -8.81161652867747       -2.47978368830640       -0.74277471747627
C           -8.71499875926042       -1.14983373645095       -0.21167674992616
C           -9.64253378737967       -0.34942038600033        0.45437214920055
C           -9.26930257108793        0.89931618173638        0.89403391894059
C           -7.98259864052449        1.35420506979559        0.60468762563165
C           -7.03664405982431        0.60340395146202       -0.13604957762250
C           -5.91460161458990        1.47524855285802       -0.36345985627633
C           -4.74068923288598        1.39205755650869       -1.10753175869375
C           -3.86190516441367        2.45622710069743       -1.09530922185609
C           -4.12846079437092        3.60669725148179       -0.35759099396451
C           -5.30978799349620        3.74162550539770        0.34335570510958
C           -6.21074512264134        2.68693087845927        0.30835166946315
N           -7.45539492635096        2.59561521870204        0.88979554331614
C           -8.09659008735306        3.60797846840736        1.61939618128762
C           -8.21339901656110        4.88812097356042        1.08648633487023
C           -8.84044854439641        5.88316558417137        1.81332254185137
C           -9.36312174566955        5.60951612955289        3.06638952800861
C           -9.25334458239505        4.33411679158554        3.59514073005221
C           -8.61886654250367        3.33524365382743        2.88021943462722
C           -7.39872651302253       -0.70568403238045       -0.46846389548624
C           -4.49039655954354       -1.50806324539304       -0.13832137189370
C           -3.12032080244247       -1.59842265153622       -0.25342154709160
O           -0.27539770680400       -1.80317102437944       -0.57846441596707
C            3.39316547216390       -2.01061704661207       -1.00077132932116
C            4.55911730070611       -1.84527067235579       -0.28760767410907
C            6.84743142846108       -0.70185860034831        1.36004726971196
C            9.66080359300371        3.52874714466533       -1.56765231657602
C           10.79921427579493        4.10976265472387       -2.09501154380398
H           12.75429600607568        3.77880933221604       -2.90156012856636
H           12.61743640636732        1.32538913702628       -2.68015577372605
H           10.57916525600719        0.27907434184957       -1.76796956260667
H            7.38381931650474        3.15467479665137       -2.97522705065702
H            4.94918350742200        3.34726419993620       -3.34408096138489
H            3.36828529679804        2.15489073328456       -1.89467434575667
H            4.15397337445592        0.68101543688009       -0.11263250584965
H           10.46060157849817        0.60160590750859        0.71336168037590
H           10.02372106639350       -0.92532196417313        2.61886201321844
H            9.01312133295017       -2.58076188283484        4.45065824886201
H            7.57451565369094       -4.06511987169478        5.80732219573885
H            5.20192481095153       -4.34067823582206        5.26573101704908
H            4.17832192332768       -3.13057239708789        3.38293331406225
H            3.25116675451698       -1.00336228796111        2.72433625068746
H            1.15758344091052       -1.30929464902634        1.45186162359912
H           -2.89547567281074       -2.54909853998767       -3.49262885117059
H           -5.36664101879594       -2.37601141552737       -3.29475540559931
H           -6.30454350948723       -4.30295785156837       -2.19280787830549
H           -8.14369529170200       -5.93632845161949       -2.27986156432871
H          -10.36566624928233       -5.38843480442428       -1.40721027277627
H          -10.80987703396272       -3.18125757366868       -0.38530986329757
H          -10.64198170373511       -0.71654613185435        0.62813292083392
H           -9.96405625978707        1.53293686196466        1.42314168403971
H           -4.51972643430164        0.52527228403830       -1.70708196304789
H           -2.94920031054777        2.39492516736086       -1.66921213494783
H           -3.40969196304735        4.41257381102821       -0.34935077109256
H           -5.52777585743846        4.64023443804065        0.90063533997360
H           -7.82409986871585        5.09096072416203        0.09997937370223
H           -8.92883050970021        6.87493997445395        1.39517902934370
H           -9.85555473523074        6.38806938134188        3.62912298340320
H           -9.65718739833543        4.11727216284496        4.57299139994826
H           -8.51457558017612        2.34397709828472        3.29582107914365
H           -4.94325827451433       -1.21415140156979        0.79630335797607
H           -2.48781455680203       -1.37875463588485        0.59301856017010
H            3.40780039847141       -2.28917916049336       -2.04186535954353
H            5.51747584348814       -1.98841719065340       -0.76257960526519
H            8.83570185446359        4.14061174645584       -1.23489570279543
H           10.85688333074441        5.18425007758451       -2.18701109800082

          :  Hamiltonian                  GFN2-xTB          :
         :: gradient norm              0.000038586206 Eh/a0 ::
         :: HOMO-LUMO gap              1.960988775632 eV    ::
         :: SCC energy              -177.073489616141 Eh    ::
         :: -> dispersion             -0.161359827806 Eh    ::
         :: repulsion energy           3.163249292903 Eh    ::

    * Orbital Energies and Occupations

         #    Occupation            Energy/Eh            Energy/eV
      -------------------------------------------------------------
         1        2.0000           -0.7659135             -20.8416
       ...           ...                  ...                  ...
       149        2.0000           -0.4106890             -11.1754
       150        2.0000           -0.4102793             -11.1643
       151        2.0000           -0.4092312             -11.1357
       152        2.0000           -0.3971734             -10.8076
       153        2.0000           -0.3921472             -10.6709
       154        2.0000           -0.3913009             -10.6478
       155        2.0000           -0.3845590             -10.4644
       156        2.0000           -0.3840614             -10.4508
       157        2.0000           -0.3831092             -10.4249
       158        2.0000           -0.3619060              -9.8480
       159        2.0000           -0.3605839              -9.8120
       160        2.0000           -0.3565420              -9.7020
       161        2.0000           -0.3556422              -9.6775 (HOMO)
       162                         -0.2835772              -7.7165 (LUMO)
       163                         -0.2604294              -7.0866
       164                         -0.2487664              -6.7693
       165                         -0.2477939              -6.7428
       166                         -0.2405183              -6.5448
       167                         -0.2402858              -6.5385
       168                         -0.2349696              -6.3938
       169                         -0.2348131              -6.3896
       170                         -0.2342120              -6.3732
       171                         -0.2338277              -6.3628
       172                         -0.2337172              -6.3598
       ...                                ...                  ...
       314                          0.7647833              20.8108
      -------------------------------------------------------------
                  HL-Gap            0.0720650 Eh            1.9610 eV

     #   Z          covCN         q      C6AA      α(0)
     1   6 C        2.919    -0.033    28.811     8.802
     2   6 C        2.920    -0.028    28.695     8.784
     3   6 C        2.922    -0.041    29.026     8.835
     4   6 C        2.914     0.065    26.538     8.447
     5   7 N        2.803    -0.042    22.041     6.973
     6   6 C        3.080     0.046    26.894     8.502
     7   6 C        2.910    -0.051    29.272     8.872
     8   6 C        2.923    -0.033    28.833     8.806
     9   6 C        2.919    -0.041    29.007     8.832
    10   6 C        2.914    -0.038    28.942     8.822
    11   6 C        3.062    -0.017    28.376     8.735
    12   6 C        3.053    -0.038    28.884     8.814
    13   6 C        3.080     0.044    26.938     8.509
    14   6 C        2.912    -0.061    29.505     8.907
    15   6 C        2.916    -0.036    28.898     8.815
    16   6 C        3.068    -0.027    28.615     8.771
    17   6 C        3.068    -0.014    28.302     8.723
    18   6 C        2.913    -0.034    28.853     8.808
    19   6 C        2.920    -0.040    28.995     8.830
    20   6 C        2.924    -0.035    28.867     8.811
    21   6 C        2.910    -0.051    29.265     8.871
    22   6 C        3.075     0.044    26.929     8.508
    23   7 N        2.803    -0.042    22.059     6.976
    24   6 C        2.915     0.074    26.345     8.417
    25   6 C        2.920    -0.041    29.028     8.835
    26   6 C        2.923    -0.026    28.664     8.780
    27   6 C        2.975    -0.007    28.202     8.711
    28   6 C        3.171     0.214    23.179     7.865
    29   7 N        2.048    -0.197    26.008     7.565
    30   7 N        2.048    -0.198    26.015     7.566
    31   6 C        3.171     0.214    23.180     7.865
    32   6 C        2.975    -0.007    28.202     8.711
    33   6 C        2.924    -0.028    28.696     8.785
    34   6 C        2.920    -0.039    28.966     8.826
    35   6 C        2.915     0.074    26.349     8.417
    36   7 N        2.803    -0.042    22.052     6.975
    37   6 C        3.074     0.044    26.929     8.508
    38   6 C        2.910    -0.051    29.264     8.870
    39   6 C        2.925    -0.034    28.859     8.810
    40   6 C        2.920    -0.040    28.991     8.830
    41   6 C        2.913    -0.034    28.854     8.808
    42   6 C        3.068    -0.015    28.304     8.724
    43   6 C        3.068    -0.027    28.613     8.771
    44   6 C        2.916    -0.036    28.896     8.815
    45   6 C        2.912    -0.061    29.509     8.908
    46   6 C        3.080     0.043    26.941     8.509
    47   6 C        3.054    -0.038    28.888     8.815
    48   6 C        3.062    -0.017    28.377     8.736
    49   6 C        2.914    -0.038    28.950     8.823
    50   6 C        2.919    -0.041    29.023     8.834
    51   6 C        2.923    -0.034    28.848     8.808
    52   6 C        2.910    -0.052    29.280     8.873
    53   6 C        3.079     0.045    26.897     8.503
    54   7 N        2.803    -0.042    22.049     6.974
    55   6 C        2.914     0.065    26.539     8.448
    56   6 C        2.922    -0.041    29.029     8.836
    57   6 C        2.920    -0.028    28.692     8.784
    58   6 C        2.919    -0.033    28.811     8.802
    59   6 C        2.920    -0.028    28.697     8.785
    60   6 C        2.922    -0.041    29.030     8.836
    61   6 C        3.061     0.043    26.984     8.518
    62   6 C        2.921    -0.036    28.904     8.816
    63   6 C        2.922    -0.024    28.612     8.772
    64   8 O        1.722    -0.229    17.790     5.695
    65   6 C        2.924    -0.026    28.646     8.777
    66   6 C        2.921    -0.034    28.841     8.807
    67   6 C        3.060     0.043    26.985     8.519
    68   6 C        2.922    -0.041    29.031     8.836
    69   6 C        2.920    -0.028    28.694     8.784
    70   1 H        0.926     0.036     2.504     2.475
    71   1 H        0.926     0.037     2.488     2.467
    72   1 H        0.926     0.042     2.428     2.437
    73   1 H        0.926     0.028     2.617     2.530
    74   1 H        0.926     0.030     2.591     2.517
    75   1 H        0.926     0.026     2.639     2.540
    76   1 H        0.926     0.024     2.667     2.554
    77   1 H        0.926     0.029     2.607     2.525
    78   1 H        0.926     0.033     2.541     2.493
    79   1 H        0.926     0.030     2.579     2.511
    80   1 H        0.926     0.028     2.614     2.528
    81   1 H        0.926     0.029     2.605     2.524
    82   1 H        0.926     0.026     2.642     2.542
    83   1 H        0.926     0.049     2.338     2.391
    84   1 H        0.926     0.048     2.339     2.392
    85   1 H        0.926     0.065     2.136     2.285
    86   1 H        0.926     0.052     2.292     2.367
    87   1 H        0.926     0.028     2.617     2.530
    88   1 H        0.926     0.030     2.592     2.518
    89   1 H        0.926     0.028     2.610     2.526
    90   1 H        0.926     0.030     2.580     2.512
    91   1 H        0.926     0.033     2.540     2.492
    92   1 H        0.926     0.028     2.608     2.525
    93   1 H        0.926     0.026     2.648     2.545
    94   1 H        0.926     0.026     2.647     2.544
    95   1 H        0.926     0.029     2.605     2.524
    96   1 H        0.926     0.027     2.624     2.533
    97   1 H        0.926     0.042     2.427     2.436
    98   1 H        0.926     0.037     2.489     2.467
    99   1 H        0.926     0.036     2.503     2.474
   100   1 H        0.926     0.037     2.490     2.468
   101   1 H        0.926     0.041     2.433     2.439
   102   1 H        0.926     0.047     2.363     2.404
   103   1 H        0.926     0.049     2.334     2.389
   104   1 H        0.926     0.066     2.131     2.283
   105   1 H        0.926     0.050     2.317     2.381
   106   1 H        0.926     0.041     2.430     2.438
   107   1 H        0.926     0.037     2.492     2.469

molecular dipole:
                 x           y           z       tot (Debye)
 q only:        0.128       1.011       0.619
   full:        0.024       1.264       1.153       4.350

 projected vibrational frequencies (cm⁻¹)
eigval :       -0.00    -0.00    -0.00     0.00     0.00     0.00
eigval :        3.68     5.28     9.59    15.93    16.43    25.68
eigval :       33.36    34.98    35.92    51.75    55.52    58.11
eigval :       61.26    65.15    66.85    70.55    74.34    85.13
eigval :       91.23    96.25   101.27   102.40   117.30   127.10
eigval :      133.57   150.05   153.94   155.93   159.32   171.36
eigval :      177.95   214.67   218.81   222.27   227.76   230.82
eigval :      235.58   244.31   245.22   263.54   265.43   285.84
eigval :      292.56   294.62   321.69   322.33   342.68   350.38
eigval :      376.72   376.98   378.91   380.13   381.43   381.89
eigval :      384.94   390.41   391.92   397.99   412.60   420.17
eigval :      420.84   427.03   441.24   443.47   452.29   455.22
eigval :      472.79   475.58   484.24   493.44   500.15   501.52
eigval :      502.97   505.84   521.48   523.79   536.17   536.34
eigval :      554.33   554.43   568.18   570.39   582.90   584.06
eigval :      591.59   591.96   595.48   596.96   606.70   606.94
eigval :      612.28   613.20   624.49   626.11   645.63   649.68
eigval :      673.50   673.67   673.95   675.19   675.23   679.42
eigval :      688.11   688.29   698.04   700.09   700.23   705.67
eigval :      708.32   713.84   722.68   722.82   757.31   759.55
eigval :      771.86   773.46   773.88   774.70   775.69   776.86
eigval :      819.72   819.73   822.47   823.80   841.90   842.07
eigval :      866.12   866.58   869.98   870.90   874.22   876.39
eigval :      879.38   879.62   882.46   882.69   895.75   895.84
eigval :      900.62   901.50   903.93   904.59   908.79   909.48
eigval :      914.53   915.31   915.98   918.60   920.92   921.34
eigval :      921.88   923.13   923.82   925.49   929.70   933.30
eigval :      933.34   933.63   934.48   934.60   972.23   974.42
eigval :      988.56   990.07  1006.71  1008.63  1011.47  1019.24
eigval :     1071.95  1072.06  1073.71  1073.99  1079.57  1079.68
eigval :     1082.38  1086.22  1086.57  1097.83  1103.50  1104.32
eigval :     1118.12  1118.17  1126.26  1127.12  1140.65  1140.73
eigval :     1153.42  1153.52  1172.40  1173.11  1178.28  1178.52
eigval :     1180.69  1180.98  1181.10  1181.30  1183.72  1184.68
eigval :     1186.61  1190.80  1192.34  1207.86  1208.76  1226.75
eigval :     1226.95  1242.19  1242.22  1256.14  1256.84  1260.07
eigval :     1261.66  1274.50  1274.67  1281.34  1288.68  1288.99
eigval :     1305.36  1310.10  1310.90  1313.99  1316.23  1317.95
eigval :     1318.02  1323.50  1325.27  1349.53  1349.83  1362.40
eigval :     1363.02  1364.66  1364.69  1375.27  1376.03  1397.36
eigval :     1397.69  1406.23  1407.00  1411.34  1413.54  1429.44
eigval :     1429.82  1434.13  1434.20  1436.13  1436.19  1465.63
eigval :     1465.83  1469.43  1472.07  1479.20  1479.34  1483.17
eigval :     1483.40  1485.39  1485.44  1536.83  1539.06  1559.87
eigval :     1562.45  1569.60  1569.77  1575.69  1575.95  1582.93
eigval :     1582.99  1587.68  1587.85  1589.80  1590.06  1595.88
eigval :     1595.93  1597.99  1598.22  1606.94  1607.10  1609.51
eigval :     1609.73  3076.81  3077.42  3077.64  3078.81  3079.47
eigval :     3079.48  3081.60  3081.61  3082.37  3082.96  3084.62
eigval :     3085.59  3088.67  3089.36  3089.60  3090.51  3090.56
eigval :     3091.27  3091.31  3092.45  3094.01  3094.29  3094.68
eigval :     3095.40  3096.24  3096.37  3097.14  3098.83  3099.60
eigval :     3099.69  3099.95  3101.92  3102.00  3103.13  3116.12
eigval :     3119.38  3129.12  3130.40

   temp. (K)  partition function   enthalpy   heat capacity  entropy
                                   cal/mol     cal/K/mol   cal/K/mol   J/K/mol
 298.15  VIB  0.116E+26            30979.390    197.448    194.928
         ROT  0.362E+09              888.752      2.981     42.143
         INT  0.418E+34            31868.143    200.428    237.071
         TR   0.254E+29             1481.254      4.968     46.190
         TOT                       33349.3964   205.3966   283.2610  1185.1640

       T/K    H(0)-H(T)+PV         H(T)/Eh          T*S/Eh         G(T)/Eh
   ------------------------------------------------------------------------
    298.15    0.531456E-01    0.862794E+00    0.134586E+00    0.728208E+00
   ------------------------------------------------------------------------

         :::::::::::::::::::::::::::::::::::::::::::::::::::::
         ::                  THERMODYNAMIC                  ::
         :::::::::::::::::::::::::::::::::::::::::::::::::::::
         :: total free energy        -173.182032475731 Eh   ::
         ::.................................................::
         :: total energy             -173.910240323238 Eh   ::
         :: zero point energy           0.809648637072 Eh   ::
         :: G(RRHO) w/o ZPVE           -0.081440789566 Eh   ::
         :: G(RRHO) contrib.            0.728207847506 Eh   ::
         :::::::::::::::::::::::::::::::::::::::::::::::::::::

           -------------------------------------------------
          | TOTAL ENERGY             -173.910240323238 Eh   |
          | TOTAL ENTHALPY           -173.047446040066 Eh   |
          | TOTAL FREE ENERGY        -173.182032475731 Eh   |
          | GRADIENT NORM               0.000038586661 Eh/α |
          | HOMO-LUMO GAP               1.960988700347 eV   |
           -------------------------------------------------

 * finished run on 2025/09/11 at 19:04:48.863
