   * xtb version 6.7.1 (edcfbbe) compiled by 'albert@albert-system' on 2024-07-22

   ID    Z sym.   atoms
    1    6 C      1-9, 11-19, 21-38, 40-45, 49-54, 58-63
    2    7 N      10, 20, 39
    3   16 S      46, 55
    4    8 O      47, 48, 56, 57
    5    1 H      64-104

          program call               : xtb data2507/gas/DMAC-Cz-TTR/DMAC-Cz-TTR_gas_T1_crest.xyz --gfn 2 --spinpol --tblite --uhf 2 --ohess vtight --parallel 40 --molden --ceasefiles --namespace data2507/gas/DMAC-Cz-TTR/DMAC-Cz-TTR_gas_T1_finalOpt
 * total energy  :  -168.0567622 Eh     change        0.1149900E-06 Eh
 * total energy  :  -168.0567647 Eh     change       -0.2495584E-05 Eh
 * total energy  :  -168.0567658 Eh     change       -0.1129867E-05 Eh
 * total energy  :  -168.0567666 Eh     change       -0.8003627E-06 Eh
 * total energy  :  -168.0567677 Eh     change       -0.1117887E-05 Eh
 * total energy  :  -168.0567690 Eh     change       -0.1242779E-05 Eh
 * total energy  :  -168.0567701 Eh     change       -0.1110761E-05 Eh
 * total energy  :  -168.0567710 Eh     change       -0.9239612E-06 Eh
 * total energy  :  -168.0567721 Eh     change       -0.1094773E-05 Eh
 * total energy  :  -168.0567734 Eh     change       -0.1305886E-05 Eh
 * total energy  :  -168.0567745 Eh     change       -0.1083857E-05 Eh
 * total energy  :  -168.0567753 Eh     change       -0.7812536E-06 Eh
 * total energy  :  -168.0567759 Eh     change       -0.6559562E-06 Eh
 * total energy  :  -168.0567765 Eh     change       -0.5650457E-06 Eh
 * total energy  :  -168.0567768 Eh     change       -0.2900442E-06 Eh
 * total energy  :  -168.0567768 Eh     change       -0.1546681E-07 Eh
 * total energy  :  -168.0567769 Eh     change       -0.9461303E-07 Eh
   *** GEOMETRY OPTIMIZATION CONVERGED AFTER 17 ITERATIONS ***

 final structure:
================
104
 xtb: 6.7.1 (edcfbbe)
C           -4.82250331765413        6.76106465719871       -1.21887440230408
C           -3.53494458829434        6.66222701783895       -0.37871420479402
C           -3.19744441790981        8.03059366158309        0.24340894960305
C           -2.40000405005768        6.24469044153217       -1.28864075801739
C           -2.06838777772185        7.04188394404271       -2.37619936360055
C           -1.07087025040849        6.68921903413734       -3.26548392949436
C           -0.39664517165809        5.49109180037863       -3.09085108924137
C           -0.70407824799516        4.68112659355115       -2.02124314888164
C           -1.68173300179825        5.05697024457875       -1.08894276746984
N           -1.95326206176771        4.23298511244817       -0.01102551392078
C           -1.17086892495014        3.06506564701467        0.17591216679159
C            0.19057603046552        3.20289650574969        0.48211299466113
C            0.99582830513292        2.08405153846094        0.65695967406560
C            0.42256308584752        0.83636408801236        0.50468097236361
C           -0.97215760870323        0.68347626401531        0.23368423907894
C           -1.76760568245516        1.81807221742471        0.06034180052225
C           -1.23612094142255       -0.70889298791549        0.22306371193718
C           -2.39313133621109       -1.46801897650849        0.03324282875808
C           -2.28435477783576       -2.84962032219024        0.04642914859680
N           -3.44509965271134       -3.64332908205444       -0.15267162526498
C           -3.56035764380820       -4.38573847888551       -1.31331749338947
C           -2.57918958698423       -4.27258450943909       -2.30810721735672
C           -2.65594370827768       -5.01353041440551       -3.46584067075360
C           -3.72246000978339       -5.87550951700699       -3.66436313460725
C           -4.71444523151999       -5.95871846715617       -2.70545394368529
C           -4.66467581113778       -5.22208187802896       -1.52956029593697
C           -5.80451838083317       -5.32244218300565       -0.53850305536901
C           -7.10400494404367       -4.88858343045985       -1.24296245287354
C           -5.91985838748089       -6.78168781172142       -0.05861424156291
C           -5.58216189122946       -4.43728789490873        0.66934437709595
C           -6.53622797526429       -4.40686823436024        1.67751618232501
C           -6.36888773431964       -3.65109522027370        2.82263039371323
C           -5.20410031404835       -2.91960740242918        2.98897332016026
C           -4.23990881231325       -2.93187436083227        2.00636894562999
C           -4.42278146841920       -3.66334758191927        0.82444089260290
C           -1.05206665563703       -3.48758207363569        0.24205452191155
C            0.10376703055508       -2.74618994329154        0.46470228558298
C            0.00779672588297       -1.36872486341238        0.47167599821940
N            0.99232638833988       -0.41430707398285        0.63721896475761
C            2.34484055256202       -0.64742676110334        0.86532391650840
C            2.76764795074077       -1.59059942270726        1.83541882292861
C            4.10783863905523       -1.77279141924391        2.07640368427689
C            5.06020777031906       -1.02078242025590        1.39461697263209
C            4.64257560679490       -0.10667247175065        0.41790130118159
C            3.30615230028655        0.06682559132295        0.14786377982676
S            5.84976800518857        0.77355763262507       -0.55064717124571
O            5.20216334754443        1.19629311836039       -1.77234026901839
O            6.47241848083381        1.80460659387972        0.22709593914354
C            7.01655148549730       -0.51276991183981       -0.96313148444227
C            7.45387982458202       -0.65813960380950       -2.26887428820329
C            8.31749674044277       -1.68916820867390       -2.59307312318341
C            8.72276102905631       -2.59390635203309       -1.61317531499602
C            8.26394464135183       -2.46148532744024       -0.31527416322286
C            7.42024319914936       -1.41290914743080        0.01376090792966
S            6.79079049129148       -1.25810799815277        1.67891201970999
O            6.96633918497139       -2.52966702011057        2.34117159093121
O            7.37030977875289       -0.11195640339617        2.31784272275364
C           -2.95232602013127        4.52918288377940        0.89746293080755
C           -3.14478529570356        3.70333555138249        2.01442614113718
C           -4.14820290817745        3.95956584871995        2.92126062569561
C           -4.97438192314982        5.05792367892642        2.74511165151719
C           -4.75843586677071        5.90259850865679        1.67264343127356
C           -3.75457343319168        5.66946116161550        0.74221868170235
H           -5.05368546816211        5.79260835442219       -1.65834349361336
H           -5.66329477115553        7.06899580695181       -0.60410189599710
H           -4.70649000640670        7.48299084658730       -2.02185578373304
H           -4.00210919742588        8.37281248586595        0.88768231862344
H           -2.28978709156932        7.95318535724567        0.83867430840090
H           -3.03870439488530        8.77758917431560       -0.52882916600119
H           -2.60225565351824        7.96531365501947       -2.53956267840195
H           -0.83311774541227        7.33571880131003       -4.09585745800195
H            0.36589875798347        5.18501914136124       -3.78998670694192
H           -0.18764606014298        3.74270033848041       -1.90219404293156
H            0.60517959984746        4.19135086488762        0.59808967589301
H            2.03372833703159        2.19943257347788        0.92491356825240
H           -2.81630330474621        1.73182680097858       -0.17927568578024
H           -3.34684116383511       -0.99490738110769       -0.14296044524105
H           -1.75645783822027       -3.59045409342555       -2.16669856690919
H           -1.88618718440155       -4.91425272122768       -4.21563677530110
H           -3.78942070690587       -6.46618118187657       -4.56478968155415
H           -5.55072765583813       -6.61681459163493       -2.88450004220044
H           -7.30716912788486       -5.51841124790182       -2.10408327287650
H           -7.95156868537466       -4.95434970890410       -0.56695876620907
H           -7.01469789245923       -3.85886197280620       -1.58379609552106
H           -6.08693423497015       -7.45203983689786       -0.89676925287933
H           -5.00148022177828       -7.08050187904939        0.44304484380423
H           -6.74453860887391       -6.89631661205043        0.63890466535638
H           -7.43710673759856       -4.99168869062407        1.57322977986262
H           -7.13257369176009       -3.64692537421933        3.58483905155501
H           -5.04290999109338       -2.34536777976197        3.88844426961792
H           -3.32680284186173       -2.37755433672949        2.15158071831424
H           -1.01113309987356       -4.56517730912682        0.23250015116577
H            1.04551503101475       -3.24724755152711        0.61880243658889
H            2.02782811894808       -2.12753365748860        2.40752001921442
H            4.45896216745250       -2.48398840117207        2.80748813158175
H            3.02673362660775        0.74022639888213       -0.64762393354282
H            7.10213337511784        0.04695260441952       -3.00573773998914
H            8.67454560435027       -1.79576972719086       -3.60603116203930
H            9.39326680571050       -3.40018617182900       -1.86890989359705
H            8.54210610248724       -3.15342949781193        0.46428114303701
H           -2.49036316255822        2.86124942680041        2.17135612995680
H           -4.28003296461054        3.30694450464824        3.77060374663640
H           -5.76679304598767        5.26614812162202        3.44716519356217
H           -5.39090057680250        6.77013367561988        1.56440600484650

 projected vibrational frequencies (cm⁻¹)
eigval :       -0.00    -0.00    -0.00     0.00     0.00     0.00
eigval :       10.43    11.15    11.80    13.49    13.65    16.57
eigval :       21.44    29.96    35.89    38.57    55.25    61.48
eigval :       83.31    85.91    88.51    91.49    94.76    98.78
eigval :      102.79   111.06   117.35   120.43   123.54   126.68
eigval :      127.80   129.95   143.91   162.46   176.33   186.64
eigval :      190.87   191.05   202.90   209.08   216.25   218.79
eigval :      224.00   226.86   237.77   238.78   251.18   254.83
eigval :      265.54   277.12   290.90   303.88   304.32   320.47
eigval :      326.81   328.52   329.22   334.05   335.45   343.11
eigval :      346.03   352.43   359.16   360.09   377.38   379.26
eigval :      383.18   388.20   393.66   405.94   410.02   411.39
eigval :      422.05   423.38   434.12   440.03   449.70   452.40
eigval :      453.00   468.52   479.27   498.21   503.47   506.35
eigval :      507.50   511.76   517.03   518.49   530.16   534.88
eigval :      542.39   544.25   544.69   546.70   552.70   559.86
eigval :      563.00   584.88   585.15   604.16   612.19   617.95
eigval :      637.73   639.33   644.74   646.07   658.13   665.28
eigval :      667.56   672.23   678.18   682.14   687.24   687.77
eigval :      700.51   701.34   707.33   715.64   734.38   765.44
eigval :      769.62   774.89   775.40   776.56   776.95   789.67
eigval :      795.39   805.78   809.42   825.52   826.11   828.04
eigval :      830.90   868.06   870.56   871.33   872.79   873.46
eigval :      876.51   878.62   884.87   904.33   907.98   912.69
eigval :      913.01   913.21   915.67   916.11   916.31   916.94
eigval :      916.99   922.91   923.27   923.47   924.31   936.10
eigval :      937.39   938.79   947.21   958.09   958.23   984.91
eigval :      987.83  1005.97  1013.68  1013.70  1026.25  1064.74
eigval :     1075.67  1075.88  1081.46  1082.86  1087.74  1098.65
eigval :     1104.52  1109.58  1109.63  1115.22  1115.65  1118.55
eigval :     1128.55  1132.15  1139.11  1139.22  1147.19  1152.16
eigval :     1152.42  1153.22  1157.89  1165.87  1172.66  1182.24
eigval :     1183.82  1184.75  1185.15  1185.60  1187.26  1189.82
eigval :     1193.37  1212.60  1215.81  1228.34  1230.29  1235.14
eigval :     1239.77  1244.42  1245.24  1246.62  1253.86  1258.15
eigval :     1262.57  1264.26  1291.51  1294.27  1295.10  1295.98
eigval :     1308.94  1313.70  1324.19  1327.10  1329.35  1329.82
eigval :     1331.98  1334.53  1334.66  1338.28  1350.98  1373.45
eigval :     1378.02  1396.44  1402.35  1402.39  1402.42  1410.75
eigval :     1412.34  1413.51  1420.02  1420.12  1421.97  1424.61
eigval :     1428.74  1430.30  1439.12  1457.32  1459.05  1460.91
eigval :     1475.68  1478.72  1485.39  1486.92  1487.28  1487.77
eigval :     1488.15  1496.24  1497.89  1498.23  1501.37  1501.74
eigval :     1514.91  1531.50  1534.42  1538.46  1557.37  1558.83
eigval :     1569.81  1572.30  1578.58  1580.46  1581.25  1592.26
eigval :     1593.25  3029.95  3030.19  3031.76  3032.91  3044.90
eigval :     3045.61  3047.42  3048.03  3053.55  3054.31  3057.31
eigval :     3057.93  3085.56  3086.45  3086.91  3087.12  3088.34
eigval :     3090.90  3091.68  3092.30  3092.48  3093.63  3094.47
eigval :     3095.35  3096.86  3099.73  3099.88  3101.54  3101.67
eigval :     3102.08  3102.55  3104.19  3104.70  3105.76  3107.06
eigval :     3110.84  3111.01  3112.63  3113.18  3113.47  3117.08

   temp. (K)  partition function   enthalpy   heat capacity  entropy
                                   cal/mol     cal/K/mol   cal/K/mol   J/K/mol
 298.15  VIB  0.851E+25            31956.066    199.713    198.255
         ROT  0.247E+09              888.752      2.981     41.386
         INT  0.210E+34            32844.819    202.694    239.641
         TR   0.244E+29             1481.254      4.968     46.111
         TOT                       34326.0726   207.6621   285.7521  1195.5869

       T/K    H(0)-H(T)+PV         H(T)/Eh          T*S/Eh         G(T)/Eh
   ------------------------------------------------------------------------
    298.15    0.547021E-01    0.845388E+00    0.135770E+00    0.709618E+00
   ------------------------------------------------------------------------

         :::::::::::::::::::::::::::::::::::::::::::::::::::::
         ::                  THERMODYNAMIC                  ::
         :::::::::::::::::::::::::::::::::::::::::::::::::::::
         :: total free energy        -167.347159315877 Eh   ::
         ::.................................................::
         :: total energy             -168.056776997332 Eh   ::
         :: zero point energy           0.790685654561 Eh   ::
         :: G(RRHO) w/o ZPVE           -0.081067973105 Eh   ::
         :: G(RRHO) contrib.            0.709617681455 Eh   ::
         :::::::::::::::::::::::::::::::::::::::::::::::::::::

           -------------------------------------------------
          | TOTAL ENERGY             -168.056776997332 Eh   |
          | TOTAL ENTHALPY           -167.211389264068 Eh   |
          | TOTAL FREE ENERGY        -167.347159315877 Eh   |
          | GRADIENT NORM               0.000126593978 Eh/α |
           -------------------------------------------------

 * finished run on 2025/08/24 at 12:36:55.974
