   * xtb version 6.7.1 (edcfbbe) compiled by 'albert@albert-system' on 2024-07-22

   ID    Z sym.   atoms
    1    6 C      1-9, 11-19, 21-38, 40-45, 49-54, 58-63
    2    7 N      10, 20, 39
    3   16 S      46, 55
    4    8 O      47, 48, 56, 57
    5    1 H      64-104

          program call               : xtb data2507/gas/DMAC-Cz-TTR/DMAC-Cz-TTR.xyz --gfn 2 --ohess vtight --parallel 40 --molden --ceasefiles --namespace data2507/gas/DMAC-Cz-TTR/DMAC-Cz-TTR_gas_S0_preOpt
          :  Hamiltonian                  GFN2-xTB          :
 * total energy  :  -168.0994205 Eh     change       -0.7261889E-08 Eh
 * total energy  :  -168.1234183 Eh     change       -0.2399782E-01 Eh
 * total energy  :  -168.1330010 Eh     change       -0.9582645E-02 Eh
 * total energy  :  -168.1352376 Eh     change       -0.2236661E-02 Eh
 * total energy  :  -168.1364856 Eh     change       -0.1247972E-02 Eh
 * total energy  :  -168.1370435 Eh     change       -0.5579334E-03 Eh
 * total energy  :  -168.1372338 Eh     change       -0.1903096E-03 Eh
 * total energy  :  -168.1373204 Eh     change       -0.8655781E-04 Eh
 * total energy  :  -168.1373828 Eh     change       -0.6239536E-04 Eh
 * total energy  :  -168.1374530 Eh     change       -0.7015959E-04 Eh
 * total energy  :  -168.1378645 Eh     change       -0.8134856E-06 Eh
 * total energy  :  -168.1378655 Eh     change       -0.9480276E-06 Eh
 * total energy  :  -168.1378663 Eh     change       -0.7814588E-06 Eh
 * total energy  :  -168.1378668 Eh     change       -0.5059334E-06 Eh
 * total energy  :  -168.1378672 Eh     change       -0.4363083E-06 Eh
 * total energy  :  -168.1378676 Eh     change       -0.3943071E-06 Eh
 * total energy  :  -168.1378679 Eh     change       -0.2593197E-06 Eh
 * total energy  :  -168.1378680 Eh     change       -0.1654679E-06 Eh
 * total energy  :  -168.1378680 Eh     change       -0.1641712E-07 Eh
   *** GEOMETRY OPTIMIZATION CONVERGED AFTER 62 ITERATIONS ***

 final structure:
================
104
 xtb: 6.7.1 (edcfbbe)
C           -8.00586549584158        1.41318762683144       -0.03152717989114
C           -6.99674021757796        2.57376345916522       -0.10222392449830
C           -7.73816045067597        3.91920759843008       -0.20377374547959
C           -6.13943524361242        2.39761980304349       -1.34154741849080
C           -6.74043870212504        2.37995925482989       -2.59256978301149
C           -6.00952556024861        2.22789480032270       -3.75637570846275
C           -4.63557920437711        2.09033037760042       -3.67934393042764
C           -4.01229377947198        2.10369053423136       -2.44936717449992
C           -4.75001011138209        2.25397845969956       -1.27180519470797
N           -4.09567582568764        2.26059538809011       -0.05049004168856
C           -2.67917000366668        2.13943988622354       -0.02450321474133
C           -1.89559054138580        3.29677066649719       -0.04660555688764
C           -0.51643069053803        3.23409256010501       -0.01132815494512
C            0.07507615949307        1.98092273034485        0.05682548412429
C           -0.70809214185880        0.80564165352859        0.04205453717567
C           -2.09261146762989        0.88502426018681        0.00882550059359
C            0.20926783664813       -0.30061807773852        0.04948852452859
C            0.02823104325212       -1.67589476697975        0.06359158616283
C            1.15078054761539       -2.48656743112344        0.09581083706524
N            1.00381994241932       -3.90102122914992        0.10761349930056
C            0.99081735184247       -4.58396863943345       -1.09793496987672
C            1.09859043065711       -3.87138308318111       -2.29545381311395
C            1.08688533343295       -4.52239291874097       -3.51095388039593
C            0.96631448077972       -5.89949723649509       -3.55311896265356
C            0.85906772751462       -6.60585310633958       -2.36933076593268
C            0.86866213569489       -5.97668090345663       -1.13211817184094
C            0.74850821511276       -6.80814019169292        0.13123380403643
C           -0.58750065318467       -7.57227972715642        0.09332664565249
C            1.92693565873826       -7.79754111609156        0.18350062597436
C            0.78082540609376       -5.94823278000849        1.38075322963984
C            0.68480191880389       -6.54944760662916        2.62794640451375
C            0.70979595024398       -5.81703004498576        3.80056455005322
C            0.83418691289960       -4.44121843578596        3.73595878072727
C            0.93127970705304       -3.81741775179032        2.51003292951412
C            0.90594865874912       -4.55614364198830        1.32351103189536
C            2.43375777395436       -1.93285601884415        0.13093257271296
C            2.63067649587285       -0.56586196711016        0.11784881734832
C            1.51011125598338        0.25018702724634        0.05700270841116
N            1.41791738490668        1.63450849546950        0.06977857445383
C            2.48627285094034        2.52257353705828        0.09470513954869
C            2.47890243814031        3.61704597557140        0.96592810749172
C            3.54091950361615        4.50131708319948        0.98605703698691
C            4.62277954880920        4.30093438798794        0.14445721612279
C            4.64036136509147        3.21508804185535       -0.70729814941693
C            3.58656547569690        2.32671843619145       -0.74438784641285
S            6.04810548574846        2.92854457006040       -1.78835037738370
O            6.08135253923649        1.51887675280292       -2.07702214348211
O            6.00213481599365        3.83103688751845       -2.89560339694398
C            7.46637023722869        3.30673649830360       -0.75250260629280
C            8.58287832510924        2.49164112848563       -0.80946867222435
C            9.68543919702850        2.78921444832876       -0.02288937863292
C            9.66144442798495        3.88847703918161        0.82283861662170
C            8.53470804910312        4.69438851938813        0.88514733397477
C            7.44235319782803        4.39994819048833        0.08888247058890
S            5.99198242853318        5.45826031016060        0.15056893162699
O            5.99133894459906        6.13440804809429        1.42033822663742
O            5.93934032733164        6.26303655410291       -1.03034880299303
C           -4.77554389516382        2.41689200586584        1.14579956778271
C           -4.06420184582042        2.41462957523375        2.34915280914985
C           -4.71237720177987        2.56884423462486        3.55642519926060
C           -6.08594420602292        2.72680759432439        3.58499825267120
C           -6.79180569386817        2.72450842870420        2.39595174738318
C           -6.16552695295965        2.57151094647915        1.16689667364797
H           -8.63222543147569        1.38881822349867       -0.91893586077088
H           -7.47506811066926        0.46565181718821        0.04024387379392
H           -8.65056175492563        1.51157287893726        0.83747078265096
H           -8.35891267056444        3.95427813348041       -1.09471957874009
H           -8.37592853752642        4.07760912549072        0.66143844591708
H           -7.01908093005206        4.73478261033973       -0.25424238886392
H           -7.81189953302253        2.48818590767380       -2.66819002777452
H           -6.50951982953181        2.21841563864958       -4.71280638960069
H           -4.04522016317376        1.97273742919191       -4.57580048391995
H           -2.93941966385618        1.99791497569643       -2.39564521420255
H           -2.39087191806854        4.25450015830706       -0.09637052207291
H            0.07338799492878        4.13611248425495       -0.05596128559892
H           -2.70398552897826       -0.00377706559926        0.00036686438139
H           -0.95924844674106       -2.11026535141559        0.05529686747880
H            1.19305082476024       -2.79650656085482       -2.26847887142447
H            1.17231013496854       -3.95135720119196       -4.42337224928429
H            0.95572284510278       -6.42106164799028       -4.49796418432550
H            0.76541232302088       -7.68028312865441       -2.41771446571490
H           -0.64363719666227       -8.21267750837822       -0.78254899940671
H           -0.70498330649466       -8.19335462095265        0.97705306823766
H           -1.41578425684488       -6.86707688329312        0.05663636506627
H            1.93036374327041       -8.44371596043419       -0.68989399673885
H            2.86775197360895       -7.25076075805541        0.20960810207563
H            1.86962827201922       -8.42371262519773        1.06955941112991
H            0.58737102709734       -7.62260177061450        2.69370040273515
H            0.63264547577578       -6.31736583059863        4.75379081895707
H            0.85555711713976       -3.84978457794175        4.63935505057535
H            1.02831022934751       -2.74318587833331        2.46572694523971
H            3.28239100142505       -2.59847206976777        0.17124821980620
H            3.62832401069447       -0.15838480972045        0.16194168537960
H            1.64757241647785        3.75393908384374        1.64001184501828
H            3.56225653310185        5.34516151439569        1.65750733160044
H            3.62921048430650        1.50267005404877       -1.43862644618958
H            8.56262348947795        1.63690494416344       -1.46712049581689
H           10.56227214346036        2.16176855121876       -0.06937164560256
H           10.51956716136643        4.11798528130887        1.43571060529548
H            8.47684390620867        5.54859986502855        1.54124185555109
H           -2.99219408800179        2.28853359542474        2.33282359964219
H           -4.14204098504360        2.56421807567833        4.47349774607829
H           -6.60520509949282        2.84928892399266        4.52321445393209
H           -7.86377525728739        2.84649287603201        2.43381775746205

          :  Hamiltonian                  GFN2-xTB          :
         :: gradient norm              0.000095554599 Eh/a0 ::
         :: HOMO-LUMO gap              1.205366996216 eV    ::
         :: SCC energy              -170.920363290450 Eh    ::
         :: -> dispersion             -0.158900271885 Eh    ::
         :: repulsion energy           2.782495257778 Eh    ::

    * Orbital Energies and Occupations

         #    Occupation            Energy/Eh            Energy/eV
      -------------------------------------------------------------
         1        2.0000           -0.7962159             -21.6661
       ...           ...                  ...                  ...
       142        2.0000           -0.4088384             -11.1251
       143        2.0000           -0.4058760             -11.0444
       144        2.0000           -0.4055922             -11.0367
       145        2.0000           -0.4041755             -10.9982
       146        2.0000           -0.4013777             -10.9220
       147        2.0000           -0.4008215             -10.9069
       148        2.0000           -0.3962251             -10.7818
       149        2.0000           -0.3959324             -10.7739
       150        2.0000           -0.3909272             -10.6377
       151        2.0000           -0.3905795             -10.6282
       152        2.0000           -0.3897370             -10.6053
       153        2.0000           -0.3450558              -9.3894
       154        2.0000           -0.3444670              -9.3734 (HOMO)
       155                         -0.3001704              -8.1681 (LUMO)
       156                         -0.2851982              -7.7606
       157                         -0.2834151              -7.7121
       158                         -0.2775332              -7.5521
       159                         -0.2697808              -7.3411
       160                         -0.2490841              -6.7779
       161                         -0.2230119              -6.0685
       162                         -0.2221431              -6.0448
       163                         -0.2218409              -6.0366
       164                         -0.2175002              -5.9185
       165                         -0.2172721              -5.9123
       ...                                ...                  ...
       303                          1.2424866              33.8098
      -------------------------------------------------------------
                  HL-Gap            0.0442965 Eh            1.2054 eV

     #   Z          covCN         q      C6AA      α(0)
     1   6 C        3.761    -0.103    22.515     6.764
     2   6 C        3.909     0.021    20.159     6.382
     3   6 C        3.761    -0.103    22.515     6.764
     4   6 C        2.979    -0.014    28.366     8.736
     5   6 C        2.928    -0.036    28.900     8.816
     6   6 C        2.917    -0.045    29.114     8.848
     7   6 C        2.920    -0.033    28.822     8.804
     8   6 C        2.924    -0.060    29.479     8.904
     9   6 C        2.928     0.058    26.711     8.476
    10   7 N        2.755    -0.072    22.630     7.065
    11   6 C        2.928     0.065    26.545     8.449
    12   6 C        2.926    -0.039    28.966     8.826
    13   6 C        2.909    -0.049    29.228     8.865
    14   6 C        3.067     0.044    26.947     8.512
    15   6 C        3.066    -0.010    28.204     8.708
    16   6 C        2.915    -0.039    28.981     8.828
    17   6 C        3.067    -0.010    28.200     8.708
    18   6 C        2.915    -0.040    28.984     8.828
    19   6 C        2.928     0.065    26.541     8.449
    20   7 N        2.755    -0.072    22.627     7.065
    21   6 C        2.929     0.058    26.710     8.476
    22   6 C        2.924    -0.059    29.472     8.903
    23   6 C        2.920    -0.033    28.818     8.803
    24   6 C        2.917    -0.045    29.114     8.848
    25   6 C        2.928    -0.036    28.902     8.816
    26   6 C        2.979    -0.015    28.369     8.737
    27   6 C        3.909     0.021    20.160     6.382
    28   6 C        3.761    -0.103    22.515     6.764
    29   6 C        3.761    -0.103    22.515     6.764
    30   6 C        2.979    -0.014    28.364     8.736
    31   6 C        2.928    -0.036    28.902     8.817
    32   6 C        2.917    -0.045    29.130     8.851
    33   6 C        2.920    -0.034    28.835     8.806
    34   6 C        2.924    -0.060    29.496     8.906
    35   6 C        2.928     0.058    26.706     8.475
    36   6 C        2.927    -0.038    28.945     8.823
    37   6 C        2.909    -0.049    29.211     8.862
    38   6 C        3.066     0.044    26.952     8.513
    39   7 N        2.801    -0.030    21.829     6.939
    40   6 C        2.912     0.079    26.231     8.398
    41   6 C        2.923    -0.038    28.937     8.822
    42   6 C        2.953    -0.018    28.468     8.751
    43   6 C        2.999    -0.089    30.220     9.018
    44   6 C        3.003    -0.081    30.011     8.986
    45   6 C        2.964    -0.037    28.919     8.821
    46  16 S        3.842     0.984   107.102    17.418
    47   8 O        0.860    -0.536    24.604     6.650
    48   8 O        0.860    -0.518    24.195     6.595
    49   6 C        3.002    -0.081    29.998     8.984
    50   6 C        2.957    -0.018    28.446     8.748
    51   6 C        2.920    -0.017    28.441     8.745
    52   6 C        2.920    -0.017    28.439     8.745
    53   6 C        2.956    -0.018    28.446     8.748
    54   6 C        3.001    -0.080    29.993     8.984
    55  16 S        3.839     0.980   107.226    17.428
    56   8 O        0.860    -0.533    24.527     6.640
    57   8 O        0.860    -0.521    24.244     6.602
    58   6 C        2.929     0.058    26.705     8.475
    59   6 C        2.924    -0.060    29.492     8.906
    60   6 C        2.920    -0.033    28.833     8.806
    61   6 C        2.917    -0.045    29.125     8.850
    62   6 C        2.928    -0.036    28.899     8.816
    63   6 C        2.979    -0.014    28.362     8.736
    64   1 H        0.925     0.039     2.459     2.452
    65   1 H        0.925     0.031     2.571     2.508
    66   1 H        0.925     0.039     2.463     2.454
    67   1 H        0.925     0.039     2.459     2.452
    68   1 H        0.925     0.039     2.462     2.454
    69   1 H        0.925     0.031     2.574     2.509
    70   1 H        0.926     0.030     2.590     2.517
    71   1 H        0.926     0.026     2.641     2.541
    72   1 H        0.926     0.027     2.626     2.534
    73   1 H        0.926     0.021     2.717     2.578
    74   1 H        0.926     0.049     2.328     2.386
    75   1 H        0.926     0.040     2.449     2.447
    76   1 H        0.926     0.051     2.308     2.376
    77   1 H        0.926     0.051     2.308     2.376
    78   1 H        0.926     0.022     2.706     2.572
    79   1 H        0.926     0.028     2.618     2.530
    80   1 H        0.926     0.026     2.641     2.541
    81   1 H        0.926     0.030     2.593     2.518
    82   1 H        0.925     0.039     2.459     2.452
    83   1 H        0.925     0.039     2.464     2.455
    84   1 H        0.925     0.031     2.571     2.507
    85   1 H        0.925     0.039     2.458     2.452
    86   1 H        0.925     0.031     2.575     2.509
    87   1 H        0.925     0.039     2.465     2.455
    88   1 H        0.926     0.030     2.591     2.517
    89   1 H        0.926     0.025     2.654     2.548
    90   1 H        0.926     0.025     2.655     2.548
    91   1 H        0.926     0.020     2.739     2.588
    92   1 H        0.926     0.050     2.318     2.381
    93   1 H        0.926     0.041     2.440     2.443
    94   1 H        0.926     0.076     2.024     2.225
    95   1 H        0.926     0.084     1.934     2.175
    96   1 H        0.926     0.087     1.909     2.161
    97   1 H        0.926     0.082     1.959     2.189
    98   1 H        0.926     0.071     2.069     2.249
    99   1 H        0.926     0.071     2.069     2.249
   100   1 H        0.926     0.082     1.955     2.187
   101   1 H        0.926     0.020     2.739     2.588
   102   1 H        0.926     0.025     2.652     2.546
   103   1 H        0.926     0.026     2.650     2.546
   104   1 H        0.926     0.030     2.589     2.516

molecular dipole:
                 x           y           z       tot (Debye)
 q only:        0.375      -1.374       1.969
   full:        0.597      -1.137       1.881       5.790

 projected vibrational frequencies (cm⁻¹)
eigval :       -0.00    -0.00     0.00     0.00     0.00     0.00
eigval :       -2.65    -1.72    10.72    12.70    13.82    14.61
eigval :       21.99    29.55    31.91    34.32    48.28    53.23
eigval :       78.51    83.28    87.56    91.11    94.67    96.21
eigval :      101.39   102.01   109.74   115.17   118.79   123.91
eigval :      129.17   129.34   136.59   169.84   176.30   183.45
eigval :      190.60   190.70   200.19   204.01   217.80   220.08
eigval :      220.09   230.72   235.14   237.84   241.08   250.66
eigval :      258.65   268.80   288.17   304.17   304.30   316.44
eigval :      325.58   330.73   330.78   330.96   339.66   344.69
eigval :      347.55   352.96   359.44   366.64   377.78   380.38
eigval :      384.74   393.56   401.95   407.38   411.19   413.37
eigval :      423.58   435.07   438.75   450.61   450.65   459.05
eigval :      460.73   471.48   476.23   485.56   500.77   503.70
eigval :      514.40   515.63   515.65   526.69   535.21   536.86
eigval :      547.53   547.58   550.05   551.36   556.80   570.27
eigval :      581.60   586.03   587.26   611.47   613.31   632.49
eigval :      638.62   647.73   658.01   665.71   673.91   677.61
eigval :      682.41   682.42   684.84   686.23   692.46   693.24
eigval :      693.26   708.74   710.19   718.55   737.94   772.96
eigval :      775.81   776.15   777.25   777.49   780.70   809.69
eigval :      816.16   818.37   827.18   828.26   842.25   863.60
eigval :      863.94   864.74   865.13   872.92   878.00   884.07
eigval :      894.14   895.50   909.96   912.56   912.60   913.51
eigval :      913.56   916.18   917.56   919.67   920.39   920.42
eigval :      920.91   921.00   922.48   931.21   931.40   938.24
eigval :      938.52   951.71   957.06   957.10   958.64   991.71
eigval :      998.09  1014.29  1014.29  1014.69  1032.51  1070.18
eigval :     1077.46  1077.48  1083.47  1084.83  1102.52  1112.86
eigval :     1113.00  1118.38  1119.36  1119.41  1121.75  1139.59
eigval :     1140.89  1140.92  1143.42  1147.79  1150.34  1153.48
eigval :     1160.64  1160.69  1161.48  1169.84  1173.54  1184.93
eigval :     1186.87  1187.46  1187.63  1187.80  1188.53  1189.64
eigval :     1204.22  1212.88  1223.96  1233.51  1238.02  1245.85
eigval :     1249.73  1249.88  1251.43  1264.21  1267.96  1268.52
eigval :     1269.79  1278.49  1294.75  1294.77  1312.15  1314.94
eigval :     1318.05  1324.00  1326.36  1326.39  1334.13  1335.80
eigval :     1335.85  1346.25  1346.96  1349.81  1366.34  1388.92
eigval :     1402.61  1402.68  1406.81  1411.77  1420.72  1420.86
eigval :     1426.06  1429.55  1437.05  1437.57  1444.83  1445.33
eigval :     1466.65  1470.35  1481.44  1481.94  1482.69  1490.13
eigval :     1490.18  1490.98  1491.02  1496.93  1498.83  1500.71
eigval :     1500.75  1505.51  1505.65  1546.71  1563.13  1563.91
eigval :     1570.95  1575.66  1575.98  1576.10  1584.21  1590.75
eigval :     1591.18  1593.41  1593.71  1595.60  1602.75  1603.18
eigval :     1611.05  3026.46  3026.52  3028.76  3028.77  3039.14
eigval :     3039.32  3041.91  3042.09  3048.07  3048.21  3051.96
eigval :     3052.14  3076.33  3076.57  3078.20  3078.40  3081.76
eigval :     3082.00  3082.60  3082.68  3091.38  3091.61  3092.27
eigval :     3092.42  3092.75  3093.20  3094.60  3097.61  3097.78
eigval :     3099.16  3099.46  3100.35  3100.54  3101.75  3104.02
eigval :     3104.70  3105.55  3108.51  3109.96  3110.35  3112.21

   temp. (K)  partition function   enthalpy   heat capacity  entropy
                                   cal/mol     cal/K/mol   cal/K/mol   J/K/mol
 298.15  VIB  0.553E+27            31914.195    197.666    201.967
         ROT  0.250E+09              888.752      2.981     41.409
         INT  0.138E+36            32802.947    200.647    243.377
         TR   0.244E+29             1481.254      4.968     46.111
         TOT                       34284.2011   205.6152   289.4878  1211.2168

       T/K    H(0)-H(T)+PV         H(T)/Eh          T*S/Eh         G(T)/Eh
   ------------------------------------------------------------------------
    298.15    0.546354E-01    0.849316E+00    0.137545E+00    0.711771E+00
   ------------------------------------------------------------------------

         :::::::::::::::::::::::::::::::::::::::::::::::::::::
         ::                  THERMODYNAMIC                  ::
         :::::::::::::::::::::::::::::::::::::::::::::::::::::
         :: total free energy        -167.426097490381 Eh   ::
         ::.................................................::
         :: total energy             -168.137868032673 Eh   ::
         :: zero point energy           0.794680165161 Eh   ::
         :: G(RRHO) w/o ZPVE           -0.082909622869 Eh   ::
         :: G(RRHO) contrib.            0.711770542292 Eh   ::
         :::::::::::::::::::::::::::::::::::::::::::::::::::::

           -------------------------------------------------
          | TOTAL ENERGY             -168.137868032673 Eh   |
          | TOTAL ENTHALPY           -167.288552515423 Eh   |
          | TOTAL FREE ENERGY        -167.426097490381 Eh   |
          | GRADIENT NORM               0.000095520185 Eh/α |
          | HOMO-LUMO GAP               1.205369888969 eV   |
           -------------------------------------------------

 * finished run on 2025/08/24 at 12:17:16.448
