   * xtb version 6.7.1 (edcfbbe) compiled by 'albert@albert-system' on 2024-07-22

   ID    Z sym.   atoms
    1    6 C      1-9, 11-19, 21-38, 40-45, 49-54, 58-63
    2    7 N      10, 20, 39
    3   16 S      46, 55
    4    8 O      47, 48, 56, 57
    5    1 H      64-104

          program call               : xtb data2507/gas/DMAC-Cz-TTR/DMAC-Cz-TTR_gas_S0_finalOpt.xtbopt.xyz --gfn 2 --spinpol --tblite --uhf 2 --ohess vtight --parallel 40 --molden --ceasefiles --namespace data2507/gas/DMAC-Cz-TTR/DMAC-Cz-TTR_gas_T1_preOpt
 * total energy  :  -168.0509283 Eh     change       -0.1964025E-07 Eh
 * total energy  :  -168.0534163 Eh     change       -0.2488056E-02 Eh
 * total energy  :  -168.0541770 Eh     change       -0.7607129E-03 Eh
 * total energy  :  -168.0543165 Eh     change       -0.1394611E-03 Eh
 * total energy  :  -168.0544826 Eh     change       -0.1660959E-03 Eh
 * total energy  :  -168.0545880 Eh     change       -0.1054240E-03 Eh
 * total energy  :  -168.0547018 Eh     change       -0.1138126E-03 Eh
 * total energy  :  -168.0547942 Eh     change       -0.9240201E-04 Eh
 * total energy  :  -168.0548559 Eh     change       -0.6170920E-04 Eh
 * total energy  :  -168.0549158 Eh     change       -0.5982265E-04 Eh
 * total energy  :  -168.0567546 Eh     change       -0.6215909E-06 Eh
 * total energy  :  -168.0567552 Eh     change       -0.5570166E-06 Eh
 * total energy  :  -168.0567557 Eh     change       -0.4946567E-06 Eh
 * total energy  :  -168.0567562 Eh     change       -0.4628160E-06 Eh
 * total energy  :  -168.0567566 Eh     change       -0.4264433E-06 Eh
 * total energy  :  -168.0567570 Eh     change       -0.3969797E-06 Eh
 * total energy  :  -168.0567578 Eh     change       -0.8524875E-06 Eh
 * total energy  :  -168.0567578 Eh     change        0.1364072E-07 Eh
 * total energy  :  -168.0567578 Eh     change       -0.1266429E-07 Eh
   *** GEOMETRY OPTIMIZATION CONVERGED AFTER 95 ITERATIONS ***

 final structure:
================
104
 xtb: 6.7.1 (edcfbbe)
C           -5.20431871918093        6.55114133334737       -0.87674179177752
C           -3.84195836116908        6.52288430837238       -0.15796358111349
C           -3.50778353353505        7.91676987152228        0.40662928783382
C           -2.77749972269009        6.13415988982094       -1.16122625810147
C           -2.58087704575090        6.92104073064687       -2.28829138977855
C           -1.65024856680435        6.59379671363148       -3.25641092713792
C           -0.90538602365934        5.43311753466749       -3.11953282576903
C           -1.07930571221386        4.63364239520974       -2.01266915541561
C           -1.99105658433449        4.98344546657075       -1.00647341341403
N           -2.13232989667502        4.16847262910763        0.10202346082685
C           -1.28805678299381        3.03573909967934        0.23514773289992
C            0.08278800116836        3.23421191470996        0.45018451528171
C            0.94557702312766        2.15169897062375        0.57457996875516
C            0.41846553515600        0.88007901060921        0.45952209720035
C           -0.98204381735117        0.66565345579691        0.27436409942856
C           -1.83646861342443        1.76422829510069        0.15729511213752
C           -1.18409430899506       -0.73706607613675        0.27114799090260
C           -2.31419246484244       -1.54706508572094        0.13705585002659
C           -2.14170882429672       -2.92216791003926        0.12754258527844
N           -3.27283472991658       -3.76685369284495       -0.02712091578373
C           -3.40936247228260       -4.49808456151725       -1.19262748648110
C           -2.48258877276893       -4.32703081115102       -2.23044884696138
C           -2.58050134777448       -5.05555037552413       -3.39443983138593
C           -3.61523168539676       -5.96279082106017       -3.55606144642393
C           -4.55618055900242       -6.10354505715856       -2.55343278204198
C           -4.48405297214411       -5.38090375842994       -1.37001633731813
C           -5.57096037325232       -5.54502860748021       -0.32926194586460
C           -6.91899798095980       -5.15739819052270       -0.96630408681796
C           -5.60187795494297       -7.01466058435977        0.13129035606556
C           -5.33069265685885       -4.66832871339715        0.88129589038357
C           -6.23598214999444       -4.69507317598901        1.93356343734941
C           -6.04786825075733       -3.94848257872110        3.08149564228589
C           -4.91027842092377       -3.16724174916508        3.20458479778942
C           -3.99458159396215       -3.12205398240214        2.17758152176463
C           -4.20098339716304       -3.84476419760453        0.99414400342048
C           -0.87317904098572       -3.50468137709829        0.25224123789416
C            0.25816728259569       -2.71287911379276        0.41967942111568
C            0.10049036984423       -1.34121103120771        0.44268969616588
N            1.04955649114619       -0.34454827205650        0.55500348360070
C            2.42150268374330       -0.52030955402853        0.70639037335106
C            2.93564339776735       -1.44349065717472        1.65125027582125
C            4.29348138285920       -1.57228138103181        1.81563121782706
C            5.17490820368876       -0.78533221733841        1.08011117657733
C            4.66665478201136        0.10906215703851        0.12840178234953
C            3.31109710809257        0.22953755547898       -0.06489720510180
S            5.78197911769447        1.02944717749133       -0.91050292063419
O            5.04855409529619        1.42532041444874       -2.09201442210119
O            6.41273563218811        2.08406317132260       -0.17194516865817
C            6.96663083361472       -0.21657151260670       -1.38989652860961
C            7.32792832636534       -0.35368096576334       -2.71958313296755
C            8.20610100906860       -1.35535596091034       -3.09286143617843
C            8.70276529805336       -2.23975699653585       -2.13668656669092
C            8.31985780046228       -2.11657533803648       -0.81353719818383
C            7.46112924011928       -1.09667048353392       -0.43670006921936
S            6.92699988610083       -0.95723428464450        1.26261936546753
O            7.18786668269843       -2.21877925449427        1.91592416952014
O            7.50065565631736        0.21183000104141        1.86411408487394
C           -3.05854527915900        4.43889127480222        1.09133832855277
C           -3.11846125638759        3.62190280610817        2.22952015125205
C           -4.04348617326248        3.85575750264475        3.22170970356752
C           -4.92163889523533        4.92180814355480        3.10981575264926
C           -4.83813124478188        5.75613426048432        2.01098663054268
C           -3.91606331375908        5.54490061296624        0.99471679543823
H           -5.43270233755594        5.56532268505275       -1.27737492387104
H           -5.99750153342663        6.83571446609074       -0.19146008442692
H           -5.19419032627066        7.26126831140880       -1.69835203187640
H           -4.26459358174162        8.23992372243106        1.11548969603861
H           -2.54749411082583        7.88897251004041        0.91775646678394
H           -3.45128171070208        8.65281775221465       -0.39000410877043
H           -3.16961834081941        7.81570585285243       -2.42022692887496
H           -1.51807689130158        7.23116262646554       -4.11683286745409
H           -0.19202792526624        5.14799941713940       -3.87703358840586
H           -0.50895525579693        3.72375289795072       -1.92081432543088
H            0.46059063398579        4.24030471607391        0.53631645842918
H            1.99246249956150        2.31284572006909        0.77549229922012
H           -2.89418091205121        1.63242040484002       -0.01136410724443
H           -3.29646673967980       -1.11695752870979        0.01634138759563
H           -1.68578093664461       -3.60975838226340       -2.11760746465734
H           -1.85238916115835       -4.91120410995216       -4.17775350764544
H           -3.69794570226895       -6.54412460131883       -4.46123930070936
H           -5.36971854385501       -6.79646890762155       -2.70346574491166
H           -7.13498173122833       -5.78293104524247       -1.82744429410691
H           -7.73065251540502       -5.26926912449978       -0.25329625412333
H           -6.88927498193207       -4.11998759274863       -1.29400604087614
H           -5.77924251010128       -7.67937492499089       -0.70921644023919
H           -4.64933046869194       -7.28088400973223        0.58530966032859
H           -6.38765474133985       -7.17490248335188        0.86382979650737
H           -7.11402976214683       -5.31831795579396        1.86232918872220
H           -6.77372085937098       -3.98947395795163        3.87877271738267
H           -4.73221948235186       -2.59885773252522        4.10458261106124
H           -3.10117175328582       -2.52893547297751        2.28803173876234
H           -0.78411795563119       -4.57916278563001        0.22921538031759
H            1.22879158252857       -3.17111711814640        0.51781582550078
H            2.25106268999209       -2.00793035514959        2.26424333110643
H            4.71349119565092       -2.26726762181096        2.52566421042328
H            2.96046624499197        0.88924685039780       -0.84346611358976
H            6.90671716961527        0.33449162973900       -3.43572417655123
H            8.50378645466065       -1.45500657534669       -4.12551532213215
H            9.38460050262454       -3.02321400651852       -2.43049792095490
H            8.66946632644870       -2.79413702837109       -0.05028589548379
H           -2.42252746094971        2.80527948857523        2.33377464897414
H           -4.07342203754260        3.21142541443410        4.08693114838646
H           -5.65266068894582        5.11290572998457        3.88004717934161
H           -5.51087914283033        6.59763578347745        1.95052339198889

 projected vibrational frequencies (cm⁻¹)
eigval :       -0.00    -0.00    -0.00    -0.00     0.00     0.00
eigval :       10.13    11.60    11.74    13.45    13.51    16.47
eigval :       21.42    30.18    35.74    38.28    55.16    61.39
eigval :       83.48    86.17    88.45    91.43    94.56    99.08
eigval :      102.57   111.21   116.72   120.57   123.53   126.48
eigval :      127.92   129.45   143.18   161.91   176.27   186.41
eigval :      190.93   191.15   202.62   208.60   216.20   218.51
eigval :      223.83   226.71   237.73   238.50   250.39   254.28
eigval :      265.04   276.79   290.80   303.84   304.21   320.35
eigval :      326.92   328.44   329.11   334.33   335.49   342.98
eigval :      346.08   352.39   358.81   360.11   377.18   379.42
eigval :      383.09   388.16   393.83   405.75   410.00   411.28
eigval :      421.84   423.25   434.10   440.14   449.68   452.20
eigval :      452.60   468.38   479.03   498.15   503.29   506.28
eigval :      507.39   511.65   516.85   518.49   529.85   534.89
eigval :      542.26   544.14   544.64   546.32   552.41   559.68
eigval :      563.01   584.89   585.14   604.23   612.13   617.97
eigval :      637.83   639.36   644.78   646.14   657.97   665.30
eigval :      667.58   672.18   678.24   682.13   687.23   687.68
eigval :      700.55   701.27   707.33   715.62   734.31   765.33
eigval :      769.44   774.75   775.29   776.42   776.81   789.53
eigval :      794.25   805.77   809.45   825.20   825.85   827.45
eigval :      830.12   867.90   870.46   871.25   872.08   872.79
eigval :      876.33   878.48   884.74   904.11   907.72   912.69
eigval :      913.07   913.15   915.66   915.97   916.26   916.82
eigval :      916.87   922.89   923.14   923.42   924.12   936.15
eigval :      937.36   938.79   947.09   958.08   958.20   984.88
eigval :      987.82  1005.93  1013.62  1013.64  1026.17  1064.57
eigval :     1075.66  1075.86  1081.49  1082.87  1087.39  1098.52
eigval :     1104.62  1109.25  1109.48  1115.01  1115.53  1118.21
eigval :     1128.28  1132.08  1139.04  1139.15  1147.17  1152.10
eigval :     1152.35  1153.15  1157.74  1165.83  1172.55  1181.95
eigval :     1183.79  1184.69  1184.97  1185.47  1186.99  1189.67
eigval :     1193.19  1212.58  1215.77  1228.35  1230.00  1235.10
eigval :     1239.70  1244.25  1245.06  1246.64  1254.11  1258.06
eigval :     1262.43  1264.30  1291.98  1294.18  1295.01  1296.03
eigval :     1309.60  1313.95  1323.97  1327.43  1329.40  1329.86
eigval :     1332.13  1334.66  1334.68  1338.09  1351.25  1373.46
eigval :     1377.84  1396.41  1402.26  1402.30  1402.33  1410.67
eigval :     1412.26  1413.59  1419.85  1419.97  1422.04  1424.39
eigval :     1428.93  1430.23  1438.93  1457.37  1458.94  1460.88
eigval :     1475.87  1478.65  1485.47  1486.78  1487.11  1487.66
eigval :     1488.00  1496.02  1497.76  1498.06  1501.23  1501.57
eigval :     1514.85  1532.01  1534.12  1538.16  1557.29  1558.69
eigval :     1570.03  1572.34  1578.38  1580.40  1581.13  1592.31
eigval :     1592.97  3029.87  3030.06  3031.76  3032.86  3044.97
eigval :     3045.51  3047.44  3047.93  3053.53  3054.11  3057.22
eigval :     3057.75  3085.64  3086.48  3086.96  3087.05  3088.18
eigval :     3091.07  3091.71  3092.38  3092.42  3093.72  3094.52
eigval :     3095.11  3096.62  3099.74  3099.90  3101.58  3101.73
eigval :     3102.09  3102.51  3104.01  3104.64  3105.65  3106.93
eigval :     3110.78  3111.06  3112.42  3113.23  3113.66  3116.64

   temp. (K)  partition function   enthalpy   heat capacity  entropy
                                   cal/mol     cal/K/mol   cal/K/mol   J/K/mol
 298.15  VIB  0.889E+25            31966.385    199.738    198.345
         ROT  0.247E+09              888.752      2.981     41.386
         INT  0.220E+34            32855.137    202.719    239.731
         TR   0.244E+29             1481.254      4.968     46.111
         TOT                       34336.3910   207.6869   285.8424  1195.9646

       T/K    H(0)-H(T)+PV         H(T)/Eh          T*S/Eh         G(T)/Eh
   ------------------------------------------------------------------------
    298.15    0.547185E-01    0.845343E+00    0.135813E+00    0.709530E+00
   ------------------------------------------------------------------------

         :::::::::::::::::::::::::::::::::::::::::::::::::::::
         ::                  THERMODYNAMIC                  ::
         :::::::::::::::::::::::::::::::::::::::::::::::::::::
         :: total free energy        -167.347227599698 Eh   ::
         ::.................................................::
         :: total energy             -168.056757834701 Eh   ::
         :: zero point energy           0.790624658736 Eh   ::
         :: G(RRHO) w/o ZPVE           -0.081094423734 Eh   ::
         :: G(RRHO) contrib.            0.709530235002 Eh   ::
         :::::::::::::::::::::::::::::::::::::::::::::::::::::

           -------------------------------------------------
          | TOTAL ENERGY             -168.056757834701 Eh   |
          | TOTAL ENTHALPY           -167.211414653894 Eh   |
          | TOTAL FREE ENERGY        -167.347227599698 Eh   |
          | GRADIENT NORM               0.000058262161 Eh/α |
           -------------------------------------------------

 * finished run on 2025/08/24 at 12:26:14.096
