   * xtb version 6.7.1 (edcfbbe) compiled by 'albert@albert-system' on 2024-07-22

   ID    Z sym.   atoms
    1    6 C      1-9, 11-19, 21-38, 40-45, 49-54, 58-63
    2    7 N      10, 20, 39
    3   16 S      46, 55
    4    8 O      47, 48, 56, 57
    5    1 H      64-104

          program call               : xtb data2507/gas/DMAC-Cz-TTR/DMAC-Cz-TTR_gas_S0_crest.xyz --gfn 2 --ohess vtight --parallel 40 --molden --ceasefiles --namespace data2507/gas/DMAC-Cz-TTR/DMAC-Cz-TTR_gas_S0_finalOpt
          :  Hamiltonian                  GFN2-xTB          :
 * total energy  :  -168.1378939 Eh     change       -0.7169291E-08 Eh
 * total energy  :  -168.1378950 Eh     change       -0.1078803E-05 Eh
 * total energy  :  -168.1378957 Eh     change       -0.7416572E-06 Eh
 * total energy  :  -168.1378974 Eh     change       -0.1679169E-05 Eh
 * total energy  :  -168.1378998 Eh     change       -0.2419576E-05 Eh
 * total energy  :  -168.1379024 Eh     change       -0.2581083E-05 Eh
 * total energy  :  -168.1379043 Eh     change       -0.1926643E-05 Eh
 * total energy  :  -168.1379056 Eh     change       -0.1273515E-05 Eh
 * total energy  :  -168.1379069 Eh     change       -0.1251560E-05 Eh
 * total energy  :  -168.1379086 Eh     change       -0.1726336E-05 Eh
 * total energy  :  -168.1379301 Eh     change       -0.1981360E-06 Eh
 * total energy  :  -168.1379303 Eh     change       -0.1797190E-06 Eh
 * total energy  :  -168.1379304 Eh     change       -0.1309779E-06 Eh
 * total energy  :  -168.1379306 Eh     change       -0.1078296E-06 Eh
 * total energy  :  -168.1379307 Eh     change       -0.1097270E-06 Eh
 * total energy  :  -168.1379308 Eh     change       -0.1166438E-06 Eh
 * total energy  :  -168.1379309 Eh     change       -0.1284854E-06 Eh
 * total energy  :  -168.1379310 Eh     change       -0.1305858E-06 Eh
 * total energy  :  -168.1379310 Eh     change       -0.4225626E-08 Eh
   *** GEOMETRY OPTIMIZATION CONVERGED AFTER 44 ITERATIONS ***

 final structure:
================
104
 xtb: 6.7.1 (edcfbbe)
C           -5.34784427915196        6.50947652857028       -0.59103684747515
C           -3.84347030331471        6.53390030370948       -0.26451959534088
C           -3.35571025864765        7.98567230313301       -0.10737016963718
C           -3.08738464467096        5.88905813434291       -1.41088367805968
C           -3.18101370473686        6.43270991865727       -2.68453280498872
C           -2.51674524053711        5.88607668972328       -3.76702393504456
C           -1.73496151781331        4.76022624964547       -3.58295389627162
C           -1.62450905549081        4.19896133348938       -2.32830562897433
C           -2.29115962322611        4.75330580385701       -1.23196068946249
N           -2.16069576892375        4.16601686064084        0.01599833057027
C           -1.31654028894973        3.03045249180760        0.15623732510005
C            0.04928306772246        3.21955596438838        0.38720866968230
C            0.91265142621912        2.15048301560882        0.52444326610928
C            0.38322254182098        0.87259504230484        0.41630986102046
C           -1.00006086900366        0.67171131001196        0.21439037713940
C           -1.85412770526597        1.75638971990845        0.07695903754178
C           -1.21532534289103       -0.74935724361393        0.21385245087977
C           -2.34525704861623       -1.53411696499049        0.03649080265041
C           -2.20142472636052       -2.91162644101747        0.06500792397503
N           -3.33804322053693       -3.74902331607638       -0.10388998434973
C           -3.63094501067401       -4.23754036353607       -1.36655807453947
C           -2.83712204028158       -3.86075360494852       -2.45365453599134
C           -3.10248489933761       -4.33165190012958       -3.72223509513933
C           -4.16891528211988       -5.18729466983610       -3.92993726881857
C           -4.95973015298610       -5.55510435298247       -2.85697784317147
C           -4.71592657116981       -5.09648270174457       -1.56988177308659
C           -5.62545321226790       -5.53104025044949       -0.43603975304574
C           -7.05968046074524       -5.06888413176244       -0.75169149092615
C           -5.57305559908303       -7.06544161923326       -0.32139617969974
C           -5.20229680186408       -4.93101979134577        0.89158563144667
C           -5.92524702699012       -5.22846772206465        2.03846033948464
C           -5.58241880621609       -4.71663414546716        3.27634587766352
C           -4.48374413837173       -3.88355150686026        3.38305008761322
C           -3.74752616142421       -3.57120747242871        2.25972691254663
C           -4.09577088682073       -4.08332494925031        1.00661510099982
C           -0.94520957085586       -3.49747062522318        0.24497198256147
C            0.18932377221374       -2.72979309283071        0.42043836671517
C            0.04557920774432       -1.34986625857370        0.42724691067999
N            1.00762314720102       -0.35954772837126        0.54942883732169
C            2.36509319193690       -0.55918560532680        0.76849255836813
C            2.80515566765704       -1.47239054244216        1.73194629353724
C            4.15734093629646       -1.66275666044362        1.94724014291973
C            5.08233511601188       -0.92799380463324        1.22393587072581
C            4.65226112015936       -0.02464597442817        0.27305483797667
C            3.30818523771211        0.15695890727022        0.02591054069688
S            5.84385844841711        0.93901935276849       -0.66578964955308
O            5.21088040240605        1.33158608748671       -1.89682565904666
O            6.37052185358398        1.97580153459354        0.16605868699623
C            7.13424612749502       -0.24469705558288       -1.06174865085953
C            7.69146317742546       -0.24501350653056       -2.32802557296865
C            8.69443146907908       -1.15329757805389       -2.63118734441063
C            9.12374934181516       -2.06174354775265       -1.67478761222654
C            8.55190067610970       -2.06535277204616       -0.41148091749853
C            7.56055962935836       -1.14852071098616       -0.11034553572473
S            6.83596573545672       -1.13879122008057        1.53404744950268
O            7.02552947415757       -2.44483172172365        2.10683027975762
O            7.33029225348501       -0.01469529738353        2.26664537636182
C           -2.79899449730566        4.67238095727600        1.13614216998810
C           -2.62080621713373        4.04813587546916        2.37406395940835
C           -3.24619769495724        4.52663993471579        3.50602817482798
C           -4.06183071495246        5.64038125401770        3.42336152466557
C           -4.23548992167190        6.26200136805939        2.20052987705564
C           -3.61821841527651        5.80247906826135        1.04546004186157
H           -5.68591463201364        5.48056085743879       -0.69964135398087
H           -5.92484032027776        6.97805553327026        0.20141832332173
H           -5.55249649480765        7.03714697487889       -1.51846062589169
H           -3.88630102823251        8.48901376125984        0.69610042129950
H           -2.29235267096484        7.99521678097687        0.12468806139924
H           -3.51162327450240        8.54899778090103       -1.02321842006946
H           -3.78936613043339        7.31026762238862       -2.84362582049978
H           -2.61087510480392        6.33557767623439       -4.74376182177953
H           -1.20928931935745        4.31571928754081       -4.41488553400708
H           -1.01449239748537        3.31911218134642       -2.19110151962300
H            0.42577563425939        4.22831987334082        0.46049322649074
H            1.95987615297030        2.31578823356900        0.72287485436143
H           -2.91263494097255        1.61890982941323       -0.07987128094339
H           -3.31518239830406       -1.09003295200108       -0.12421885731104
H           -2.00584044066297       -3.18986383241561       -2.29837150121138
H           -2.47515540887427       -4.02725644959873       -4.54685701714968
H           -4.38666295965393       -5.56371116119869       -4.91775262884624
H           -5.79133950418146       -6.22011424282429       -3.03479468633332
H           -7.40723316032315       -5.49410546575938       -1.68914556980157
H           -7.74660751970295       -5.37045876939326        0.03418898269170
H           -7.08839189655097       -3.98404602460663       -0.83520824456187
H           -5.88075180390643       -7.53512394974761       -1.25151215285656
H           -4.55743614156757       -7.38498641844332       -0.09498484432816
H           -6.22781315803824       -7.41834756123359        0.47051261297278
H           -6.78337643223392       -5.87997634231609        1.97079964343240
H           -6.16729760331867       -4.96847117339054        4.14774154847244
H           -4.19653231546103       -3.47507118915116        4.34055765216187
H           -2.88958874399437       -2.92230039537487        2.34950504732422
H           -0.87229935060849       -4.57442263921290        0.23833696637398
H            1.15471487369067       -3.19811091510302        0.53220139004856
H            2.08153967404678       -2.01070756355824        2.32417027888214
H            4.51997297259104       -2.36757364616839        2.67868210355770
H            3.01321634035343        0.83699763136271       -0.75761465019948
H            7.32349605278734        0.46489264001867       -3.05197297820095
H            9.13887878173566       -1.15294707728601       -3.61462458429920
H            9.90289910148223       -2.76953728617328       -1.91275729949163
H            8.85177272978710       -2.76682946663583        0.35108685553569
H           -1.98279449297460        3.18035941671392        2.44551001912732
H           -3.09374336649864        4.02785301184275        4.45163462404324
H           -4.55733920339975        6.02464534024716        4.30183956665065
H           -4.87230076032360        7.13237603510487        2.15163188287859

          :  Hamiltonian                  GFN2-xTB          :
         :: gradient norm              0.000046794799 Eh/a0 ::
         :: HOMO-LUMO gap              1.169742741239 eV    ::
         :: SCC energy              -170.920450775583 Eh    ::
         :: -> dispersion             -0.158874071787 Eh    ::
         :: repulsion energy           2.782519731991 Eh    ::

    * Orbital Energies and Occupations

         #    Occupation            Energy/Eh            Energy/eV
      -------------------------------------------------------------
         1        2.0000           -0.7962009             -21.6657
       ...           ...                  ...                  ...
       142        2.0000           -0.4077373             -11.0951
       143        2.0000           -0.4070196             -11.0756
       144        2.0000           -0.4042494             -11.0002
       145        2.0000           -0.4038433             -10.9891
       146        2.0000           -0.4022651             -10.9462
       147        2.0000           -0.3994680             -10.8701
       148        2.0000           -0.3973884             -10.8135
       149        2.0000           -0.3943427             -10.7306
       150        2.0000           -0.3921690             -10.6715
       151        2.0000           -0.3894727             -10.5981
       152        2.0000           -0.3890563             -10.5868
       153        2.0000           -0.3461383              -9.4189
       154        2.0000           -0.3430813              -9.3357 (HOMO)
       155                         -0.3000940              -8.1660 (LUMO)
       156                         -0.2850901              -7.7577
       157                         -0.2831584              -7.7051
       158                         -0.2775492              -7.5525
       159                         -0.2696567              -7.3377
       160                         -0.2488983              -6.7729
       161                         -0.2234071              -6.0792
       162                         -0.2228218              -6.0633
       163                         -0.2203117              -5.9950
       164                         -0.2184849              -5.9453
       165                         -0.2176638              -5.9229
       ...                                ...                  ...
       303                          1.2431088              33.8267
      -------------------------------------------------------------
                  HL-Gap            0.0429872 Eh            1.1697 eV

     #   Z          covCN         q      C6AA      α(0)
     1   6 C        3.761    -0.103    22.514     6.764
     2   6 C        3.909     0.021    20.159     6.382
     3   6 C        3.761    -0.103    22.516     6.764
     4   6 C        2.979    -0.014    28.364     8.736
     5   6 C        2.928    -0.036    28.901     8.816
     6   6 C        2.917    -0.045    29.118     8.849
     7   6 C        2.920    -0.033    28.822     8.804
     8   6 C        2.924    -0.059    29.477     8.903
     9   6 C        2.929     0.058    26.706     8.475
    10   7 N        2.755    -0.071    22.624     7.064
    11   6 C        2.928     0.066    26.533     8.447
    12   6 C        2.927    -0.037    28.928     8.820
    13   6 C        2.909    -0.048    29.191     8.859
    14   6 C        3.067     0.044    26.945     8.512
    15   6 C        3.066    -0.010    28.209     8.709
    16   6 C        2.915    -0.040    28.987     8.829
    17   6 C        3.066    -0.010    28.199     8.708
    18   6 C        2.915    -0.039    28.981     8.828
    19   6 C        2.928     0.064    26.556     8.451
    20   7 N        2.755    -0.072    22.628     7.065
    21   6 C        2.928     0.058    26.709     8.475
    22   6 C        2.924    -0.060    29.488     8.905
    23   6 C        2.920    -0.033    28.831     8.805
    24   6 C        2.917    -0.045    29.122     8.849
    25   6 C        2.928    -0.036    28.901     8.816
    26   6 C        2.979    -0.014    28.364     8.736
    27   6 C        3.909     0.021    20.159     6.382
    28   6 C        3.761    -0.103    22.516     6.764
    29   6 C        3.761    -0.103    22.514     6.764
    30   6 C        2.979    -0.014    28.365     8.736
    31   6 C        2.928    -0.036    28.899     8.816
    32   6 C        2.917    -0.045    29.119     8.849
    33   6 C        2.920    -0.033    28.828     8.805
    34   6 C        2.924    -0.060    29.487     8.905
    35   6 C        2.928     0.058    26.708     8.475
    36   6 C        2.926    -0.040    28.983     8.829
    37   6 C        2.909    -0.050    29.249     8.868
    38   6 C        3.066     0.044    26.957     8.514
    39   7 N        2.801    -0.030    21.830     6.939
    40   6 C        2.912     0.079    26.231     8.398
    41   6 C        2.922    -0.038    28.934     8.821
    42   6 C        2.954    -0.018    28.462     8.750
    43   6 C        3.000    -0.089    30.212     9.016
    44   6 C        3.003    -0.081    30.020     8.988
    45   6 C        2.964    -0.037    28.928     8.822
    46  16 S        3.845     0.983   107.125    17.420
    47   8 O        0.860    -0.535    24.566     6.645
    48   8 O        0.860    -0.520    24.220     6.598
    49   6 C        3.002    -0.080    29.997     8.984
    50   6 C        2.957    -0.018    28.446     8.748
    51   6 C        2.920    -0.017    28.441     8.745
    52   6 C        2.920    -0.017    28.439     8.745
    53   6 C        2.957    -0.018    28.446     8.748
    54   6 C        3.002    -0.080    29.992     8.984
    55  16 S        3.839     0.980   107.221    17.428
    56   8 O        0.860    -0.533    24.537     6.641
    57   8 O        0.860    -0.520    24.230     6.600
    58   6 C        2.928     0.058    26.706     8.475
    59   6 C        2.924    -0.060    29.486     8.905
    60   6 C        2.920    -0.033    28.827     8.805
    61   6 C        2.917    -0.045    29.122     8.849
    62   6 C        2.928    -0.036    28.900     8.816
    63   6 C        2.979    -0.014    28.363     8.736
    64   1 H        0.925     0.031     2.575     2.509
    65   1 H        0.925     0.039     2.463     2.454
    66   1 H        0.925     0.039     2.462     2.454
    67   1 H        0.925     0.039     2.463     2.454
    68   1 H        0.925     0.031     2.566     2.505
    69   1 H        0.925     0.039     2.461     2.453
    70   1 H        0.926     0.030     2.593     2.518
    71   1 H        0.926     0.026     2.648     2.545
    72   1 H        0.926     0.027     2.630     2.536
    73   1 H        0.926     0.021     2.715     2.577
    74   1 H        0.926     0.052     2.294     2.368
    75   1 H        0.926     0.043     2.415     2.430
    76   1 H        0.926     0.051     2.311     2.377
    77   1 H        0.926     0.051     2.306     2.374
    78   1 H        0.926     0.020     2.726     2.582
    79   1 H        0.926     0.026     2.644     2.543
    80   1 H        0.926     0.026     2.647     2.544
    81   1 H        0.926     0.030     2.589     2.516
    82   1 H        0.925     0.039     2.461     2.453
    83   1 H        0.925     0.039     2.460     2.452
    84   1 H        0.925     0.031     2.568     2.506
    85   1 H        0.925     0.039     2.461     2.453
    86   1 H        0.925     0.031     2.579     2.511
    87   1 H        0.925     0.039     2.459     2.452
    88   1 H        0.926     0.030     2.589     2.516
    89   1 H        0.926     0.026     2.644     2.543
    90   1 H        0.926     0.026     2.638     2.540
    91   1 H        0.926     0.020     2.727     2.582
    92   1 H        0.926     0.048     2.347     2.396
    93   1 H        0.926     0.037     2.488     2.466
    94   1 H        0.926     0.076     2.020     2.223
    95   1 H        0.926     0.084     1.935     2.175
    96   1 H        0.926     0.087     1.912     2.162
    97   1 H        0.926     0.082     1.958     2.188
    98   1 H        0.926     0.071     2.069     2.250
    99   1 H        0.926     0.071     2.069     2.250
   100   1 H        0.926     0.082     1.955     2.186
   101   1 H        0.926     0.020     2.730     2.584
   102   1 H        0.926     0.026     2.643     2.542
   103   1 H        0.926     0.026     2.650     2.545
   104   1 H        0.926     0.030     2.591     2.517

molecular dipole:
                 x           y           z       tot (Debye)
 q only:       -0.590      -1.901      -1.406
   full:       -0.270      -1.873      -1.325       5.871

 projected vibrational frequencies (cm⁻¹)
eigval :       -0.00    -0.00    -0.00     0.00     0.00     0.00
eigval :       -1.08     2.37    10.49    12.48    13.07    16.03
eigval :       22.38    29.60    32.28    34.49    49.24    53.39
eigval :       79.33    85.31    87.48    92.61    95.12    96.16
eigval :      101.35   104.14   105.74   116.35   119.18   123.79
eigval :      129.10   129.22   136.07   161.98   175.67   184.89
eigval :      190.51   190.62   201.25   205.35   217.03   220.05
eigval :      220.25   224.30   235.18   238.72   245.43   251.15
eigval :      258.10   271.79   289.56   304.15   304.21   317.32
eigval :      324.72   330.81   330.83   336.67   339.60   344.70
eigval :      345.77   352.89   359.04   364.98   378.26   380.06
eigval :      383.44   392.39   401.01   409.81   411.45   415.35
eigval :      423.26   434.40   441.73   450.54   450.67   450.84
eigval :      459.05   474.79   476.19   485.44   500.78   503.56
eigval :      515.62   515.64   516.75   527.32   535.51   536.87
eigval :      547.50   547.54   549.83   550.44   557.68   568.92
eigval :      583.23   586.11   587.23   611.35   613.06   632.06
eigval :      638.46   648.17   657.97   665.40   674.35   677.73
eigval :      682.42   682.47   684.19   686.77   692.20   693.24
eigval :      693.26   708.80   710.09   718.50   737.94   773.05
eigval :      775.76   776.14   777.15   777.43   780.74   809.59
eigval :      816.33   818.88   827.19   828.65   842.39   863.95
eigval :      864.20   864.55   864.84   873.46   878.06   884.09
eigval :      894.19   897.34   909.21   912.52   912.62   913.39
eigval :      913.48   916.67   917.34   920.50   920.64   920.65
eigval :      920.71   921.15   922.49   930.53   931.24   938.26
eigval :      938.54   951.83   957.13   957.16   959.16   991.71
eigval :      998.02  1014.28  1014.33  1014.51  1032.32  1070.10
eigval :     1077.48  1077.53  1083.50  1084.86  1102.06  1112.72
eigval :     1112.91  1118.55  1119.42  1119.47  1121.53  1139.65
eigval :     1140.85  1140.88  1143.51  1147.47  1150.38  1153.25
eigval :     1160.61  1160.68  1161.42  1169.83  1173.55  1184.99
eigval :     1186.86  1187.54  1187.74  1188.03  1188.57  1189.91
eigval :     1203.45  1212.83  1223.62  1233.60  1238.18  1245.95
eigval :     1249.75  1249.91  1251.15  1264.14  1267.84  1268.53
eigval :     1269.83  1278.77  1294.80  1294.83  1312.24  1315.05
eigval :     1317.77  1323.89  1326.24  1326.43  1334.12  1335.68
eigval :     1335.80  1345.90  1346.91  1350.32  1366.32  1389.30
eigval :     1402.66  1402.73  1406.98  1411.85  1420.72  1420.84
eigval :     1426.07  1429.19  1437.11  1437.67  1444.87  1445.36
eigval :     1466.79  1470.41  1481.31  1482.01  1482.80  1490.11
eigval :     1490.16  1491.03  1491.08  1496.95  1498.86  1500.63
eigval :     1500.65  1505.50  1505.64  1546.61  1563.22  1563.72
eigval :     1571.33  1575.60  1576.03  1576.18  1584.09  1590.73
eigval :     1591.16  1593.45  1593.75  1595.60  1602.83  1603.29
eigval :     1610.92  3026.36  3026.75  3028.84  3029.03  3039.12
eigval :     3039.40  3041.89  3042.18  3048.08  3048.29  3052.16
eigval :     3052.42  3077.15  3077.22  3077.52  3077.78  3082.06
eigval :     3082.20  3082.35  3082.43  3090.93  3092.04  3092.13
eigval :     3092.26  3092.35  3092.67  3095.21  3097.94  3098.16
eigval :     3098.94  3099.22  3100.39  3100.90  3101.61  3102.81
eigval :     3104.66  3106.13  3108.55  3109.60  3109.99  3110.82

   temp. (K)  partition function   enthalpy   heat capacity  entropy
                                   cal/mol     cal/K/mol   cal/K/mol   J/K/mol
 298.15  VIB  0.916E+27            31910.343    197.711    202.498
         ROT  0.252E+09              888.752      2.981     41.422
         INT  0.230E+36            32799.095    200.691    243.920
         TR   0.244E+29             1481.254      4.968     46.111
         TOT                       34280.3494   205.6596   290.0309  1213.4892

       T/K    H(0)-H(T)+PV         H(T)/Eh          T*S/Eh         G(T)/Eh
   ------------------------------------------------------------------------
    298.15    0.546292E-01    0.849321E+00    0.137803E+00    0.711518E+00
   ------------------------------------------------------------------------

         :::::::::::::::::::::::::::::::::::::::::::::::::::::
         ::                  THERMODYNAMIC                  ::
         :::::::::::::::::::::::::::::::::::::::::::::::::::::
         :: total free energy        -167.426412995014 Eh   ::
         ::.................................................::
         :: total energy             -168.137931043589 Eh   ::
         :: zero point energy           0.794691864320 Eh   ::
         :: G(RRHO) w/o ZPVE           -0.083173815745 Eh   ::
         :: G(RRHO) contrib.            0.711518048575 Eh   ::
         :::::::::::::::::::::::::::::::::::::::::::::::::::::

           -------------------------------------------------
          | TOTAL ENERGY             -168.137931043589 Eh   |
          | TOTAL ENTHALPY           -167.288609965225 Eh   |
          | TOTAL FREE ENERGY        -167.426412995014 Eh   |
          | GRADIENT NORM               0.000046792320 Eh/α |
          | HOMO-LUMO GAP               1.169742455113 eV   |
           -------------------------------------------------

 * finished run on 2025/08/24 at 12:25:40.127
