   * xtb version 6.7.1 (edcfbbe) compiled by 'albert@albert-system' on 2024-07-22

   ID    Z sym.   atoms
    1    7 N      1, 17
    2    6 C      2-16, 18-26
    3    1 H      27-42

          program call               : xtb data2507/gas/CNDSB/CNDSB.xyz --gfn 2 --ohess vtight --parallel 40 --molden --ceasefiles --namespace data2507/gas/CNDSB/CNDSB_gas_S0_preOpt
          :  Hamiltonian                  GFN2-xTB          :
 * total energy  :   -65.2393760 Eh     change       -0.5008900E-09 Eh
 * total energy  :   -65.2454387 Eh     change       -0.6062778E-02 Eh
 * total energy  :   -65.2464306 Eh     change       -0.9918801E-03 Eh
 * total energy  :   -65.2469227 Eh     change       -0.4921149E-03 Eh
 * total energy  :   -65.2472674 Eh     change       -0.3446618E-03 Eh
 * total energy  :   -65.2479502 Eh     change       -0.6828040E-03 Eh
 * total energy  :   -65.2485131 Eh     change       -0.5628842E-03 Eh
 * total energy  :   -65.2492450 Eh     change       -0.7319234E-03 Eh
 * total energy  :   -65.2497694 Eh     change       -0.5243840E-03 Eh
 * total energy  :   -65.2501474 Eh     change       -0.3779985E-03 Eh
 * total energy  :   -65.2569111 Eh     change       -0.5220848E-05 Eh
 * total energy  :   -65.2569151 Eh     change       -0.4014735E-05 Eh
 * total energy  :   -65.2569159 Eh     change       -0.8127063E-06 Eh
 * total energy  :   -65.2569164 Eh     change       -0.5362599E-06 Eh
 * total energy  :   -65.2569173 Eh     change       -0.8578286E-06 Eh
 * total energy  :   -65.2569174 Eh     change       -0.1714434E-06 Eh
 * total energy  :   -65.2569172 Eh     change        0.2293509E-06 Eh
 * total energy  :   -65.2569176 Eh     change       -0.3985297E-06 Eh
 * total energy  :   -65.2569177 Eh     change       -0.8986241E-07 Eh
   *** GEOMETRY OPTIMIZATION CONVERGED AFTER 71 ITERATIONS ***

 final structure:
================
42
 xtb: 6.7.1 (edcfbbe)
N            3.64416694788245       -1.69263562368363       -2.69001855767875
C            3.33392824146872       -1.08702478254694       -1.76497636096587
C            2.85209516791484       -0.34068603638593       -0.66651763678859
C            3.64752594802612        0.21395192842807        0.27652785973754
C            5.08405524902531        0.12864772677039        0.42254498751895
C            5.86795798017235       -0.85482444828475       -0.18750193285683
C            7.23609426659348       -0.87740640633146        0.00045957087866
C            7.85221559808009        0.07470275647358        0.79685170169108
C            7.08712630126663        1.04916946046588        1.41835771916093
C            5.71908548152971        1.07144306046341        1.24031093324623
C            1.39123644728413       -0.16635441921123       -0.65923882301174
C            0.68384336506271       -0.08610380588355        0.54008690472045
C           -0.68469375239346        0.08052219834960        0.54027006607600
C           -1.39121331127811        0.17121376381281       -0.65886012481128
C           -2.85210453527501        0.34520158759688       -0.66583396125689
C           -3.33361453575648        1.09850032997556       -1.75966915475733
N           -3.64371930644518        1.70973293701570       -2.68105622725795
C           -3.64782845997634       -0.21564173791691        0.27335985164543
C           -5.08427891982382       -0.13164306901582        0.42040462001716
C           -5.71796513469788       -1.07706555687213        1.23623447065385
C           -7.08579349373933       -1.05600957558831        1.41596352044527
C           -7.85213543843588       -0.08032116982494        0.79792739568763
C           -7.23744376165171        0.87412506242338        0.00322692094182
C           -5.86950420231733        0.85287697646485       -0.18629298045806
C           -0.68306124914519        0.09720814718024       -1.85897158227834
C            0.68413640293615       -0.08146386636206       -1.85921771349822
H            3.15977105098428        0.84508330028925        1.01040217524961
H            5.40260958902492       -1.61246790719870       -0.79692710532218
H            7.82618431610977       -1.64550873775469       -0.47675438521075
H            8.92248508054469        0.05404309000096        0.93787734119910
H            7.56006030787185        1.79024153094034        2.04591499499819
H            5.12690316856302        1.83413160435477        1.72661367555983
H            1.20728752259434       -0.17308109292707        1.48112316727322
H           -1.20875374351149        0.15927812421418        1.48167826175065
H           -3.16000510734694       -0.85116999639611        1.00338045587174
H           -5.12484360320024       -1.84071354808005        1.71988509556434
H           -7.55757349556490       -1.79896592239280        2.04215829225880
H           -8.92224169952142       -0.06056610720278        0.94030959827119
H           -7.82852204224037        1.64306754894832       -0.47140662990035
H           -5.40538290454671        1.61228011265919       -0.79443161895593
H           -1.21399810211497        0.16748676787135       -2.79691167914860
H            1.21590836606043       -0.14325320485938       -2.79728510623512

          :  Hamiltonian                  GFN2-xTB          :
         :: gradient norm              0.000037012586 Eh/a0 ::
         :: HOMO-LUMO gap              2.282232046399 eV    ::
         :: SCC energy               -66.584670660626 Eh    ::
         :: -> dispersion             -0.048183661407 Eh    ::
         :: repulsion energy           1.327752955273 Eh    ::

    * Orbital Energies and Occupations

         #    Occupation            Energy/Eh            Energy/eV
      -------------------------------------------------------------
         1        2.0000           -0.6684418             -18.1892
       ...           ...                  ...                  ...
        49        2.0000           -0.4406744             -11.9914
        50        2.0000           -0.4376782             -11.9098
        51        2.0000           -0.4371838             -11.8964
        52        2.0000           -0.4296660             -11.6918
        53        2.0000           -0.4287537             -11.6670
        54        2.0000           -0.4284419             -11.6585
        55        2.0000           -0.4231803             -11.5153
        56        2.0000           -0.4198868             -11.4257
        57        2.0000           -0.4197273             -11.4214
        58        2.0000           -0.4171483             -11.3512
        59        2.0000           -0.4171327             -11.3508
        60        2.0000           -0.4014498             -10.9240
        61        2.0000           -0.3859692             -10.5028 (HOMO)
        62                         -0.3020987              -8.2205 (LUMO)
        63                         -0.2883397              -7.8461
        64                         -0.2399413              -6.5291
        65                         -0.2345713              -6.3830
        66                         -0.2344974              -6.3810
        67                         -0.2338493              -6.3634
        68                         -0.2138987              -5.8205
        69                         -0.2137991              -5.8178
        70                         -0.2062847              -5.6133
        71                         -0.2056264              -5.5954
        72                         -0.1513131              -4.1174
       ...                                ...                  ...
       120                          1.1583292              31.5197
      -------------------------------------------------------------
                  HL-Gap            0.0838705 Eh            2.2822 eV

     #   Z          covCN         q      C6AA      α(0)
     1   7 N        0.911    -0.246    26.401     7.431
     2   6 C        1.913     0.119    28.168     8.571
     3   6 C        2.951     0.007    27.858     8.657
     4   6 C        2.914    -0.025    28.620     8.773
     5   6 C        2.969     0.015    27.682     8.630
     6   6 C        2.922    -0.030    28.744     8.792
     7   6 C        2.918    -0.026    28.640     8.776
     8   6 C        2.920    -0.025    28.617     8.773
     9   6 C        2.917    -0.028    28.690     8.783
    10   6 C        2.929    -0.031    28.776     8.797
    11   6 C        2.987     0.016    27.655     8.626
    12   6 C        2.922    -0.034    28.848     8.808
    13   6 C        2.922    -0.034    28.848     8.808
    14   6 C        2.987     0.016    27.655     8.626
    15   6 C        2.951     0.007    27.858     8.657
    16   6 C        1.913     0.119    28.167     8.571
    17   7 N        0.911    -0.246    26.402     7.431
    18   6 C        2.914    -0.025    28.621     8.773
    19   6 C        2.969     0.015    27.682     8.630
    20   6 C        2.929    -0.031    28.776     8.797
    21   6 C        2.917    -0.028    28.690     8.783
    22   6 C        2.920    -0.025    28.617     8.772
    23   6 C        2.918    -0.026    28.640     8.776
    24   6 C        2.922    -0.030    28.744     8.792
    25   6 C        2.922    -0.030    28.739     8.791
    26   6 C        2.922    -0.030    28.739     8.791
    27   1 H        0.925     0.044     2.392     2.419
    28   1 H        0.926     0.047     2.359     2.402
    29   1 H        0.926     0.039     2.459     2.452
    30   1 H        0.926     0.037     2.490     2.468
    31   1 H        0.926     0.035     2.513     2.479
    32   1 H        0.926     0.033     2.538     2.491
    33   1 H        0.926     0.036     2.508     2.477
    34   1 H        0.926     0.036     2.508     2.477
    35   1 H        0.925     0.044     2.392     2.419
    36   1 H        0.926     0.033     2.538     2.491
    37   1 H        0.926     0.035     2.513     2.479
    38   1 H        0.926     0.037     2.490     2.468
    39   1 H        0.926     0.039     2.459     2.452
    40   1 H        0.926     0.047     2.358     2.401
    41   1 H        0.926     0.044     2.393     2.419
    42   1 H        0.926     0.044     2.394     2.419

molecular dipole:
                 x           y           z       tot (Debye)
 q only:       -0.000      -0.005       1.742
   full:       -0.001      -0.008       2.460       6.254

 projected vibrational frequencies (cm⁻¹)
eigval :       -0.00    -0.00    -0.00    -0.00     0.00     0.00
eigval :       16.55    17.86    22.91    28.31    32.78    60.34
eigval :       65.20    70.30   125.84   129.20   132.28   149.94
eigval :      162.29   189.77   246.35   249.19   283.51   290.12
eigval :      326.98   347.63   366.83   367.79   371.41   374.00
eigval :      375.79   430.59   459.46   483.66   500.14   543.21
eigval :      550.71   574.19   586.45   587.56   598.32   609.32
eigval :      628.47   656.43   659.25   668.64   696.62   741.41
eigval :      748.57   764.40   792.44   811.02   839.39   856.28
eigval :      862.42   863.45   868.31   875.45   880.42   901.96
eigval :      902.07   917.57   927.19   928.04   928.14   932.30
eigval :      932.30   971.40   985.42   994.10  1039.12  1055.43
eigval :     1085.49  1085.51  1127.15  1127.21  1149.94  1181.39
eigval :     1181.39  1198.08  1198.12  1205.48  1221.15  1223.72
eigval :     1261.76  1276.99  1283.83  1287.85  1293.43  1315.70
eigval :     1322.41  1327.21  1347.34  1349.33  1404.85  1431.87
eigval :     1432.07  1467.24  1470.20  1483.20  1554.68  1566.77
eigval :     1571.51  1575.55  1581.02  1593.11  1611.24  1613.90
eigval :     2351.19  2351.88  3046.54  3046.71  3069.17  3069.21
eigval :     3075.57  3080.70  3080.71  3086.74  3086.79  3086.86
eigval :     3087.26  3096.22  3096.36  3097.42  3123.38  3123.69

   temp. (K)  partition function   enthalpy   heat capacity  entropy
                                   cal/mol     cal/K/mol   cal/K/mol   J/K/mol
 298.15  VIB  0.162E+11            12398.465     75.098     77.831
         ROT  0.866E+07              888.752      2.981     34.725
         INT  0.140E+18            13287.217     78.079    112.556
         TR   0.586E+28             1481.254      4.968     43.279
         TOT                       14768.4714    83.0471   155.8346   652.0120

       T/K    H(0)-H(T)+PV         H(T)/Eh          T*S/Eh         G(T)/Eh
   ------------------------------------------------------------------------
    298.15    0.235351E-01    0.339788E+00    0.740420E-01    0.265746E+00
   ------------------------------------------------------------------------

         :::::::::::::::::::::::::::::::::::::::::::::::::::::
         ::                  THERMODYNAMIC                  ::
         :::::::::::::::::::::::::::::::::::::::::::::::::::::
         :: total free energy         -64.991172151445 Eh   ::
         ::.................................................::
         :: total energy              -65.256917705349 Eh   ::
         :: zero point energy           0.316252545862 Eh   ::
         :: G(RRHO) w/o ZPVE           -0.050506991957 Eh   ::
         :: G(RRHO) contrib.            0.265745553904 Eh   ::
         :::::::::::::::::::::::::::::::::::::::::::::::::::::

           -------------------------------------------------
          | TOTAL ENERGY              -65.256917705349 Eh   |
          | TOTAL ENTHALPY            -64.917130102319 Eh   |
          | TOTAL FREE ENERGY         -64.991172151445 Eh   |
          | GRADIENT NORM               0.000037108429 Eh/α |
          | HOMO-LUMO GAP               2.282231988386 eV   |
           -------------------------------------------------

 * finished run on 2025/08/29 at 14:42:05.543
