   * xtb version 6.7.1 (edcfbbe) compiled by 'albert@albert-system' on 2024-07-22

   ID    Z sym.   atoms
    1    7 N      1, 17
    2    6 C      2-16, 18-26
    3    1 H      27-42

          program call               : xtb data2507/gas/CNDSB/CNDSB_gas_S0_finalOpt.xtbopt.xyz --gfn 2 --spinpol --tblite --uhf 2 --ohess vtight --parallel 40 --molden --ceasefiles --namespace data2507/gas/CNDSB/CNDSB_gas_T1_preOpt
 * total energy  :   -65.1764424 Eh     change       -0.5576808E-08 Eh
 * total energy  :   -65.1838356 Eh     change       -0.7393252E-02 Eh
 * total energy  :   -65.1842637 Eh     change       -0.4280939E-03 Eh
 * total energy  :   -65.1871655 Eh     change       -0.2901780E-02 Eh
 * total energy  :   -65.1878491 Eh     change       -0.6835870E-03 Eh
 * total energy  :   -65.1886225 Eh     change       -0.7733951E-03 Eh
 * total energy  :   -65.1891121 Eh     change       -0.4895856E-03 Eh
 * total energy  :   -65.1897963 Eh     change       -0.6842089E-03 Eh
 * total energy  :   -65.1901602 Eh     change       -0.3639716E-03 Eh
 * total energy  :   -65.1905813 Eh     change       -0.4210950E-03 Eh
 * total energy  :   -65.1911865 Eh     change       -0.5274220E-05 Eh
 * total energy  :   -65.1911872 Eh     change       -0.7340925E-06 Eh
 * total energy  :   -65.1911872 Eh     change       -0.3716188E-07 Eh
 * total energy  :   -65.1911890 Eh     change       -0.1744835E-05 Eh
 * total energy  :   -65.1911894 Eh     change       -0.3946719E-06 Eh
 * total energy  :   -65.1911893 Eh     change        0.7444486E-07 Eh
 * total energy  :   -65.1911891 Eh     change        0.1639933E-06 Eh
 * total energy  :   -65.1911896 Eh     change       -0.4425879E-06 Eh
 * total energy  :   -65.1911897 Eh     change       -0.7148682E-07 Eh
   *** GEOMETRY OPTIMIZATION CONVERGED AFTER 32 ITERATIONS ***

 final structure:
================
42
 xtb: 6.7.1 (edcfbbe)
N            3.40456022017067        2.95643259194591       -0.44983569718057
C            3.16807790685707        1.83979114574014       -0.30419050402033
C            2.80348130783251        0.48719518801824       -0.15009235503338
C            3.78235850765804       -0.52593982881676       -0.14235235894179
C            5.18840617365899       -0.41545760020889       -0.04508800139691
C            5.87990473209689        0.76750861835519        0.29722138218392
C            7.25337553625880        0.78178026573054        0.37799972723505
C            7.99248040107388       -0.36835492913792        0.12813685889134
C            7.33387054672413       -1.55032294423757       -0.19417386920444
C            5.96282997633750       -1.57881697698150       -0.27271613547579
C            1.41095195083271        0.22765673531014       -0.07786579190423
C            0.87479126955269       -1.05976250247008        0.21020275761474
C           -0.46474419825343       -1.27345207355407        0.27933723686087
C           -1.40975885410937       -0.22610905732366        0.07816517731975
C           -2.80245276980343       -0.48577843825545        0.15061310263898
C           -3.16648106849543       -1.83851024227126        0.30541459268264
N           -3.40223971837903       -2.95524727520249        0.45144628221527
C           -3.78118723995927        0.52703100663163        0.14175236518560
C           -5.18764625132678        0.41696245507991        0.04752975275114
C           -5.96057627679896        1.58197391090631        0.27138959944792
C           -7.33180334770616        1.55447151947762        0.19533548068513
C           -7.99206605376940        0.37170426379732       -0.12046957212160
C           -7.25447288487562       -0.78024395613484       -0.36625650687707
C           -5.88081160948613       -0.76688561314438       -0.28797244866826
C           -0.87359921602749        1.06127201895685       -0.20993310128871
C            0.46592271566536        1.27503504582504       -0.27897696880824
H            3.41511553005811       -1.53599724465047       -0.26128693453576
H            5.32680433506905        1.66562596498142        0.51487518548367
H            7.76071953192861        1.69762670942544        0.64277711194323
H            9.06976962620459       -0.34684750007771        0.19082528248183
H            7.90301059334601       -2.44913043039930       -0.38162562708409
H            5.45704940287650       -2.49990469925484       -0.52598363453493
H            1.54029952797283       -1.88678518862461        0.40147644213844
H           -0.83337301383332       -2.26238330685482        0.50864135813748
H           -3.41368947086648        1.53746390766249        0.25660679946372
H           -5.45354072440653        2.50376174099690        0.51956373048248
H           -7.89973620610665        2.45468301792364        0.37967858950086
H           -9.06948276970453        0.35092821121020       -0.18121804787788
H           -7.76311499664853       -1.69686213826301       -0.62582007612690
H           -5.32902267607542       -1.66659963031351       -0.50224062229570
H           -1.53899793502840        1.88838499118640       -0.40117586023287
H            0.83459537695682        2.26396798394078       -0.50821851844197

 projected vibrational frequencies (cm⁻¹)
eigval :       -0.00    -0.00    -0.00    -0.00     0.00     0.00
eigval :        8.75    19.65    24.40    32.38    38.38    47.29
eigval :       58.54    90.14   102.18   134.73   146.37   158.62
eigval :      171.60   174.41   227.62   238.50   278.47   295.55
eigval :      295.90   327.59   356.42   364.04   365.33   375.66
eigval :      396.35   431.34   434.46   436.51   447.85   522.61
eigval :      551.64   572.59   573.32   576.50   581.38   583.70
eigval :      593.68   639.36   640.38   659.30   680.20   694.42
eigval :      732.10   749.17   755.76   775.91   782.70   809.82
eigval :      809.96   838.55   844.88   845.50   851.92   884.37
eigval :      884.45   912.65   914.79   923.33   923.46   924.47
eigval :      924.50   935.26   970.24   973.50  1016.79  1024.58
eigval :     1058.32  1077.09  1080.45  1126.21  1126.31  1157.56
eigval :     1178.07  1178.31  1190.68  1202.27  1217.56  1223.30
eigval :     1231.24  1270.97  1284.11  1296.41  1313.93  1315.44
eigval :     1324.99  1342.68  1342.92  1349.97  1359.50  1416.28
eigval :     1421.22  1432.41  1439.29  1445.83  1466.87  1485.08
eigval :     1496.24  1530.95  1531.16  1563.28  1567.41  1585.23
eigval :     2313.84  2322.97  3068.00  3068.05  3071.85  3072.56
eigval :     3081.63  3081.81  3085.79  3085.82  3090.56  3091.09
eigval :     3097.58  3098.37  3103.38  3103.40  3135.44  3135.84

   temp. (K)  partition function   enthalpy   heat capacity  entropy
                                   cal/mol     cal/K/mol   cal/K/mol   J/K/mol
 298.15  VIB  0.310E+11            12696.010     77.037     79.751
         ROT  0.164E+08              888.752      2.981     35.993
         INT  0.507E+18            13584.762     80.018    115.744
         TR   0.586E+28             1481.254      4.968     43.279
         TOT                       15066.0163    84.9859   159.0230   665.3521

       T/K    H(0)-H(T)+PV         H(T)/Eh          T*S/Eh         G(T)/Eh
   ------------------------------------------------------------------------
    298.15    0.240092E-01    0.336333E+00    0.755569E-01    0.260776E+00
   ------------------------------------------------------------------------

         :::::::::::::::::::::::::::::::::::::::::::::::::::::
         ::                  THERMODYNAMIC                  ::
         :::::::::::::::::::::::::::::::::::::::::::::::::::::
         :: total free energy         -64.930413610988 Eh   ::
         ::.................................................::
         :: total energy              -65.191189662852 Eh   ::
         :: zero point energy           0.312323765953 Eh   ::
         :: G(RRHO) w/o ZPVE           -0.051547714088 Eh   ::
         :: G(RRHO) contrib.            0.260776051865 Eh   ::
         :::::::::::::::::::::::::::::::::::::::::::::::::::::

           -------------------------------------------------
          | TOTAL ENERGY              -65.191189662852 Eh   |
          | TOTAL ENTHALPY            -64.854856671627 Eh   |
          | TOTAL FREE ENERGY         -64.930413610988 Eh   |
          | GRADIENT NORM               0.000074595157 Eh/α |
           -------------------------------------------------

 * finished run on 2025/08/29 at 14:43:03.170
