   * xtb version 6.7.1 (edcfbbe) compiled by 'albert@albert-system' on 2024-07-22

   ID    Z sym.   atoms
    1    7 N      1, 17
    2    6 C      2-16, 18-26
    3    1 H      27-42

          program call               : xtb data2507/gas/CNDSB/CNDSB_gas_S0_crest.xyz --gfn 2 --ohess vtight --parallel 40 --molden --ceasefiles --namespace data2507/gas/CNDSB/CNDSB_gas_S0_finalOpt
          :  Hamiltonian                  GFN2-xTB          :
 * total energy  :   -65.2574383 Eh     change       -0.1982841E-09 Eh
 * total energy  :   -65.2574206 Eh     change        0.1766068E-04 Eh
 * total energy  :   -65.2574392 Eh     change       -0.1858196E-04 Eh
 * total energy  :   -65.2574380 Eh     change        0.1218695E-05 Eh
 * total energy  :   -65.2574426 Eh     change       -0.4657273E-05 Eh
 * total energy  :   -65.2574416 Eh     change        0.1009065E-05 Eh
 * total energy  :   -65.2574427 Eh     change       -0.1094244E-05 Eh
 * total energy  :   -65.2574428 Eh     change       -0.2955485E-07 Eh
   *** GEOMETRY OPTIMIZATION CONVERGED AFTER 8 ITERATIONS ***

 final structure:
================
42
 xtb: 6.7.1 (edcfbbe)
N            3.33997809063226        3.00346965934553       -0.12891541198277
C            3.15893451872899        1.87113688231954       -0.06499836668385
C            2.82778446215847        0.49905158465768       -0.00563114120566
C            3.74292520896172       -0.49730806603709       -0.00230019136407
C            5.18633110701904       -0.40731203595673        0.01457707297235
C            5.88652907665844        0.73766053761726        0.40543224881527
C            7.26760567687028        0.75051494365685        0.40142219570135
C            7.97990662392971       -0.37185113244442        0.00988821630525
C            7.30014103178655       -1.51900267973614       -0.36860156875984
C            5.92057232441101       -1.53978364021468       -0.35872735503843
C            1.38069452135929        0.23501214829165       -0.00371391541294
C            0.85083865867808       -0.87522285291927        0.65365068617680
C           -0.50641419116230       -1.11681745048304        0.64414461324421
C           -1.38135510858532       -0.24930955454716       -0.01145869938995
C           -2.82922924430504       -0.50964752073417       -0.00457589595026
C           -3.16370400994529       -1.88094599046889        0.05064010944340
N           -3.34694645134309       -3.01321561341291        0.10961844514363
C           -3.74002440792718        0.49073805376487        0.00024389081175
C           -5.18390875410786        0.41007666030076       -0.00767111521486
C           -5.90762465506300        1.55143237937189        0.35941539295638
C           -7.28719419719595        1.54122151983616        0.37766819301248
C           -7.97774326594108        0.39557280099606        0.01447515210934
C           -7.27612905669780       -0.73592840500996       -0.37005809079963
C           -5.89504365738922       -0.73350616396391       -0.38266989356138
C           -0.85140444450224        0.86009933416374       -0.67008761320908
C            0.50581729686011        1.10159694581701       -0.66072334564838
H            3.35766510100688       -1.50873626861531       -0.05746486869396
H            5.34784715240020        1.61346980057121        0.72922405046758
H            7.79245728739792        1.64273397485395        0.70872932853242
H            9.05949855060371       -0.35532640834965        0.00611342881419
H            7.84924515076051       -2.39964638960116       -0.66791090319241
H            5.39497761255794       -2.43677217544657       -0.65517835787732
H            1.50297232238154       -1.54330253128060        1.19647888842387
H           -0.90018677273944       -1.97773172440185        1.16462382582941
H           -3.34878617016360        1.49991698158759        0.05518597747135
H           -5.37366780192676        2.44735018689382        0.64394402141119
H           -7.82784963256795        2.42883891111945        0.67171554472019
H           -9.05738456103450        0.38715657576184        0.02493229604618
H           -7.80949798638680       -1.62726992248736       -0.66500198914171
H           -5.36499473472417       -1.61679042015822       -0.70023236103531
H           -1.50360395599687        1.52795221364435       -1.21312722987046
H            0.89954873814283        1.96229056379787       -1.18157893967633

          :  Hamiltonian                  GFN2-xTB          :
         :: gradient norm              0.000026879086 Eh/a0 ::
         :: HOMO-LUMO gap              2.269416989099 eV    ::
         :: SCC energy               -66.584962562225 Eh    ::
         :: -> dispersion             -0.048189909620 Eh    ::
         :: repulsion energy           1.327519801932 Eh    ::

    * Orbital Energies and Occupations

         #    Occupation            Energy/Eh            Energy/eV
      -------------------------------------------------------------
         1        2.0000           -0.6681224             -18.1805
       ...           ...                  ...                  ...
        49        2.0000           -0.4416151             -12.0170
        50        2.0000           -0.4373975             -11.9022
        51        2.0000           -0.4366492             -11.8818
        52        2.0000           -0.4297447             -11.6939
        53        2.0000           -0.4284948             -11.6599
        54        2.0000           -0.4277364             -11.6393
        55        2.0000           -0.4225895             -11.4992
        56        2.0000           -0.4225827             -11.4991
        57        2.0000           -0.4181193             -11.3776
        58        2.0000           -0.4168335             -11.3426
        59        2.0000           -0.4167673             -11.3408
        60        2.0000           -0.4013264             -10.9206
        61        2.0000           -0.3856105             -10.4930 (HOMO)
        62                         -0.3022109              -8.2236 (LUMO)
        63                         -0.2882889              -7.8447
        64                         -0.2396192              -6.5204
        65                         -0.2341964              -6.3728
        66                         -0.2341770              -6.3723
        67                         -0.2333711              -6.3503
        68                         -0.2137971              -5.8177
        69                         -0.2135815              -5.8118
        70                         -0.2076441              -5.6503
        71                         -0.2052903              -5.5862
        72                         -0.1514302              -4.1206
       ...                                ...                  ...
       120                          1.1570935              31.4861
      -------------------------------------------------------------
                  HL-Gap            0.0833995 Eh            2.2694 eV

     #   Z          covCN         q      C6AA      α(0)
     1   7 N        0.911    -0.248    26.455     7.439
     2   6 C        1.913     0.119    28.163     8.570
     3   6 C        2.951     0.007    27.869     8.659
     4   6 C        2.914    -0.024    28.612     8.771
     5   6 C        2.969     0.015    27.680     8.630
     6   6 C        2.922    -0.030    28.742     8.792
     7   6 C        2.918    -0.026    28.642     8.776
     8   6 C        2.920    -0.025    28.616     8.772
     9   6 C        2.917    -0.027    28.687     8.783
    10   6 C        2.929    -0.031    28.771     8.797
    11   6 C        2.987     0.015    27.658     8.627
    12   6 C        2.921    -0.033    28.821     8.804
    13   6 C        2.922    -0.031    28.773     8.796
    14   6 C        2.987     0.016    27.657     8.627
    15   6 C        2.951     0.007    27.870     8.659
    16   6 C        1.913     0.119    28.162     8.570
    17   7 N        0.911    -0.248    26.456     7.439
    18   6 C        2.914    -0.024    28.613     8.771
    19   6 C        2.969     0.015    27.680     8.630
    20   6 C        2.929    -0.031    28.771     8.797
    21   6 C        2.917    -0.027    28.688     8.783
    22   6 C        2.920    -0.024    28.615     8.772
    23   6 C        2.918    -0.026    28.642     8.776
    24   6 C        2.922    -0.030    28.744     8.792
    25   6 C        2.921    -0.033    28.822     8.804
    26   6 C        2.922    -0.031    28.773     8.797
    27   1 H        0.925     0.046     2.374     2.409
    28   1 H        0.926     0.047     2.363     2.404
    29   1 H        0.926     0.039     2.461     2.453
    30   1 H        0.926     0.037     2.490     2.467
    31   1 H        0.926     0.036     2.509     2.477
    32   1 H        0.926     0.034     2.526     2.485
    33   1 H        0.926     0.038     2.479     2.462
    34   1 H        0.926     0.042     2.422     2.434
    35   1 H        0.925     0.046     2.374     2.409
    36   1 H        0.926     0.034     2.526     2.485
    37   1 H        0.926     0.036     2.509     2.477
    38   1 H        0.926     0.037     2.490     2.467
    39   1 H        0.926     0.039     2.461     2.453
    40   1 H        0.926     0.047     2.361     2.403
    41   1 H        0.926     0.038     2.479     2.462
    42   1 H        0.926     0.042     2.421     2.433

molecular dipole:
                 x           y           z       tot (Debye)
 q only:        0.002       0.003       0.008
   full:        0.003       0.003       0.009       0.025

 projected vibrational frequencies (cm⁻¹)
eigval :       -0.00     0.00     0.00     0.00     0.00     0.00
eigval :       15.01    18.34    21.22    33.46    34.45    49.86
eigval :       62.00    82.76   111.71   128.91   139.20   151.00
eigval :      174.31   179.78   248.59   252.46   283.67   303.65
eigval :      306.71   351.92   362.69   368.19   369.23   372.89
eigval :      383.39   435.94   455.49   487.25   497.93   537.32
eigval :      553.22   573.69   586.35   587.55   595.37   620.35
eigval :      621.26   656.77   659.24   669.76   696.89   741.14
eigval :      748.64   762.96   793.24   811.27   839.41   855.78
eigval :      862.05   864.05   868.17   877.38   878.36   902.11
eigval :      902.20   918.05   926.82   928.15   928.22   932.29
eigval :      932.30   971.22   985.41   993.96  1039.43  1055.13
eigval :     1085.41  1085.46  1127.11  1127.22  1151.12  1181.37
eigval :     1181.38  1197.60  1198.22  1206.46  1222.15  1222.37
eigval :     1261.96  1277.70  1285.18  1286.35  1293.72  1315.10
eigval :     1323.48  1327.13  1347.50  1349.02  1404.40  1431.87
eigval :     1431.97  1467.66  1469.88  1483.42  1553.73  1566.50
eigval :     1571.30  1575.34  1580.66  1593.13  1610.81  1613.64
eigval :     2350.39  2350.78  3048.66  3048.89  3070.09  3070.19
eigval :     3080.79  3080.80  3081.27  3082.36  3086.83  3086.85
eigval :     3092.98  3093.40  3096.17  3096.36  3122.66  3123.41

   temp. (K)  partition function   enthalpy   heat capacity  entropy
                                   cal/mol     cal/K/mol   cal/K/mol   J/K/mol
 298.15  VIB  0.169E+11            12396.192     75.035     77.838
         ROT  0.163E+08              888.752      2.981     35.984
         INT  0.275E+18            13284.944     78.016    113.822
         TR   0.586E+28             1481.254      4.968     43.279
         TOT                       14766.1981    82.9845   157.1004   657.3081

       T/K    H(0)-H(T)+PV         H(T)/Eh          T*S/Eh         G(T)/Eh
   ------------------------------------------------------------------------
    298.15    0.235314E-01    0.339804E+00    0.746435E-01    0.265161E+00
   ------------------------------------------------------------------------

         :::::::::::::::::::::::::::::::::::::::::::::::::::::
         ::                  THERMODYNAMIC                  ::
         :::::::::::::::::::::::::::::::::::::::::::::::::::::
         :: total free energy         -64.992281859676 Eh   ::
         ::.................................................::
         :: total energy              -65.257442760290 Eh   ::
         :: zero point energy           0.316272933798 Eh   ::
         :: G(RRHO) w/o ZPVE           -0.051112033185 Eh   ::
         :: G(RRHO) contrib.            0.265160900614 Eh   ::
         :::::::::::::::::::::::::::::::::::::::::::::::::::::

           -------------------------------------------------
          | TOTAL ENERGY              -65.257442760290 Eh   |
          | TOTAL ENTHALPY            -64.917638391960 Eh   |
          | TOTAL FREE ENERGY         -64.992281859676 Eh   |
          | GRADIENT NORM               0.000026827242 Eh/α |
          | HOMO-LUMO GAP               2.269417065554 eV   |
           -------------------------------------------------

 * finished run on 2025/08/29 at 14:43:00.593
