   * xtb version 6.7.1 (edcfbbe) compiled by 'albert@albert-system' on 2024-07-22

   ID    Z sym.   atoms
    1    7 N      1, 17
    2    6 C      2-16, 18-26
    3    1 H      27-42

          program call               : xtb data2507/gas/CNDSB/CNDSB_gas_T1_crest.xyz --gfn 2 --spinpol --tblite --uhf 2 --ohess vtight --parallel 40 --molden --ceasefiles --namespace data2507/gas/CNDSB/CNDSB_gas_T1_finalOpt
 * total energy  :   -65.1912443 Eh     change       -0.9603170E-08 Eh
 * total energy  :   -65.1912600 Eh     change       -0.1567665E-04 Eh
 * total energy  :   -65.1912569 Eh     change        0.3081744E-05 Eh
 * total energy  :   -65.1912631 Eh     change       -0.6192746E-05 Eh
 * total energy  :   -65.1912662 Eh     change       -0.3134740E-05 Eh
 * total energy  :   -65.1912660 Eh     change        0.1958986E-06 Eh
 * total energy  :   -65.1912676 Eh     change       -0.1604160E-05 Eh
 * total energy  :   -65.1912690 Eh     change       -0.1330136E-05 Eh
 * total energy  :   -65.1912704 Eh     change       -0.1442829E-05 Eh
 * total energy  :   -65.1912712 Eh     change       -0.8326751E-06 Eh
 * total energy  :   -65.1912714 Eh     change       -0.1479663E-06 Eh
 * total energy  :   -65.1912716 Eh     change       -0.2279133E-06 Eh
 * total energy  :   -65.1912718 Eh     change       -0.2009434E-06 Eh
 * total energy  :   -65.1912720 Eh     change       -0.1682652E-06 Eh
 * total energy  :   -65.1912721 Eh     change       -0.1351197E-06 Eh
 * total energy  :   -65.1912722 Eh     change       -0.5890783E-07 Eh
   *** GEOMETRY OPTIMIZATION CONVERGED AFTER 16 ITERATIONS ***

 final structure:
================
42
 xtb: 6.7.1 (edcfbbe)
N            3.40835762843847        2.98806801281075       -0.18791935422027
C            3.16893065018182        1.86607458046070       -0.09897838841488
C            2.80177734959953        0.51202178106079        0.03303707379723
C            3.78034802147460       -0.47996780111626        0.24661302885270
C            5.18505334854087       -0.39420598225292        0.11721413503007
C            5.87052885114320        0.68104018140749       -0.49043894583540
C            7.24337167298480        0.67944692439625       -0.58086652669106
C            7.98772275895261       -0.38220154144070       -0.08030252430353
C            7.33496402274297       -1.46143543116831        0.50624170309447
C            5.96454372723449       -1.47429285538765        0.59785058338830
C            1.41001526596069        0.24254598779479        0.01462362676883
C            0.87653290976514       -1.07775848086423       -0.00057797228334
C           -0.46277896479434       -1.30348959178387       -0.01053094448551
C           -1.40893114860958       -0.23844656637615        0.00804276740862
C           -2.80180104343005       -0.50848725628953        0.02115723399610
C           -3.16579498592186       -1.86392332753199       -0.10947925294804
N           -3.40195433831415       -2.98647053253050       -0.19858408569516
C           -3.77996963959164        0.48286812472161        0.22564518767959
C           -5.18670169099342        0.39455512993864        0.10854886137598
C           -5.96116789753994        1.48249930080942        0.57813900384541
C           -7.33255520853662        1.46896884562704        0.49922392912136
C           -7.99082938534167        0.38049770039194       -0.06315552773980
C           -7.25138711408775       -0.68955975857319       -0.55248088911926
C           -5.87756294001276       -0.69019402904694       -0.47440815864615
C           -0.87551739823028        1.08155547290744       -0.01264334328588
C            0.46374438837513        1.30753614720148       -0.01640305643872
H            3.41339632082994       -1.43700274028021        0.59131205433155
H            5.31272451889649        1.50443942202122       -0.90393055849816
H            7.74615491373475        1.51189686192541       -1.05044821919934
H            9.06456451598070       -0.37330035984702       -0.15286862736597
H            7.90833196027507       -2.29292197523596        0.88938739114333
H            5.46315232776099       -2.31462267346231        1.05697555737987
H            1.54449259196030       -1.92438623228745       -0.02630948599041
H           -0.83052578673845       -2.31887963071643       -0.02485144596477
H           -3.41294799833423        1.44596881189911        0.55296120588141
H           -5.45556115461649        2.33031763311598        1.01853677866976
H           -7.90197978993030        2.30712143018179        0.87360982524720
H           -9.06830652899978        0.37077810078688       -0.12568018775553
H           -7.75851092335383       -1.52970180473863       -1.00331652420777
H           -5.32405559898633       -1.52097655318753       -0.87863119966274
H           -1.54303857967119        1.92818078938372       -0.04806617204585
H            0.83169383500206        2.32277233527545       -0.03564526831434

 projected vibrational frequencies (cm⁻¹)
eigval :       -0.00    -0.00    -0.00     0.00     0.00     0.00
eigval :       13.11    17.09    20.95    32.03    40.32    48.02
eigval :       63.30    82.02   115.50   133.62   139.97   161.89
eigval :      170.10   181.47   212.84   241.69   279.55   291.46
eigval :      298.42   326.74   359.37   362.62   367.69   374.14
eigval :      394.20   428.50   433.20   441.60   460.38   519.39
eigval :      551.54   554.12   575.52   581.18   583.41   588.73
eigval :      593.80   638.62   640.94   659.30   678.99   694.88
eigval :      731.41   749.66   755.23   776.77   782.23   808.18
eigval :      813.35   839.28   844.96   845.64   852.01   884.16
eigval :      884.79   912.71   915.07   923.14   923.40   924.37
eigval :      924.56   937.03   970.34   973.62  1017.00  1024.72
eigval :     1061.24  1077.20  1081.11  1126.15  1126.39  1156.73
eigval :     1178.02  1178.31  1190.55  1202.07  1216.66  1223.09
eigval :     1230.92  1270.64  1284.04  1295.98  1313.45  1315.43
eigval :     1324.62  1342.57  1342.77  1349.90  1358.76  1416.16
eigval :     1421.13  1432.69  1438.98  1445.45  1466.67  1484.70
eigval :     1495.96  1530.52  1531.84  1563.37  1567.54  1585.22
eigval :     2313.87  2323.15  3067.20  3067.40  3071.26  3071.84
eigval :     3081.48  3081.69  3085.60  3085.65  3090.22  3090.70
eigval :     3097.39  3098.15  3102.63  3102.72  3133.64  3134.92

   temp. (K)  partition function   enthalpy   heat capacity  entropy
                                   cal/mol     cal/K/mol   cal/K/mol   J/K/mol
 298.15  VIB  0.249E+11            12689.979     77.096     79.537
         ROT  0.819E+07              888.752      2.981     34.615
         INT  0.204E+18            13578.731     80.077    114.151
         TR   0.586E+28             1481.254      4.968     43.279
         TOT                       15059.9850    85.0453   157.4302   658.6882

       T/K    H(0)-H(T)+PV         H(T)/Eh          T*S/Eh         G(T)/Eh
   ------------------------------------------------------------------------
    298.15    0.239996E-01    0.336319E+00    0.748002E-01    0.261518E+00
   ------------------------------------------------------------------------

         :::::::::::::::::::::::::::::::::::::::::::::::::::::
         ::                  THERMODYNAMIC                  ::
         :::::::::::::::::::::::::::::::::::::::::::::::::::::
         :: total free energy         -64.929753815541 Eh   ::
         ::.................................................::
         :: total energy              -65.191272193390 Eh   ::
         :: zero point energy           0.312318955784 Eh   ::
         :: G(RRHO) w/o ZPVE           -0.050800577935 Eh   ::
         :: G(RRHO) contrib.            0.261518377849 Eh   ::
         :::::::::::::::::::::::::::::::::::::::::::::::::::::

           -------------------------------------------------
          | TOTAL ENERGY              -65.191272193390 Eh   |
          | TOTAL ENTHALPY            -64.854953623890 Eh   |
          | TOTAL FREE ENERGY         -64.929753815541 Eh   |
          | GRADIENT NORM               0.000065024350 Eh/α |
           -------------------------------------------------

 * finished run on 2025/08/29 at 14:43:57.073
