   * xtb version 6.7.1 (edcfbbe) compiled by 'albert@albert-system' on 2024-07-22

   ID    Z sym.   atoms
    1    6 C      1-12, 14, 15, 17-20, 22, 23, 25-36, 38
    2    7 N      13, 16, 21, 24, 37
    3    1 H      39-59

          program call               : xtb data2507/toluene/CPzPyC/CPzPyC_toluene_S0_crest.xyz --gfn 2 --gbsa toluene --ohess vtight --parallel 40 --molden --ceasefiles --namespace data2507/toluene/CPzPyC/CPzPyC_toluene_S0_finalOpt
      * Solvation model:               GBSA
        Solvent                        toluene
        Solvent mass                       9.2140E+01 g/mol
          :  Hamiltonian                  GFN2-xTB          :
 * total energy  :   -96.0902134 Eh     change       -0.1579011E-08 Eh
 * total energy  :   -96.0902394 Eh     change       -0.2603248E-04 Eh
 * total energy  :   -96.0902544 Eh     change       -0.1491261E-04 Eh
 * total energy  :   -96.0902647 Eh     change       -0.1036715E-04 Eh
 * total energy  :   -96.0902771 Eh     change       -0.1239818E-04 Eh
 * total energy  :   -96.0902925 Eh     change       -0.1537443E-04 Eh
 * total energy  :   -96.0903068 Eh     change       -0.1433808E-04 Eh
 * total energy  :   -96.0903193 Eh     change       -0.1244802E-04 Eh
 * total energy  :   -96.0903316 Eh     change       -0.1232409E-04 Eh
 * total energy  :   -96.0903455 Eh     change       -0.1388578E-04 Eh
 * total energy  :   -96.0904291 Eh     change       -0.3211973E-06 Eh
 * total energy  :   -96.0904294 Eh     change       -0.3154541E-06 Eh
 * total energy  :   -96.0904297 Eh     change       -0.2907890E-06 Eh
 * total energy  :   -96.0904299 Eh     change       -0.1861682E-06 Eh
 * total energy  :   -96.0904300 Eh     change       -0.1151778E-06 Eh
 * total energy  :   -96.0904301 Eh     change       -0.1175482E-06 Eh
 * total energy  :   -96.0904303 Eh     change       -0.1188481E-06 Eh
 * total energy  :   -96.0904304 Eh     change       -0.1049529E-06 Eh
 * total energy  :   -96.0904305 Eh     change       -0.8460542E-07 Eh
   *** GEOMETRY OPTIMIZATION CONVERGED AFTER 41 ITERATIONS ***

 final structure:
================
59
 xtb: 6.7.1 (edcfbbe)
C           -2.69951448932810       -3.94542145756697        0.36245247831371
C           -1.73408344405329       -3.08548960764757        0.88014131229444
C           -1.88349281231135       -1.71219810597428        0.82110621998447
C           -3.02455082121922       -1.20895711634907        0.21362753773837
C           -4.01943916899407       -2.07433735216300       -0.29361444609253
C           -3.85017232541695       -3.45091982763590       -0.21933203904117
C           -5.07167592571830       -1.23863703425109       -0.80433045550190
C           -6.27750811859067       -1.50906228306756       -1.43816809479357
C           -7.06390168144970       -0.44906613070000       -1.84434501116331
C           -6.65161021965170        0.86556919477863       -1.64049406975035
C           -5.45569505621703        1.15854353507526       -1.01109596395053
C           -4.67540649702790        0.09791704074717       -0.57416620784156
N           -3.43415354268587        0.10552408210319        0.04353217997131
C           -2.72087806797213        1.23733345797235        0.42992929247756
C           -3.34472050293244        2.29676690478914        1.09883397839052
N           -2.70508348270188        3.38293294466740        1.48655270542768
C           -1.41247856110916        3.48962471346064        1.24046172312900
C           -0.68251746322370        2.50360519652276        0.57396305102307
C            0.75514784881354        2.62619354918903        0.31967530021697
C            1.40891166203633        3.84760919981128        0.15077011243595
N            2.72554938197852        3.90856936337495        0.00621161295122
C            3.40438382791458        2.77998731652505       -0.02322363214755
C            2.75285982133182        1.53680912525682        0.05696781634061
N            3.42627793542792        0.33534290999992       -0.00751285244369
C            4.56706709887741        0.05292860109841       -0.75400306708037
C            5.22612884789224        0.81898213744823       -1.70376947931221
C            6.33166129647339        0.26934720051488       -2.32982724334643
C            6.77070246637443       -1.01734979421561       -2.03402897247309
C            6.09323118939885       -1.80177991034053       -1.12057115355191
C            4.98058205276013       -1.27035282592853       -0.48325007560560
C            4.04146689436398       -1.81554144196757        0.46150837056080
C            3.94085760809886       -3.04674107810774        1.09568601094614
C            2.89836158913056       -3.25167023290717        1.97880689844426
C            1.97249550340863       -2.24471640193557        2.23661360216596
C            2.05268269097319       -1.01277804663847        1.61213824181980
C            3.08818798087844       -0.80796993612661        0.71533034447243
N            1.43938247778666        1.48470302119839        0.25191452108850
C           -1.35945363978086        1.35796828913001        0.16440572796420
H           -2.54564939343275       -5.01248396317825        0.42609154231807
H           -0.84726535578817       -3.49804485621007        1.33720821041791
H           -1.13362301875564       -1.06202056208438        1.24346402566604
H           -4.60723020816004       -4.11584326838629       -0.60671516896360
H           -6.58608939008077       -2.52862034045424       -1.61298412181532
H           -8.00651944318301       -0.63684379798923       -2.33673741249893
H           -7.27686539708507        1.67607262814138       -1.98500600684486
H           -5.14049372497990        2.18262696942960       -0.88007126903137
H           -4.39639282986464        2.25620418953705        1.34730277145857
H           -0.94053338753844        4.38933059058884        1.61039313823265
H            0.88300136502932        4.79059973344308        0.13631451389347
H            4.47949317472174        2.86651711093367       -0.07460703112782
H            4.88723360215588        1.80719575621651       -1.97381233576445
H            6.85934389117388        0.85366212384245       -3.06884873461714
H            7.64090833410465       -1.40909908213527       -2.53883603365875
H            6.41272351068275       -2.81075365001811       -0.90972280027003
H            4.66677470319883       -3.82192415235750        0.90352786106446
H            2.80002521464130       -4.20252201233358        2.48118813805483
H            1.17358143725000       -2.42603810304246        2.94044115612119
H            1.33305492694500       -0.23559611787336        1.81307315195505
H           -0.82457918706984        0.58738011128714       -0.36917879785798

          :  Hamiltonian                  GFN2-xTB          :
         :: gradient norm              0.000040723227 Eh/a0 ::
         :: HOMO-LUMO gap              1.963567727383 eV    ::
         :: SCC energy               -97.818942365345 Eh    ::
         :: -> dispersion             -0.082371948775 Eh    ::
         :: -> Gsolv                  -0.038776914722 Eh    ::
         :: repulsion energy           1.728511910167 Eh    ::

    * Orbital Energies and Occupations

         #    Occupation            Energy/Eh            Energy/eV
      -------------------------------------------------------------
         1        2.0000           -0.7016609             -19.0932
       ...           ...                  ...                  ...
        77        2.0000           -0.4275557             -11.6344
        78        2.0000           -0.4266339             -11.6093
        79        2.0000           -0.4239058             -11.5351
        80        2.0000           -0.4229649             -11.5095
        81        2.0000           -0.4210094             -11.4562
        82        2.0000           -0.4153211             -11.3015
        83        2.0000           -0.4101207             -11.1600
        84        2.0000           -0.3898070             -10.6072
        85        2.0000           -0.3892645             -10.5924
        86        2.0000           -0.3848731             -10.4729
        87        2.0000           -0.3835620             -10.4373
        88        2.0000           -0.3720849             -10.1249
        89        2.0000           -0.3688927             -10.0381 (HOMO)
        90                         -0.2967329              -8.0745 (LUMO)
        91                         -0.2780943              -7.5673
        92                         -0.2651431              -7.2149
        93                         -0.2545452              -6.9265
        94                         -0.2491611              -6.7800
        95                         -0.2380177              -6.4768
        96                         -0.2320723              -6.3150
        97                         -0.2268257              -6.1722
        98                         -0.2042930              -5.5591
        99                         -0.1962955              -5.3415
       100                         -0.1958960              -5.3306
       ...                                ...                  ...
       173                          0.7390192              20.1097
      -------------------------------------------------------------
                  HL-Gap            0.0721598 Eh            1.9636 eV

     #   Z          covCN         q      C6AA      α(0)
     1   6 C        2.920    -0.040    28.991     8.830
     2   6 C        2.924    -0.033    28.826     8.805
     3   6 C        2.910    -0.051    29.270     8.871
     4   6 C        3.066     0.046    26.907     8.506
     5   6 C        3.066    -0.016    28.332     8.728
     6   6 C        2.913    -0.033    28.830     8.805
     7   6 C        3.066    -0.015    28.322     8.727
     8   6 C        2.913    -0.033    28.827     8.804
     9   6 C        2.920    -0.040    28.993     8.830
    10   6 C        2.924    -0.033    28.823     8.804
    11   6 C        2.910    -0.052    29.288     8.874
    12   6 C        3.066     0.045    26.932     8.510
    13   7 N        2.799    -0.045    22.116     6.985
    14   6 C        2.904     0.059    26.672     8.468
    15   6 C        2.910     0.046    26.974     8.516
    16   7 N        1.835    -0.222    26.684     7.655
    17   6 C        2.910     0.048    26.927     8.509
    18   6 C        2.974    -0.005    28.145     8.702
    19   6 C        2.949     0.088    26.045     8.370
    20   6 C        2.904     0.034    27.233     8.557
    21   7 N        1.839    -0.217    26.564     7.638
    22   6 C        2.904     0.034    27.250     8.559
    23   6 C        2.882     0.150    24.745     8.155
    24   7 N        2.802    -0.050    22.205     6.999
    25   6 C        3.056     0.045    26.945     8.513
    26   6 C        2.910    -0.051    29.278     8.873
    27   6 C        2.923    -0.032    28.797     8.800
    28   6 C        2.920    -0.037    28.929     8.820
    29   6 C        2.913    -0.032    28.797     8.800
    30   6 C        3.065    -0.012    28.245     8.715
    31   6 C        3.062    -0.014    28.290     8.722
    32   6 C        2.913    -0.033    28.812     8.802
    33   6 C        2.920    -0.037    28.932     8.821
    34   6 C        2.924    -0.032    28.786     8.799
    35   6 C        2.910    -0.046    29.133     8.851
    36   6 C        3.061     0.053    26.761     8.483
    37   7 N        1.859    -0.254    27.457     7.767
    38   6 C        2.936    -0.026    28.659     8.780
    39   1 H        0.926     0.034     2.534     2.489
    40   1 H        0.926     0.036     2.497     2.471
    41   1 H        0.926     0.033     2.543     2.494
    42   1 H        0.926     0.036     2.500     2.473
    43   1 H        0.926     0.037     2.494     2.470
    44   1 H        0.926     0.034     2.532     2.489
    45   1 H        0.926     0.035     2.515     2.480
    46   1 H        0.926     0.029     2.597     2.520
    47   1 H        0.925     0.054     2.269     2.356
    48   1 H        0.925     0.045     2.383     2.414
    49   1 H        0.926     0.045     2.381     2.413
    50   1 H        0.926     0.049     2.333     2.389
    51   1 H        0.926     0.029     2.598     2.520
    52   1 H        0.926     0.040     2.448     2.447
    53   1 H        0.926     0.040     2.446     2.446
    54   1 H        0.926     0.043     2.409     2.427
    55   1 H        0.926     0.041     2.430     2.438
    56   1 H        0.926     0.039     2.463     2.454
    57   1 H        0.926     0.039     2.460     2.453
    58   1 H        0.926     0.041     2.439     2.442
    59   1 H        0.926     0.065     2.144     2.290

molecular dipole:
                 x           y           z       tot (Debye)
 q only:        0.250      -0.877      -0.151
   full:        0.469      -0.834      -0.322       2.566

 projected vibrational frequencies (cm⁻¹)
eigval :       -0.00    -0.00    -0.00     0.00     0.00     0.00
eigval :       16.56    17.94    26.25    38.32    45.58    59.05
eigval :       75.36    86.46   102.93   105.26   114.57   140.78
eigval :      145.46   170.80   185.85   202.10   213.06   225.16
eigval :      247.29   260.76   272.77   275.47   289.95   303.76
eigval :      343.35   348.18   382.56   393.77   397.13   400.98
eigval :      423.18   424.32   436.68   438.57   444.73   462.60
eigval :      508.53   516.35   518.39   531.45   540.94   542.15
eigval :      543.36   579.42   584.90   590.17   603.15   609.42
eigval :      619.91   631.60   653.41   673.10   674.56   682.40
eigval :      691.24   708.67   710.55   725.49   733.46   755.00
eigval :      757.40   769.42   772.88   780.75   783.30   821.85
eigval :      824.17   835.96   870.42   871.21   873.91   875.37
eigval :      889.11   893.04   895.24   898.27   901.16   905.27
eigval :      907.81   909.49   915.54   923.00   925.22   926.21
eigval :      927.58   943.22  1005.97  1008.71  1010.98  1019.22
eigval :     1020.30  1069.99  1071.40  1075.21  1075.79  1110.31
eigval :     1118.42  1137.46  1149.09  1152.01  1161.93  1173.26
eigval :     1174.39  1176.41  1179.02  1180.13  1189.07  1193.03
eigval :     1225.53  1229.79  1233.18  1241.44  1243.86  1250.94
eigval :     1268.10  1283.69  1287.93  1294.17  1296.22  1299.72
eigval :     1330.11  1348.47  1354.58  1355.23  1355.69  1359.46
eigval :     1391.83  1406.02  1415.02  1423.13  1425.07  1434.50
eigval :     1439.35  1451.43  1470.53  1472.68  1482.66  1484.97
eigval :     1507.19  1542.47  1551.62  1558.33  1574.73  1576.79
eigval :     1587.66  1588.50  1597.11  1597.41  1608.85  1610.95
eigval :     3068.76  3069.88  3075.94  3077.73  3077.88  3077.97
eigval :     3080.10  3080.87  3080.93  3084.86  3086.06  3086.44
eigval :     3087.84  3092.70  3093.45  3095.42  3095.52  3100.42
eigval :     3100.69  3102.33  3107.49

   temp. (K)  partition function   enthalpy   heat capacity  entropy
                                   cal/mol     cal/K/mol   cal/K/mol   J/K/mol
 298.15  VIB  0.283E+12            16033.524    106.081     97.190
         ROT  0.384E+08              888.752      2.981     37.688
         INT  0.109E+20            16922.276    109.062    134.878
         TR   0.104E+29             1481.254      4.968     44.420
         TOT                       18403.5298   114.0300   179.2977   750.1816

       T/K    H(0)-H(T)+PV         H(T)/Eh          T*S/Eh         G(T)/Eh
   ------------------------------------------------------------------------
    298.15    0.293279E-01    0.473056E+00    0.851901E-01    0.387866E+00
   ------------------------------------------------------------------------

         :::::::::::::::::::::::::::::::::::::::::::::::::::::
         ::                  THERMODYNAMIC                  ::
         :::::::::::::::::::::::::::::::::::::::::::::::::::::
         :: total free energy         -95.702564411149 Eh   ::
         ::.................................................::
         :: total energy              -96.090430449277 Eh   ::
         :: zero point energy           0.443728271767 Eh   ::
         :: G(RRHO) w/o ZPVE           -0.055862233639 Eh   ::
         :: G(RRHO) contrib.            0.387866038128 Eh   ::
         :::::::::::::::::::::::::::::::::::::::::::::::::::::

           -------------------------------------------------
          | TOTAL ENERGY              -96.090430449277 Eh   |
          | TOTAL ENTHALPY            -95.617374285995 Eh   |
          | TOTAL FREE ENERGY         -95.702564411149 Eh   |
          | GRADIENT NORM               0.000040717393 Eh/α |
          | HOMO-LUMO GAP               1.963567782599 eV   |
           -------------------------------------------------

 * finished run on 2025/08/30 at 20:49:51.635
