   * xtb version 6.7.1 (edcfbbe) compiled by 'albert@albert-system' on 2024-07-22

   ID    Z sym.   atoms
    1    6 C      1-12, 14, 15, 17-20, 22, 23, 25-36, 38
    2    7 N      13, 16, 21, 24, 37
    3    1 H      39-59

          program call               : xtb data2507/toluene/CPzPyC/CPzPyC_toluene_T1_crest.xyz --gfn 2 --uhf 2 --gbsa toluene --ohess vtight --parallel 40 --molden --ceasefiles --namespace data2507/toluene/CPzPyC/CPzPyC_toluene_T1_finalOpt
      * Solvation model:               GBSA
        Solvent                        toluene
        Solvent mass                       9.2140E+01 g/mol
          :  Hamiltonian                  GFN2-xTB          :
 * total energy  :   -96.0195624 Eh     change        0.2249152E-09 Eh
 * total energy  :   -96.0195951 Eh     change       -0.3276251E-04 Eh
 * total energy  :   -96.0196102 Eh     change       -0.1503866E-04 Eh
 * total energy  :   -96.0196158 Eh     change       -0.5599230E-05 Eh
 * total energy  :   -96.0196191 Eh     change       -0.3346126E-05 Eh
 * total energy  :   -96.0196216 Eh     change       -0.2471276E-05 Eh
 * total energy  :   -96.0196244 Eh     change       -0.2838754E-05 Eh
 * total energy  :   -96.0196272 Eh     change       -0.2812382E-05 Eh
 * total energy  :   -96.0196299 Eh     change       -0.2696915E-05 Eh
 * total energy  :   -96.0196329 Eh     change       -0.2922513E-05 Eh
 * total energy  :   -96.0196702 Eh     change       -0.9665216E-06 Eh
 * total energy  :   -96.0196709 Eh     change       -0.7126772E-06 Eh
 * total energy  :   -96.0196713 Eh     change       -0.3762416E-06 Eh
 * total energy  :   -96.0196716 Eh     change       -0.2570211E-06 Eh
 * total energy  :   -96.0196718 Eh     change       -0.2260408E-06 Eh
 * total energy  :   -96.0196719 Eh     change       -0.1335995E-06 Eh
 * total energy  :   -96.0196720 Eh     change       -0.1064892E-06 Eh
 * total energy  :   -96.0196721 Eh     change       -0.1190915E-06 Eh
 * total energy  :   -96.0196722 Eh     change       -0.9746292E-07 Eh
   *** GEOMETRY OPTIMIZATION CONVERGED AFTER 35 ITERATIONS ***

 final structure:
================
59
 xtb: 6.7.1 (edcfbbe)
C           -6.29924424210001       -2.35779271192729        2.36445896665688
C           -4.93585300781795       -2.22378598484695        2.61603915420014
C           -4.14508508061985       -1.37208083607909        1.86653063488104
C           -4.75338928508459       -0.65739913187142        0.84396794036586
C           -6.14075339351254       -0.77259028408675        0.59318403275682
C           -6.91363941676161       -1.63348231639086        1.35913801538791
C           -6.43480949912225        0.12379625100298       -0.49358869607167
C           -7.59492874053102        0.43796047584276       -1.18714447684716
C           -7.52074262448265        1.35561758033354       -2.21908764480412
C           -6.30936432186713        1.94824478019174       -2.56810822055177
C           -5.14002800448308        1.65022184097078       -1.89279038972890
C           -5.21295880550740        0.74398217138734       -0.84407828815336
N           -4.20578269244644        0.25758628714592       -0.03383590928293
C           -2.86646111377129        0.65685888120921       -0.06080449064264
C           -2.54031562517758        2.02313819548115        0.00552276767438
N           -1.27736031644137        2.42171964333531       -0.02501813926840
C           -0.30143664576545        1.56821555846276       -0.09169530261008
C           -0.49807279560919        0.15845226586788       -0.13164921980201
C            0.63208487554045       -0.69244239987522       -0.15859518082287
C            0.55431092196765       -2.10870764613897       -0.24164772773165
N            1.61142708350283       -2.85412168936835       -0.24186260150251
C            2.83286478060814       -2.30396813664121       -0.16781098841947
C            2.94979636998409       -0.90687009036564       -0.14530135817704
N            4.19534370131928       -0.30806363189108       -0.07428555807000
C            4.50694454950441        0.77004604871847        0.74290054546703
C            3.68161287575951        1.50907289818031        1.57490055639782
C            4.25386847415097        2.54060784519802        2.29806855841780
C            5.61453673880380        2.82120311677929        2.20722205622051
C            6.44306142885447        2.07740695340605        1.38666657960665
C            5.88897936931695        1.04191873059772        0.64758441224902
C            6.43218336043868        0.09091594807480       -0.28788550472488
C            7.70410612371365       -0.11224130225996       -0.80341265969523
C            7.88685560675945       -1.11285705703925       -1.74030194622968
C            6.81599842754893       -1.88699028222895       -2.17700038828882
C            5.53879214913206       -1.70113804423797       -1.67702643682858
C            5.35596164200147       -0.72191002133689       -0.71152781798017
N            1.88252369597963       -0.14037254481115       -0.14239720864130
C           -1.84617876815692       -0.27029305704363       -0.13896833551231
H           -6.88359237449945       -3.03318004005942        2.97147799496604
H           -4.48663114398039       -2.79314428809214        3.41630536119944
H           -3.09236914104882       -1.25941813604707        2.07867168382816
H           -7.97252644985101       -1.73075879429651        1.17399057365397
H           -8.53262761811148       -0.02912271970693       -0.92700989680877
H           -8.41265246515065        1.61447148845560       -2.77005084818698
H           -6.28091707983356        2.65284259502082       -3.38599557827204
H           -4.20162524001889        2.10274424391259       -2.17582118052399
H           -3.29857078321750        2.78464758062717        0.09773877496579
H            0.70715465553369        1.95499730560509       -0.12556017120219
H           -0.40127166366890       -2.60301698806764       -0.33132577794828
H            3.67908161710022       -2.96028279089937       -0.06841409759200
H            2.62828849098722        1.28754872768201        1.64851393160055
H            3.63112651860796        3.13656922055565        2.94840939299281
H            6.02651519613920        3.63138654055352        2.79006449203907
H            7.49795362159099        2.29505648001962        1.31974019491769
H            8.52887499000425        0.50515703302273       -0.48250279387218
H            8.86910543068444       -1.28877336467910       -2.15234658223017
H            6.98118393315992       -2.64658424025624       -2.92641199050858
H            4.71310187295336       -2.29119505659068       -2.04419708539909
H           -2.09324386041066       -1.31723111949990       -0.22916421351129

          :  Hamiltonian                  GFN2-xTB          :
         :: gradient norm              0.000031179117 Eh/a0 ::
         :: HOMO-LUMO gap              0.672987652981 eV    ::
         :: SCC energy               -97.746539348749 Eh    ::
         :: -> dispersion             -0.080469529048 Eh    ::
         :: -> Gsolv                  -0.040660797222 Eh    ::
         :: repulsion energy           1.726867103841 Eh    ::

    * Orbital Energies and Occupations

         #    Occupation            Energy/Eh            Energy/eV
      -------------------------------------------------------------
         1        2.0000           -0.6909441             -18.8015
       ...           ...                  ...                  ...
        78        2.0000           -0.4271465             -11.6232
        79        2.0000           -0.4263563             -11.6017
        80        2.0000           -0.4255186             -11.5789
        81        2.0000           -0.4158432             -11.3157
        82        2.0000           -0.4136542             -11.2561
        83        2.0000           -0.4032085             -10.9719
        84        2.0000           -0.3908962             -10.6368
        85        2.0000           -0.3897823             -10.6065
        86        2.0000           -0.3873089             -10.5392
        87        2.0000           -0.3806390             -10.3577
        88        1.9861           -0.3705048             -10.0819
        89        1.0139           -0.3624130              -9.8618
        90        1.0000           -0.2921013              -7.9485 (HOMO)
        91        0.0000           -0.2673695              -7.2755 (LUMO)
        92                         -0.2548871              -6.9358
        93                         -0.2539082              -6.9092
        94                         -0.2480463              -6.7497
        95                         -0.2327916              -6.3346
        96                         -0.2306964              -6.2776
        97                         -0.2242103              -6.1011
        98                         -0.2036877              -5.5426
        99                         -0.1967077              -5.3527
       100                         -0.1954498              -5.3185
       101                         -0.1944409              -5.2910
       ...                                ...                  ...
       173                          0.7361393              20.0314
      -------------------------------------------------------------
                  HL-Gap            0.0247318 Eh            0.6730 eV

     #   Z          covCN         q      C6AA      α(0)
     1   6 C        2.920    -0.037    28.927     8.820
     2   6 C        2.923    -0.032    28.808     8.802
     3   6 C        2.909    -0.047    29.176     8.857
     4   6 C        3.073     0.047    26.863     8.498
     5   6 C        3.066    -0.014    28.296     8.723
     6   6 C        2.912    -0.031    28.782     8.797
     7   6 C        3.066    -0.014    28.300     8.723
     8   6 C        2.912    -0.031    28.784     8.797
     9   6 C        2.920    -0.037    28.924     8.819
    10   6 C        2.923    -0.032    28.793     8.800
    11   6 C        2.909    -0.047    29.171     8.856
    12   6 C        3.073     0.047    26.875     8.500
    13   7 N        2.802    -0.035    21.921     6.954
    14   6 C        2.903     0.055    26.761     8.482
    15   6 C        2.900     0.015    27.665     8.624
    16   7 N        1.836    -0.190    25.937     7.547
    17   6 C        2.904     0.047    26.942     8.511
    18   6 C        2.969    -0.018    28.457     8.750
    19   6 C        2.931     0.053    26.801     8.490
    20   6 C        2.891     0.046    26.975     8.515
    21   7 N        1.840    -0.190    25.942     7.548
    22   6 C        2.894    -0.011    28.282     8.719
    23   6 C        2.864     0.157    24.593     8.129
    24   7 N        2.804    -0.043    22.065     6.977
    25   6 C        3.068     0.053    26.735     8.478
    26   6 C        2.910    -0.044    29.095     8.845
    27   6 C        2.924    -0.031    28.778     8.797
    28   6 C        2.920    -0.036    28.888     8.814
    29   6 C        2.913    -0.031    28.783     8.797
    30   6 C        3.063    -0.013    28.276     8.720
    31   6 C        3.065    -0.012    28.241     8.714
    32   6 C        2.912    -0.031    28.772     8.796
    33   6 C        2.920    -0.036    28.895     8.815
    34   6 C        2.923    -0.031    28.783     8.798
    35   6 C        2.910    -0.048    29.201     8.861
    36   6 C        3.062     0.047    26.893     8.504
    37   7 N        1.854    -0.253    27.428     7.762
    38   6 C        2.926    -0.051    29.275     8.873
    39   1 H        0.926     0.037     2.485     2.465
    40   1 H        0.926     0.037     2.489     2.467
    41   1 H        0.926     0.031     2.566     2.505
    42   1 H        0.926     0.040     2.449     2.447
    43   1 H        0.926     0.040     2.452     2.448
    44   1 H        0.926     0.038     2.482     2.464
    45   1 H        0.926     0.038     2.473     2.459
    46   1 H        0.926     0.033     2.538     2.491
    47   1 H        0.926     0.043     2.404     2.424
    48   1 H        0.926     0.056     2.252     2.347
    49   1 H        0.926     0.051     2.307     2.375
    50   1 H        0.926     0.044     2.390     2.418
    51   1 H        0.926     0.041     2.430     2.438
    52   1 H        0.926     0.042     2.427     2.436
    53   1 H        0.926     0.042     2.421     2.433
    54   1 H        0.926     0.044     2.392     2.418
    55   1 H        0.926     0.045     2.387     2.416
    56   1 H        0.926     0.042     2.422     2.434
    57   1 H        0.926     0.042     2.427     2.436
    58   1 H        0.926     0.033     2.540     2.492
    59   1 H        0.926     0.040     2.446     2.446

molecular dipole:
                 x           y           z       tot (Debye)
 q only:        0.109       0.025       0.100
   full:        0.018      -0.348       0.071       0.905

 projected vibrational frequencies (cm⁻¹)
eigval :       -0.00    -0.00     0.00     0.00     0.00     0.00
eigval :       12.12    17.45    24.24    31.78    42.18    60.53
eigval :       79.28    94.32    97.51    99.90   117.21   128.87
eigval :      140.41   144.93   181.02   203.01   209.25   213.12
eigval :      228.80   270.23   270.89   272.76   285.43   321.65
eigval :      338.20   354.42   381.00   383.16   392.90   397.61
eigval :      421.79   423.14   433.43   433.74   448.29   466.81
eigval :      503.65   507.71   516.44   517.15   538.03   538.72
eigval :      541.81   551.06   574.16   583.10   584.09   597.85
eigval :      607.58   610.21   624.62   644.82   650.21   669.01
eigval :      673.12   675.74   698.21   708.58   709.90   726.00
eigval :      753.30   755.55   766.84   770.89   775.32   780.72
eigval :      781.94   797.85   810.52   814.04   851.51   870.64
eigval :      873.26   873.29   876.65   893.23   895.12   904.06
eigval :      904.22   905.76   905.92   914.48   919.85   922.23
eigval :      924.20   928.93   947.26   985.11  1008.83  1010.62
eigval :     1020.92  1066.56  1066.83  1070.79  1072.15  1076.18
eigval :     1106.27  1115.81  1124.51  1144.80  1145.56  1148.65
eigval :     1163.49  1173.30  1174.83  1178.03  1178.18  1184.83
eigval :     1189.69  1217.78  1228.78  1230.83  1231.46  1235.58
eigval :     1263.19  1276.50  1285.45  1288.72  1290.33  1294.27
eigval :     1294.58  1323.49  1341.10  1349.36  1351.25  1354.72
eigval :     1357.47  1362.63  1373.22  1414.46  1417.92  1419.66
eigval :     1422.74  1443.13  1461.06  1465.43  1466.46  1474.10
eigval :     1480.26  1481.95  1511.98  1550.12  1568.88  1571.58
eigval :     1583.96  1585.22  1586.54  1589.72  1603.26  1604.48
eigval :     3068.90  3069.41  3076.54  3078.33  3080.59  3080.83
eigval :     3081.26  3082.27  3082.82  3086.10  3087.09  3088.34
eigval :     3089.65  3091.14  3093.09  3095.22  3095.97  3097.44
eigval :     3099.76  3101.07  3114.13

   temp. (K)  partition function   enthalpy   heat capacity  entropy
                                   cal/mol     cal/K/mol   cal/K/mol   J/K/mol
 298.15  VIB  0.770E+12            16346.834    107.921     99.338
         ROT  0.457E+08              888.752      2.981     38.031
         INT  0.352E+20            17235.586    110.901    137.369
         TR   0.104E+29             1481.254      4.968     44.420
         TOT                       18716.8398   115.8696   181.7888   760.6044

       T/K    H(0)-H(T)+PV         H(T)/Eh          T*S/Eh         G(T)/Eh
   ------------------------------------------------------------------------
    298.15    0.298272E-01    0.469491E+00    0.863737E-01    0.383118E+00
   ------------------------------------------------------------------------

         :::::::::::::::::::::::::::::::::::::::::::::::::::::
         ::                  THERMODYNAMIC                  ::
         :::::::::::::::::::::::::::::::::::::::::::::::::::::
         :: total free energy         -95.636554653818 Eh   ::
         ::.................................................::
         :: total energy              -96.019672246471 Eh   ::
         :: zero point energy           0.439664143497 Eh   ::
         :: G(RRHO) w/o ZPVE           -0.056546550845 Eh   ::
         :: G(RRHO) contrib.            0.383117592653 Eh   ::
         :::::::::::::::::::::::::::::::::::::::::::::::::::::

           -------------------------------------------------
          | TOTAL ENERGY              -96.019672246471 Eh   |
          | TOTAL ENTHALPY            -95.550180920155 Eh   |
          | TOTAL FREE ENERGY         -95.636554653818 Eh   |
          | GRADIENT NORM               0.000030499586 Eh/α |
          | HOMO-LUMO GAP               0.672986464523 eV   |
           -------------------------------------------------

 * finished run on 2025/08/30 at 20:53:46.884
