   * xtb version 6.7.1 (edcfbbe) compiled by 'albert@albert-system' on 2024-07-22

   ID    Z sym.   atoms
    1    6 C      1-12, 14, 15, 17-20, 22, 23, 25-36, 38
    2    7 N      13, 16, 21, 24, 37
    3    1 H      39-59

          program call               : xtb data2507/toluene/CPzPyC/CPzPyC.xyz --gfn 2 --gbsa toluene --ohess vtight --parallel 40 --molden --ceasefiles --namespace data2507/toluene/CPzPyC/CPzPyC_toluene_S0_preOpt
      * Solvation model:               GBSA
        Solvent                        toluene
        Solvent mass                       9.2140E+01 g/mol
          :  Hamiltonian                  GFN2-xTB          :
 * total energy  :   -96.0676727 Eh     change       -0.3471655E-08 Eh
 * total energy  :   -96.0840774 Eh     change       -0.1640471E-01 Eh
 * total energy  :   -96.0879008 Eh     change       -0.3823404E-02 Eh
 * total energy  :   -96.0885244 Eh     change       -0.6236017E-03 Eh
 * total energy  :   -96.0890354 Eh     change       -0.5109872E-03 Eh
 * total energy  :   -96.0892081 Eh     change       -0.1726827E-03 Eh
 * total energy  :   -96.0893268 Eh     change       -0.1187023E-03 Eh
 * total energy  :   -96.0893866 Eh     change       -0.5980015E-04 Eh
 * total energy  :   -96.0894257 Eh     change       -0.3909799E-04 Eh
 * total energy  :   -96.0894418 Eh     change       -0.1604763E-04 Eh
 * total energy  :   -96.0895575 Eh     change       -0.6783647E-06 Eh
 * total energy  :   -96.0895583 Eh     change       -0.7471611E-06 Eh
 * total energy  :   -96.0895590 Eh     change       -0.7798443E-06 Eh
 * total energy  :   -96.0895598 Eh     change       -0.7424410E-06 Eh
 * total energy  :   -96.0895604 Eh     change       -0.6308011E-06 Eh
 * total energy  :   -96.0895609 Eh     change       -0.5124431E-06 Eh
 * total energy  :   -96.0895613 Eh     change       -0.4011935E-06 Eh
 * total energy  :   -96.0895617 Eh     change       -0.3320133E-06 Eh
 * total energy  :   -96.0895617 Eh     change       -0.2975725E-08 Eh
   *** GEOMETRY OPTIMIZATION CONVERGED AFTER 44 ITERATIONS ***

 final structure:
================
59
 xtb: 6.7.1 (edcfbbe)
C           -7.71037636278664       -0.97750442567470       -1.95620935556186
C           -6.57697044674903       -1.55373038510959       -2.52528638831459
C           -5.32347198703391       -1.38614214737691       -1.96628863488263
C           -5.22735581936784       -0.63033793942352       -0.80699401527567
C           -6.36746525683765       -0.02057221181230       -0.23729464585761
C           -7.61639323544702       -0.20193362471250       -0.81753217732976
C           -5.91002140134060        0.72021758817859        0.90659676780819
C           -6.55745334722282        1.49327027066514        1.86176805661756
C           -5.80766264375383        2.06171364538749        2.87266303540916
C           -4.43274380172699        1.85225292587571        2.94751900441602
C           -3.76684404874922        1.08640946307196        2.00830226528835
C           -4.51053985745228        0.53642763592487        0.97418754991478
N           -4.10769156079555       -0.28337798768906       -0.06791403259220
C           -2.79929279536706       -0.68515019708511       -0.33323359554183
C           -2.49167548046631       -2.02407832994399       -0.59348173446425
N           -1.26800442620071       -2.44616930808281       -0.84958586534287
C           -0.28044347856294       -1.57217293215169       -0.85131359567893
C           -0.46062427617079       -0.20891641131377       -0.59737319720555
C            0.69076486468416        0.69707092146104       -0.61231723648317
C            0.58881880661949        2.06797906833198       -0.85600499824539
N            1.64347801658301        2.86495540520442       -0.75235591890754
C            2.81279651889004        2.32340654302800       -0.48361740192793
C            2.95668530534217        0.92896694704341       -0.36049082713625
N            4.17752705473241        0.32562358068574       -0.15214372607484
C            5.41609454025655        0.77271626852506       -0.60727737686642
C            5.72831523611045        1.78757101125963       -1.49959996812580
C            7.06178838404475        1.99672992690905       -1.80727363893592
C            8.06791559509367        1.20913858354590       -1.25693362574356
C            7.76057623414279        0.16617357198924       -0.40450187630178
C            6.42914295071964       -0.06172479980367       -0.08563541685795
C            5.77283272544105       -1.06871158723476        0.70601858005827
C            6.24406077067766       -2.13827975928135        1.45540120286343
C            5.32886094014382       -2.93816590883554        2.11211153734461
C            3.96432479192642       -2.67592402604123        2.03085891712136
C            3.47422304613174       -1.61457671746717        1.29019467093622
C            4.38803990596994       -0.81597919806594        0.62234501494301
N            1.88394590897537        0.14603269097050       -0.39001902068628
C           -1.75369239115252        0.23564442183673       -0.33844745542414
H           -8.67235289625507       -1.13399811652702       -2.42132514684783
H           -6.67749721594161       -2.14232149643748       -3.42523847063770
H           -4.45051411991857       -1.82289770395814       -2.42756480127886
H           -8.49178965203878        0.25918668138637       -0.38589668759915
H           -7.62592303571637        1.63899487972319        1.81373139737600
H           -6.29075747825712        2.66909472712206        3.62360549744345
H           -3.87297538361377        2.29388054705145        3.75891132287484
H           -2.70401626969238        0.91530342581246        2.09296198950855
H           -3.26122340864903       -2.78384697203111       -0.57454529721136
H            0.70560223572828       -1.95952885355226       -1.06376048749426
H           -0.34056785678436        2.54803532480763       -1.12401441420883
H            3.63510759182772        3.00564209810050       -0.32831806933444
H            4.96494127850515        2.38974273098272       -1.96757473622151
H            7.32242997227820        2.78617907360977       -2.49638556512509
H            9.09703821027017        1.40682675154114       -1.51641598328629
H            8.53440529485400       -0.46807929080463       -0.00032221241148
H            7.30315431842578       -2.33473830080873        1.52141619366720
H            5.67293830737683       -3.77765931579976        2.69762208093502
H            3.26924066026560       -3.31506792206786        2.55479210734906
H            2.41606322664099       -1.42041255173045        1.22633510762856
H           -1.95476975860778        1.27681071078888       -0.13685170208495

          :  Hamiltonian                  GFN2-xTB          :
         :: gradient norm              0.000043124951 Eh/a0 ::
         :: HOMO-LUMO gap              1.917100817316 eV    ::
         :: SCC energy               -97.817498792563 Eh    ::
         :: -> dispersion             -0.080417101306 Eh    ::
         :: -> Gsolv                  -0.040127728899 Eh    ::
         :: repulsion energy           1.727937131615 Eh    ::

    * Orbital Energies and Occupations

         #    Occupation            Energy/Eh            Energy/eV
      -------------------------------------------------------------
         1        2.0000           -0.7011866             -19.0803
       ...           ...                  ...                  ...
        77        2.0000           -0.4278794             -11.6432
        78        2.0000           -0.4261782             -11.5969
        79        2.0000           -0.4250100             -11.5651
        80        2.0000           -0.4240592             -11.5392
        81        2.0000           -0.4209937             -11.4558
        82        2.0000           -0.4143678             -11.2755
        83        2.0000           -0.4117321             -11.2038
        84        2.0000           -0.3929404             -10.6925
        85        2.0000           -0.3882651             -10.5652
        86        2.0000           -0.3851885             -10.4815
        87        2.0000           -0.3828216             -10.4171
        88        2.0000           -0.3725267             -10.1370
        89        2.0000           -0.3678033             -10.0084 (HOMO)
        90                         -0.2973512              -8.0913 (LUMO)
        91                         -0.2783903              -7.5754
        92                         -0.2653356              -7.2202
        93                         -0.2537194              -6.9041
        94                         -0.2505020              -6.8165
        95                         -0.2376497              -6.4668
        96                         -0.2310722              -6.2878
        97                         -0.2284630              -6.2168
        98                         -0.2039002              -5.5484
        99                         -0.1970367              -5.3616
       100                         -0.1952182              -5.3122
       ...                                ...                  ...
       173                          0.7374198              20.0662
      -------------------------------------------------------------
                  HL-Gap            0.0704522 Eh            1.9171 eV

     #   Z          covCN         q      C6AA      α(0)
     1   6 C        2.920    -0.040    28.990     8.829
     2   6 C        2.924    -0.033    28.812     8.803
     3   6 C        2.910    -0.052    29.282     8.873
     4   6 C        3.068     0.045    26.923     8.508
     5   6 C        3.066    -0.015    28.328     8.728
     6   6 C        2.913    -0.033    28.822     8.803
     7   6 C        3.066    -0.015    28.328     8.728
     8   6 C        2.913    -0.033    28.819     8.803
     9   6 C        2.920    -0.040    28.995     8.830
    10   6 C        2.924    -0.033    28.834     8.806
    11   6 C        2.910    -0.051    29.278     8.873
    12   6 C        3.067     0.046    26.908     8.506
    13   7 N        2.800    -0.047    22.142     6.989
    14   6 C        2.905     0.059    26.682     8.470
    15   6 C        2.912     0.046    26.960     8.514
    16   7 N        1.835    -0.220    26.649     7.650
    17   6 C        2.914     0.057    26.732     8.478
    18   6 C        2.973    -0.005    28.147     8.703
    19   6 C        2.947     0.087    26.057     8.372
    20   6 C        2.905     0.034    27.234     8.557
    21   7 N        1.839    -0.218    26.590     7.642
    22   6 C        2.904     0.033    27.253     8.560
    23   6 C        2.882     0.151    24.731     8.153
    24   7 N        2.801    -0.050    22.199     6.998
    25   6 C        3.055     0.044    26.954     8.514
    26   6 C        2.910    -0.051    29.277     8.872
    27   6 C        2.923    -0.032    28.801     8.801
    28   6 C        2.920    -0.037    28.926     8.820
    29   6 C        2.913    -0.032    28.798     8.800
    30   6 C        3.064    -0.012    28.237     8.714
    31   6 C        3.063    -0.014    28.290     8.722
    32   6 C        2.913    -0.033    28.818     8.803
    33   6 C        2.920    -0.037    28.925     8.819
    34   6 C        2.924    -0.032    28.792     8.799
    35   6 C        2.910    -0.047    29.166     8.856
    36   6 C        3.059     0.052    26.771     8.485
    37   7 N        1.858    -0.255    27.502     7.773
    38   6 C        2.932    -0.035    28.864     8.811
    39   1 H        0.926     0.034     2.526     2.485
    40   1 H        0.926     0.036     2.506     2.476
    41   1 H        0.926     0.029     2.595     2.519
    42   1 H        0.926     0.037     2.491     2.468
    43   1 H        0.926     0.037     2.489     2.467
    44   1 H        0.926     0.034     2.532     2.489
    45   1 H        0.926     0.034     2.531     2.488
    46   1 H        0.926     0.026     2.640     2.541
    47   1 H        0.925     0.054     2.267     2.355
    48   1 H        0.926     0.060     2.196     2.317
    49   1 H        0.926     0.045     2.381     2.413
    50   1 H        0.926     0.049     2.331     2.387
    51   1 H        0.926     0.030     2.593     2.518
    52   1 H        0.926     0.040     2.446     2.446
    53   1 H        0.926     0.040     2.444     2.444
    54   1 H        0.926     0.043     2.406     2.426
    55   1 H        0.926     0.042     2.426     2.436
    56   1 H        0.926     0.039     2.456     2.451
    57   1 H        0.926     0.040     2.450     2.448
    58   1 H        0.926     0.045     2.381     2.413
    59   1 H        0.926     0.052     2.289     2.366

molecular dipole:
                 x           y           z       tot (Debye)
 q only:        0.277      -0.060       0.181
   full:        0.207       0.384       0.168       1.189

 projected vibrational frequencies (cm⁻¹)
eigval :       -0.00     0.00     0.00     0.00     0.00     0.00
eigval :       11.42    16.54    22.42    37.26    41.69    56.84
eigval :       73.54    93.78    95.96   103.01   120.18   132.92
eigval :      139.17   150.23   181.89   204.26   215.06   224.80
eigval :      242.37   271.18   272.26   273.92   287.78   324.16
eigval :      336.18   350.05   376.99   393.18   394.43   398.23
eigval :      421.86   423.16   435.73   437.96   446.20   451.02
eigval :      508.64   516.19   517.91   531.86   540.03   540.65
eigval :      547.08   576.86   584.11   590.50   603.21   608.21
eigval :      615.96   632.51   654.59   671.90   674.18   682.30
eigval :      690.63   707.64   709.61   723.11   735.61   754.45
eigval :      757.53   770.11   770.71   780.96   781.59   818.83
eigval :      824.29   837.63   868.10   870.03   873.25   875.98
eigval :      888.22   895.17   895.61   900.99   902.27   903.69
eigval :      908.08   909.30   914.07   922.81   924.42   924.69
eigval :      926.99   943.15  1006.27  1010.18  1011.23  1018.58
eigval :     1023.20  1069.92  1070.77  1073.90  1076.77  1107.92
eigval :     1118.63  1134.35  1149.18  1150.92  1162.71  1167.47
eigval :     1174.69  1176.20  1179.45  1179.71  1187.79  1192.81
eigval :     1226.71  1231.92  1233.17  1235.74  1242.52  1252.20
eigval :     1266.74  1280.18  1285.77  1294.95  1295.51  1299.46
eigval :     1323.90  1350.98  1354.66  1355.50  1357.00  1366.14
eigval :     1383.79  1405.69  1414.24  1422.57  1425.15  1434.51
eigval :     1439.13  1455.89  1469.96  1473.04  1482.14  1484.93
eigval :     1506.65  1540.57  1550.80  1562.40  1574.16  1576.85
eigval :     1587.49  1587.98  1596.51  1597.32  1608.41  1610.94
eigval :     3068.60  3074.67  3075.81  3077.46  3079.13  3079.31
eigval :     3080.05  3080.78  3080.82  3084.05  3086.13  3086.33
eigval :     3086.93  3087.45  3093.31  3094.20  3094.40  3096.31
eigval :     3096.59  3100.23  3113.05

   temp. (K)  partition function   enthalpy   heat capacity  entropy
                                   cal/mol     cal/K/mol   cal/K/mol   J/K/mol
 298.15  VIB  0.677E+12            16100.555    105.994     98.173
         ROT  0.447E+08              888.752      2.981     37.986
         INT  0.302E+20            16989.307    108.974    136.158
         TR   0.104E+29             1481.254      4.968     44.420
         TOT                       18470.5613   113.9426   180.5785   755.5405

       T/K    H(0)-H(T)+PV         H(T)/Eh          T*S/Eh         G(T)/Eh
   ------------------------------------------------------------------------
    298.15    0.294347E-01    0.472917E+00    0.857987E-01    0.387118E+00
   ------------------------------------------------------------------------

         :::::::::::::::::::::::::::::::::::::::::::::::::::::
         ::                  THERMODYNAMIC                  ::
         :::::::::::::::::::::::::::::::::::::::::::::::::::::
         :: total free energy         -95.702443331395 Eh   ::
         ::.................................................::
         :: total energy              -96.089561658313 Eh   ::
         :: zero point energy           0.443482293779 Eh   ::
         :: G(RRHO) w/o ZPVE           -0.056363966861 Eh   ::
         :: G(RRHO) contrib.            0.387118326918 Eh   ::
         :::::::::::::::::::::::::::::::::::::::::::::::::::::

           -------------------------------------------------
          | TOTAL ENERGY              -96.089561658313 Eh   |
          | TOTAL ENTHALPY            -95.616644651471 Eh   |
          | TOTAL FREE ENERGY         -95.702443331395 Eh   |
          | GRADIENT NORM               0.000043124068 Eh/α |
          | HOMO-LUMO GAP               1.917100711221 eV   |
           -------------------------------------------------

 * finished run on 2025/08/30 at 20:47:07.910
