   * xtb version 6.7.1 (edcfbbe) compiled by 'albert@albert-system' on 2024-07-22

   ID    Z sym.   atoms
    1    6 C      1-12, 14, 15, 17-20, 22, 23, 25-36, 38
    2    7 N      13, 16, 21, 24, 37
    3    1 H      39-59

          program call               : xtb data2507/toluene/CPzPyC/CPzPyC_toluene_S0_finalOpt.xtbopt.xyz --gfn 2 --uhf 2 --gbsa toluene --ohess vtight --parallel 40 --molden --ceasefiles --namespace data2507/toluene/CPzPyC/CPzPyC_toluene_T1_preOpt
      * Solvation model:               GBSA
        Solvent                        toluene
        Solvent mass                       9.2140E+01 g/mol
          :  Hamiltonian                  GFN2-xTB          :
 * total energy  :   -96.0089184 Eh     change        0.2865761E-08 Eh
 * total energy  :   -96.0126234 Eh     change       -0.3705009E-02 Eh
 * total energy  :   -96.0139323 Eh     change       -0.1308910E-02 Eh
 * total energy  :   -96.0143706 Eh     change       -0.4382833E-03 Eh
 * total energy  :   -96.0147413 Eh     change       -0.3706844E-03 Eh
 * total energy  :   -96.0149152 Eh     change       -0.1739767E-03 Eh
 * total energy  :   -96.0150600 Eh     change       -0.1448114E-03 Eh
 * total energy  :   -96.0151565 Eh     change       -0.9642481E-04 Eh
 * total energy  :   -96.0152142 Eh     change       -0.5777606E-04 Eh
 * total energy  :   -96.0152461 Eh     change       -0.3190931E-04 Eh
 * total energy  :   -96.0159945 Eh     change       -0.7588693E-06 Eh
 * total energy  :   -96.0159952 Eh     change       -0.7474100E-06 Eh
 * total energy  :   -96.0159959 Eh     change       -0.7405104E-06 Eh
 * total energy  :   -96.0159967 Eh     change       -0.7373032E-06 Eh
 * total energy  :   -96.0159974 Eh     change       -0.7382543E-06 Eh
 * total energy  :   -96.0159982 Eh     change       -0.7420002E-06 Eh
 * total energy  :   -96.0159989 Eh     change       -0.7487360E-06 Eh
 * total energy  :   -96.0159997 Eh     change       -0.7571489E-06 Eh
 * total energy  :   -96.0159997 Eh     change       -0.6751662E-08 Eh
   *** GEOMETRY OPTIMIZATION CONVERGED AFTER 221 ITERATIONS ***

 final structure:
================
59
 xtb: 6.7.1 (edcfbbe)
C           -3.03526639649855       -3.89195663027469        1.02725627949049
C           -2.10863686340052       -3.00346362300028        1.56660522325691
C           -2.15822415466121       -1.65010550014421        1.28715252821018
C           -3.16126815677215       -1.20106286404276        0.43872247206635
C           -4.12102359252109       -2.09376728826518       -0.09495728262801
C           -4.05053997456441       -3.44718043840384        0.19922936963651
C           -5.02412960526329       -1.29850881048570       -0.88460776815308
C           -6.14171135438034       -1.59818097323104       -1.64935042696580
C           -6.78500036508077       -0.56871312110627       -2.31340253461429
C           -6.31591409788353        0.74025179433312       -2.23382394892802
C           -5.20277204072486        1.06271218257141       -1.47917161222601
C           -4.56910951273501        0.03764755475771       -0.78896424115218
N           -3.44328261680144        0.08077959421867        0.00975234999920
C           -2.74546734629771        1.24145977721104        0.35934172466930
C           -3.45075701990944        2.36141053670953        0.83751713372380
N           -2.83221524918731        3.49321350189099        1.13799780595439
C           -1.53331047915209        3.58991411081127        1.02328308159942
C           -0.70191349134487        2.51791747503462        0.61271811263407
C            0.71253589373205        2.59591769296700        0.53403714454789
C            1.45506990009778        3.79584234623237        0.66104990026741
N            2.74912579279060        3.82376336539222        0.58478037137850
C            3.43503992812280        2.68615671671751        0.37488640816341
C            2.73098272277316        1.49411837185613        0.17240159051002
N            3.41822127022388        0.30921867520306       -0.03642271183682
C            4.56878975461677        0.13428986061974       -0.78897862327786
C            5.21124437464011        1.01615497141406       -1.64612318248475
C            6.34099849703654        0.56719742902572       -2.30792424687620
C            6.81752461244791       -0.72874942404012       -2.13392898724772
C            6.16372171526363       -1.62162803818448       -1.30365878490864
C            5.02954258759051       -1.19325586412619       -0.63007728772973
C            4.10991758269650       -1.84491132360054        0.26747202963203
C            4.03773122119222       -3.12360349719117        0.80042520730338
C            2.99926207002574       -3.42198886825184        1.66492309628512
C            2.04396624650293       -2.46567900155448        1.99749551254430
C            2.09463549517199       -1.18547774842143        1.47575181336267
C            3.12893304665443       -0.88637985712884        0.60371682088834
N            1.41830160432625        1.45383413658143        0.24593673301445
C           -1.37253377605037        1.31903976415565        0.25987249736706
H           -2.96180158339285       -4.94208046203843        1.26744965370894
H           -1.33764721270302       -3.37996451568318        2.22127231541601
H           -1.44637597870491       -0.96552152382693        1.72132200044739
H           -4.77583508478090       -4.13509274022230       -0.20767485525446
H           -6.49767887040814       -2.61418846013543       -1.72584630060133
H           -7.65904563880097       -0.78089406347125       -2.91082961637180
H           -6.82932143762020        1.52080635065510       -2.77536018291946
H           -4.83573653329022        2.07685956196677       -1.43492193021150
H           -4.51767842476137        2.33184646576389        0.99851635049992
H           -1.12025986402669        4.55721913496094        1.27287942459615
H            0.95103476491181        4.74272125637369        0.78252432612830
H            4.50848698386955        2.72293302748431        0.43608160480724
H            4.83968839117760        2.01683858392617       -1.80554093983464
H            6.85918393900873        1.23772486997379       -2.97698041534006
H            7.70332462629690       -1.04189970037589       -2.66567737298617
H            6.52203373012946       -2.63247040095179       -1.18489647545145
H            4.77847572599368       -3.86624080661047        0.54689279201695
H            2.92864048345718       -4.41020320794021        2.09413740647545
H            1.25157045110075       -2.72408149312224        2.68318117910170
H            1.35922946225834       -0.43945209593360        1.73348213438481
H           -0.79232096227565        0.49198502167924       -0.11953941211639

          :  Hamiltonian                  GFN2-xTB          :
         :: gradient norm              0.000070065081 Eh/a0 ::
         :: HOMO-LUMO gap              0.637131986511 eV    ::
         :: SCC energy               -97.739268405039 Eh    ::
         :: -> dispersion             -0.081799830777 Eh    ::
         :: -> Gsolv                  -0.040490462730 Eh    ::
         :: repulsion energy           1.723268730420 Eh    ::

    * Orbital Energies and Occupations

         #    Occupation            Energy/Eh            Energy/eV
      -------------------------------------------------------------
         1        2.0000           -0.6925770             -18.8460
       ...           ...                  ...                  ...
        78        2.0000           -0.4269769             -11.6186
        79        2.0000           -0.4265128             -11.6060
        80        2.0000           -0.4258045             -11.5867
        81        2.0000           -0.4178505             -11.3703
        82        2.0000           -0.4141995             -11.2709
        83        2.0000           -0.4013912             -10.9224
        84        2.0000           -0.3919425             -10.6653
        85        2.0000           -0.3879651             -10.5571
        86        2.0000           -0.3850862             -10.4787
        87        2.0000           -0.3815772             -10.3832
        88        1.6990           -0.3670725              -9.9886
        89        1.3010           -0.3654720              -9.9450
        90        1.0000           -0.2892498              -7.8709 (HOMO)
        91        0.0000           -0.2658355              -7.2338 (LUMO)
        92                         -0.2554528              -6.9512
        93                         -0.2546372              -6.9290
        94                         -0.2461585              -6.6983
        95                         -0.2349435              -6.3931
        96                         -0.2315309              -6.3003
        97                         -0.2232591              -6.0752
        98                         -0.2050433              -5.5795
        99                         -0.1987807              -5.4091
       100                         -0.1949977              -5.3062
       101                         -0.1948072              -5.3010
       ...                                ...                  ...
       173                          0.7358742              20.0242
      -------------------------------------------------------------
                  HL-Gap            0.0234144 Eh            0.6371 eV

     #   Z          covCN         q      C6AA      α(0)
     1   6 C        2.920    -0.036    28.888     8.814
     2   6 C        2.923    -0.031    28.779     8.797
     3   6 C        2.909    -0.044    29.105     8.846
     4   6 C        3.071     0.048    26.845     8.495
     5   6 C        3.066    -0.013    28.274     8.719
     6   6 C        2.912    -0.031    28.762     8.794
     7   6 C        3.065    -0.013    28.274     8.719
     8   6 C        2.912    -0.031    28.763     8.794
     9   6 C        2.920    -0.036    28.885     8.813
    10   6 C        2.923    -0.031    28.785     8.798
    11   6 C        2.909    -0.045    29.126     8.849
    12   6 C        3.073     0.047    26.865     8.498
    13   7 N        2.802    -0.030    21.815     6.937
    14   6 C        2.902     0.052    26.841     8.495
    15   6 C        2.902     0.021    27.533     8.604
    16   7 N        1.834    -0.217    26.566     7.638
    17   6 C        2.900     0.040    27.114     8.538
    18   6 C        2.968    -0.019    28.482     8.754
    19   6 C        2.929     0.052    26.838     8.496
    20   6 C        2.890     0.046    26.962     8.513
    21   7 N        1.839    -0.198    26.124     7.575
    22   6 C        2.894    -0.009    28.240     8.713
    23   6 C        2.864     0.156    24.618     8.133
    24   7 N        2.805    -0.039    22.000     6.966
    25   6 C        3.063     0.047    26.886     8.503
    26   6 C        2.910    -0.047    29.162     8.855
    27   6 C        2.923    -0.031    28.769     8.796
    28   6 C        2.920    -0.035    28.867     8.811
    29   6 C        2.912    -0.030    28.755     8.793
    30   6 C        3.065    -0.011    28.229     8.712
    31   6 C        3.062    -0.012    28.260     8.717
    32   6 C        2.913    -0.031    28.764     8.794
    33   6 C        2.920    -0.035    28.864     8.810
    34   6 C        2.924    -0.030    28.758     8.794
    35   6 C        2.910    -0.042    29.049     8.838
    36   6 C        3.070     0.054    26.725     8.477
    37   7 N        1.853    -0.258    27.553     7.780
    38   6 C        2.931    -0.041    29.030     8.836
    39   1 H        0.926     0.040     2.450     2.448
    40   1 H        0.926     0.040     2.451     2.448
    41   1 H        0.926     0.036     2.505     2.475
    42   1 H        0.926     0.042     2.425     2.435
    43   1 H        0.926     0.042     2.421     2.433
    44   1 H        0.926     0.040     2.454     2.450
    45   1 H        0.926     0.039     2.456     2.451
    46   1 H        0.926     0.035     2.516     2.481
    47   1 H        0.926     0.038     2.469     2.457
    48   1 H        0.926     0.031     2.568     2.506
    49   1 H        0.926     0.047     2.355     2.400
    50   1 H        0.926     0.042     2.421     2.433
    51   1 H        0.926     0.034     2.529     2.487
    52   1 H        0.926     0.043     2.412     2.429
    53   1 H        0.926     0.044     2.401     2.423
    54   1 H        0.926     0.046     2.368     2.406
    55   1 H        0.926     0.046     2.375     2.410
    56   1 H        0.926     0.044     2.400     2.422
    57   1 H        0.926     0.042     2.417     2.431
    58   1 H        0.926     0.042     2.423     2.434
    59   1 H        0.926     0.051     2.308     2.376

molecular dipole:
                 x           y           z       tot (Debye)
 q only:        0.206      -1.872      -0.379
   full:        0.406      -1.756      -0.425       4.707

 projected vibrational frequencies (cm⁻¹)
eigval :       -0.00    -0.00    -0.00     0.00     0.00     0.00
eigval :        9.81    18.53    22.56    32.08    44.38    62.59
eigval :       75.28    86.61    99.52   103.94   113.27   138.47
eigval :      142.86   168.68   183.06   196.42   208.94   214.83
eigval :      235.62   259.32   269.18   272.89   286.52   295.29
eigval :      349.77   354.79   374.40   385.58   394.05   398.32
eigval :      420.52   423.70   432.21   433.59   450.03   462.41
eigval :      494.03   512.69   515.58   518.49   536.94   539.22
eigval :      543.95   549.91   564.89   581.28   584.58   595.84
eigval :      612.49   614.37   621.84   644.01   655.85   669.34
eigval :      673.42   675.68   691.74   708.44   710.97   726.21
eigval :      753.70   755.16   765.64   770.31   775.03   780.48
eigval :      781.02   808.38   811.39   820.17   851.03   866.48
eigval :      872.78   873.35   876.39   893.27   895.14   900.43
eigval :      902.96   904.37   906.42   915.56   917.14   921.65
eigval :      922.66   923.38   948.44   986.51  1006.13  1010.41
eigval :     1013.08  1065.29  1067.08  1070.30  1072.31  1078.71
eigval :     1098.91  1111.50  1124.55  1141.33  1144.49  1160.50
eigval :     1169.77  1170.70  1173.75  1176.65  1178.97  1182.48
eigval :     1188.87  1218.72  1227.95  1229.51  1233.70  1239.92
eigval :     1267.42  1274.37  1285.19  1287.72  1289.54  1292.59
eigval :     1300.30  1327.69  1339.70  1346.61  1349.48  1354.57
eigval :     1357.71  1358.97  1384.01  1411.50  1413.52  1417.06
eigval :     1424.06  1434.70  1441.85  1458.84  1462.05  1463.75
eigval :     1479.44  1480.65  1493.91  1530.79  1566.49  1570.19
eigval :     1581.26  1581.70  1584.06  1586.82  1600.86  1603.06
eigval :     3060.57  3072.28  3079.03  3081.19  3081.59  3082.03
eigval :     3082.34  3084.49  3087.36  3087.74  3089.62  3091.39
eigval :     3093.24  3093.92  3094.43  3095.99  3097.85  3100.60
eigval :     3100.91  3102.53  3109.51

   temp. (K)  partition function   enthalpy   heat capacity  entropy
                                   cal/mol     cal/K/mol   cal/K/mol   J/K/mol
 298.15  VIB  0.855E+12            16346.557    108.041     99.419
         ROT  0.394E+08              888.752      2.981     37.736
         INT  0.337E+20            17235.310    111.022    137.155
         TR   0.104E+29             1481.254      4.968     44.420
         TOT                       18716.5634   115.9899   181.5752   759.7105

       T/K    H(0)-H(T)+PV         H(T)/Eh          T*S/Eh         G(T)/Eh
   ------------------------------------------------------------------------
    298.15    0.298267E-01    0.469257E+00    0.862722E-01    0.382985E+00
   ------------------------------------------------------------------------

         :::::::::::::::::::::::::::::::::::::::::::::::::::::
         ::                  THERMODYNAMIC                  ::
         :::::::::::::::::::::::::::::::::::::::::::::::::::::
         :: total free energy         -95.633014829680 Eh   ::
         ::.................................................::
         :: total energy              -96.015999671394 Eh   ::
         :: zero point energy           0.439430315318 Eh   ::
         :: G(RRHO) w/o ZPVE           -0.056445473603 Eh   ::
         :: G(RRHO) contrib.            0.382984841714 Eh   ::
         :::::::::::::::::::::::::::::::::::::::::::::::::::::

           -------------------------------------------------
          | TOTAL ENERGY              -96.015999671394 Eh   |
          | TOTAL ENTHALPY            -95.546742613693 Eh   |
          | TOTAL FREE ENERGY         -95.633014829680 Eh   |
          | GRADIENT NORM               0.000071254424 Eh/α |
          | HOMO-LUMO GAP               0.637137281689 eV   |
           -------------------------------------------------

 * finished run on 2025/08/30 at 20:50:05.378
