   * xtb version 6.7.1 (edcfbbe) compiled by 'albert@albert-system' on 2024-07-22

   ID    Z sym.   atoms
    1    6 C      1-15, 17-34, 36-59
    2    7 N      16, 35
    3    1 H      60-107

          program call               : xtb data2507/toluene/CPTBF/CPTBF.xyz --gfn 2 --gbsa toluene --ohess vtight --parallel 40 --molden --ceasefiles --namespace data2507/toluene/CPTBF/CPTBF_toluene_S0_preOpt
      * Solvation model:               GBSA
        Solvent                        toluene
        Solvent mass                       9.2140E+01 g/mol
          :  Hamiltonian                  GFN2-xTB          :
 * total energy  :  -152.5362507 Eh     change       -0.2943551E-08 Eh
 * total energy  :  -152.5543467 Eh     change       -0.1809595E-01 Eh
 * total energy  :  -152.5593558 Eh     change       -0.5009146E-02 Eh
 * total energy  :  -152.5609462 Eh     change       -0.1590362E-02 Eh
 * total energy  :  -152.5621140 Eh     change       -0.1167764E-02 Eh
 * total energy  :  -152.5626855 Eh     change       -0.5715423E-03 Eh
 * total energy  :  -152.5630430 Eh     change       -0.3575322E-03 Eh
 * total energy  :  -152.5633137 Eh     change       -0.2706451E-03 Eh
 * total energy  :  -152.5634887 Eh     change       -0.1749987E-03 Eh
 * total energy  :  -152.5635745 Eh     change       -0.8585196E-04 Eh
 * total energy  :  -152.5638821 Eh     change       -0.4866179E-05 Eh
 * total energy  :  -152.5638856 Eh     change       -0.3465022E-05 Eh
 * total energy  :  -152.5638879 Eh     change       -0.2347228E-05 Eh
 * total energy  :  -152.5638891 Eh     change       -0.1166213E-05 Eh
 * total energy  :  -152.5638896 Eh     change       -0.5072526E-06 Eh
 * total energy  :  -152.5638898 Eh     change       -0.2059178E-06 Eh
 * total energy  :  -152.5638900 Eh     change       -0.1483529E-06 Eh
 * total energy  :  -152.5638901 Eh     change       -0.1632615E-06 Eh
 * total energy  :  -152.5638901 Eh     change       -0.2924651E-08 Eh
   *** GEOMETRY OPTIMIZATION CONVERGED AFTER 44 ITERATIONS ***

 final structure:
================
107
 xtb: 6.7.1 (edcfbbe)
C            0.89283575790440        5.04493996820493        1.72375855213984
C            0.75503367673375        4.56871530946359        3.17333410379906
C           -0.39906935197221        5.34713934828223        3.82331553645464
C            2.06947967565462        4.88086434131592        3.90429370127815
C            0.46742035734907        3.07771459957530        3.27606616515808
C            0.31233886768112        2.49596271301971        4.53504760107502
C            0.04282413037040        1.14897285683055        4.69853784650080
C           -0.07876045961183        0.35026221867201        3.57369576423215
C            0.07228835198815        0.92008971750869        2.30444769628296
C            0.34751544061930        2.26188677249428        2.15255308956303
C           -0.08392477391159       -0.13219388391578        1.21973759618387
C            1.21841905089002       -0.19560457924725        0.44857404400864
C            2.24132819031806       -1.05171163846162        0.83758146443389
C            3.45231844925505       -1.05758301329808        0.17155006820729
C            3.66260681297081       -0.20391857643052       -0.90619855999376
N            4.88797946206115       -0.21393949247020       -1.59182511238108
C            5.66996263622616        0.88989086046594       -1.86514419555448
C            5.47819418533985        2.21882504485693       -1.51268518655153
C            6.43879027923927        3.13430291688222       -1.89773800428240
C            7.57219542398709        2.74433748486933       -2.60905275694305
C            7.77972166410986        1.42087303977145       -2.94353115795016
C            6.82713865607717        0.48157933135492       -2.56888767039403
C            6.72550705337984       -0.94221255465485       -2.72846839807292
C            7.52939843386077       -1.89641202913666       -3.33953642743076
C            7.11648440872487       -3.21394560555968       -3.33118730251230
C            5.91260470619885       -3.58359461973237       -2.73405390614824
C            5.09597088859430       -2.65325269047435       -2.12028295237772
C            5.51541377952089       -1.33002836983368       -2.10703433127143
C            2.64522246413978        0.66102844510743       -1.29749002822744
C            1.44213258529918        0.66764147853968       -0.61932811522822
C           -1.28051230695838        0.09621949304338        0.31990531334479
C           -1.36811155989442       -0.55739409768103       -0.90529566593261
C           -2.48100526074562       -0.41161570996444       -1.70991955770305
C           -3.53250924458684        0.40520167233718       -1.30578534384098
N           -4.65816263369613        0.57027893188528       -2.12883063505980
C           -4.63705875066648        0.93546833187460       -3.45977402106518
C           -3.55747815040651        1.24920722845547       -4.27410780150199
C           -3.81850237468699        1.61203963572995       -5.58157843976077
C           -5.12082590042378        1.67169511655847       -6.07437313939182
C           -6.20031086271150        1.38241337482067       -5.26345068129856
C           -5.96351888188735        1.01540048008346       -3.94463884463540
C           -6.82075665346250        0.67600425739481       -2.84333462512365
C           -8.19861668528809        0.56903111450772       -2.70093672893047
C           -8.71026710900365        0.19413745565042       -1.47446279323909
C           -7.86615302468344       -0.08802167967694       -0.40182166542480
C           -6.49286782769701        0.01088077399102       -0.51859906320809
C           -5.97338054273015        0.41121972100623       -1.74211077732298
C           -3.45452556265349        1.05742876273760       -0.07981616651475
C           -2.34373334673531        0.89286408397861        0.72606035318654
C           -0.35560615172134       -1.37451335878570        2.05053592722459
C           -0.59758836832241       -2.65575218861587        1.61514034144809
C           -0.83513243352119       -3.67810731374837        2.53770817423119
C           -1.08012048059338       -5.08822465017129        2.02093009028836
C           -2.32220746233458       -5.08214622152841        1.11698195653692
C            0.14725691751260       -5.54311351533445        1.21625725054716
C           -1.31389869912014       -6.10236894832384        3.14478624978513
C           -0.83118446875080       -3.35866464263027        3.89212519639087
C           -0.59624543982908       -2.06774556208440        4.34134593052660
C           -0.35603213191984       -1.06678819562099        3.41785335162315
H            1.09775983008965        6.11377203144602        1.71261634523564
H            1.71612572637800        4.54073982109395        1.22219506222307
H           -0.02522050005721        4.87417463031192        1.16563055836155
H           -1.33812407182498        5.11424372202059        3.32459023062209
H           -0.22148879539554        6.41754596958348        3.74156194622681
H           -0.50209846057782        5.09962248852121        4.87629230641455
H            2.01075085304300        4.61941589337811        4.95733308207242
H            2.29580043966389        5.94259196973067        3.82964926985166
H            2.89003939458113        4.32084240307865        3.45929067561504
H            0.40353715496765        3.10811516004502        5.41987392903897
H           -0.07024772501678        0.73176530422506        5.68863746276239
H            0.45997068459251        2.66349244028876        1.15956384668000
H            2.09415983482060       -1.71819996590197        1.67425376631143
H            4.24539227097117       -1.71641480424103        0.49286335300579
H            4.61222867322146        2.52793139810001       -0.94683365601715
H            6.31081418492751        4.17528631382341       -1.63812007083732
H            8.29962272389666        3.49051891435836       -2.89379668650016
H            8.66500395241788        1.11725814802611       -3.48245348241319
H            8.45572443852974       -1.60852359012265       -3.81427179944633
H            7.72827982655396       -3.97143577396153       -3.79910727182307
H            5.60980468245615       -4.62053810473490       -2.75469494668374
H            4.15835150875637       -2.94752661550184       -1.67323730140579
H            2.79821472479355        1.31834184601835       -2.14064473419262
H            0.65993133587125        1.34089587647998       -0.93801743199285
H           -0.55406542620906       -1.18448106212856       -1.23823645603613
H           -2.54536660160512       -0.93696670496180       -2.65138935079502
H           -2.54575737837914        1.21995412886063       -3.89849867657597
H           -2.99473541378739        1.85791058366454       -6.23612322751981
H           -5.28346177691409        1.95706689922983       -7.10352766474136
H           -7.21007679064023        1.44291747918797       -5.64155671640678
H           -8.85251202046726        0.77269180200995       -3.53596263527461
H           -9.77899104220390        0.10838499069802       -1.34194149183753
H           -8.29523767994667       -0.39378218380063        0.54153399327987
H           -5.84625538863014       -0.22463851612766        0.31339330020258
H           -4.26232487856751        1.70158505590023        0.23445814937954
H           -2.29972736785152        1.40164747356126        1.67742606158076
H           -0.59640718854029       -2.86497630821965        0.55668652423456
H           -2.19439740537016       -4.41596512255160        0.26798643347152
H           -2.51437222107167       -6.08408354284400        0.73850794461787
H           -3.19453147502674       -4.75261241668654        1.67848342390324
H            0.32375116235230       -4.89689471907587        0.36071492660802
H            1.03603725910587       -5.52759669851280        1.84458444574251
H            0.00052584491980       -6.55779335636483        0.85171751107191
H           -0.44927882067376       -6.16625535101000        3.80181496400806
H           -2.19125736844348       -5.84145627788305        3.73247851528567
H           -1.48063427098035       -7.08765070405104        2.71352698968374
H           -1.01388992079027       -4.12317120977321        4.62963392413022
H           -0.60168292342439       -1.85341945911138        5.40027334969712

          :  Hamiltonian                  GFN2-xTB          :
         :: gradient norm              0.000039391210 Eh/a0 ::
         :: HOMO-LUMO gap              3.046383648801 eV    ::
         :: SCC energy              -155.380483989692 Eh    ::
         :: -> dispersion             -0.148313976499 Eh    ::
         :: -> Gsolv                  -0.059228879600 Eh    ::
         :: repulsion energy           2.816593869948 Eh    ::

    * Orbital Energies and Occupations

         #    Occupation            Energy/Eh            Energy/eV
      -------------------------------------------------------------
         1        2.0000           -0.6748098             -18.3625
       ...           ...                  ...                  ...
       131        2.0000           -0.4092943             -11.1375
       132        2.0000           -0.4088796             -11.1262
       133        2.0000           -0.4061758             -11.0526
       134        2.0000           -0.4042260             -10.9996
       135        2.0000           -0.4041118             -10.9964
       136        2.0000           -0.3965471             -10.7906
       137        2.0000           -0.3959589             -10.7746
       138        2.0000           -0.3922670             -10.6741
       139        2.0000           -0.3776156             -10.2754
       140        2.0000           -0.3775274             -10.2730
       141        2.0000           -0.3707499             -10.0886
       142        2.0000           -0.3609160              -9.8210
       143        2.0000           -0.3602416              -9.8027 (HOMO)
       144                         -0.2482891              -6.7563 (LUMO)
       145                         -0.2452615              -6.6739
       146                         -0.2445678              -6.6550
       147                         -0.2348256              -6.3899
       148                         -0.2322521              -6.3199
       149                         -0.2318119              -6.3079
       150                         -0.2279529              -6.2029
       151                         -0.2210304              -6.0145
       152                         -0.2209490              -6.0123
       153                         -0.2186404              -5.9495
       154                         -0.2140698              -5.8251
       ...                                ...                  ...
       284                          0.7454850              20.2857
      -------------------------------------------------------------
                  HL-Gap            0.1119525 Eh            3.0464 eV

     #   Z          covCN         q      C6AA      α(0)
     1   6 C        3.761    -0.106    22.565     6.772
     2   6 C        3.902     0.025    20.092     6.372
     3   6 C        3.761    -0.104    22.539     6.768
     4   6 C        3.761    -0.104    22.538     6.768
     5   6 C        2.974     0.006    27.888     8.662
     6   6 C        2.928    -0.040    28.987     8.829
     7   6 C        2.913    -0.038    28.956     8.824
     8   6 C        3.035    -0.005    28.108     8.696
     9   6 C        3.056    -0.001    27.991     8.677
    10   6 C        2.919    -0.046    29.133     8.851
    11   6 C        3.947     0.009    20.366     6.413
    12   6 C        2.978     0.016    27.656     8.626
    13   6 C        2.923    -0.034    28.852     8.809
    14   6 C        2.921    -0.043    29.072     8.842
    15   6 C        2.912     0.061    26.635     8.463
    16   7 N        2.802    -0.047    22.150     6.990
    17   6 C        3.076     0.048    26.851     8.496
    18   6 C        2.909    -0.052    29.291     8.874
    19   6 C        2.924    -0.035    28.882     8.813
    20   6 C        2.919    -0.043    29.074     8.842
    21   6 C        2.912    -0.035    28.877     8.812
    22   6 C        3.067    -0.019    28.419     8.741
    23   6 C        3.067    -0.019    28.419     8.741
    24   6 C        2.912    -0.035    28.877     8.812
    25   6 C        2.919    -0.043    29.074     8.842
    26   6 C        2.924    -0.035    28.882     8.813
    27   6 C        2.909    -0.052    29.294     8.875
    28   6 C        3.076     0.048    26.851     8.496
    29   6 C        2.921    -0.044    29.090     8.845
    30   6 C        2.924    -0.033    28.829     8.805
    31   6 C        2.978     0.016    27.653     8.626
    32   6 C        2.924    -0.033    28.822     8.804
    33   6 C        2.921    -0.044    29.084     8.844
    34   6 C        2.912     0.061    26.631     8.462
    35   7 N        2.802    -0.047    22.149     6.990
    36   6 C        3.076     0.048    26.851     8.496
    37   6 C        2.909    -0.052    29.296     8.875
    38   6 C        2.924    -0.035    28.882     8.813
    39   6 C        2.919    -0.043    29.073     8.842
    40   6 C        2.912    -0.035    28.876     8.812
    41   6 C        3.067    -0.019    28.417     8.741
    42   6 C        3.067    -0.019    28.418     8.741
    43   6 C        2.912    -0.035    28.878     8.812
    44   6 C        2.919    -0.043    29.072     8.842
    45   6 C        2.924    -0.035    28.880     8.813
    46   6 C        2.909    -0.052    29.289     8.874
    47   6 C        3.076     0.048    26.849     8.495
    48   6 C        2.921    -0.043    29.073     8.842
    49   6 C        2.923    -0.034    28.853     8.809
    50   6 C        3.055    -0.001    27.991     8.677
    51   6 C        2.922    -0.041    29.028     8.835
    52   6 C        2.974     0.006    27.889     8.663
    53   6 C        3.903     0.025    20.091     6.371
    54   6 C        3.761    -0.104    22.529     6.766
    55   6 C        3.761    -0.104    22.526     6.766
    56   6 C        3.761    -0.107    22.586     6.775
    57   6 C        2.925    -0.044    29.097     8.846
    58   6 C        2.914    -0.039    28.962     8.825
    59   6 C        3.034    -0.005    28.110     8.696
    60   1 H        0.925     0.037     2.486     2.466
    61   1 H        0.925     0.035     2.519     2.482
    62   1 H        0.925     0.036     2.504     2.475
    63   1 H        0.925     0.033     2.548     2.496
    64   1 H        0.925     0.039     2.467     2.456
    65   1 H        0.925     0.037     2.495     2.470
    66   1 H        0.925     0.036     2.498     2.471
    67   1 H        0.925     0.039     2.466     2.456
    68   1 H        0.925     0.032     2.556     2.500
    69   1 H        0.926     0.030     2.584     2.514
    70   1 H        0.926     0.028     2.619     2.531
    71   1 H        0.926     0.038     2.479     2.462
    72   1 H        0.926     0.039     2.459     2.452
    73   1 H        0.926     0.041     2.441     2.443
    74   1 H        0.926     0.029     2.599     2.521
    75   1 H        0.926     0.029     2.594     2.519
    76   1 H        0.926     0.027     2.631     2.537
    77   1 H        0.926     0.029     2.600     2.522
    78   1 H        0.926     0.029     2.601     2.522
    79   1 H        0.926     0.027     2.632     2.537
    80   1 H        0.926     0.030     2.593     2.518
    81   1 H        0.926     0.030     2.591     2.517
    82   1 H        0.926     0.041     2.431     2.438
    83   1 H        0.926     0.040     2.453     2.449
    84   1 H        0.926     0.039     2.465     2.455
    85   1 H        0.926     0.041     2.432     2.439
    86   1 H        0.926     0.030     2.591     2.517
    87   1 H        0.926     0.029     2.596     2.520
    88   1 H        0.926     0.027     2.632     2.537
    89   1 H        0.926     0.029     2.599     2.521
    90   1 H        0.926     0.029     2.597     2.520
    91   1 H        0.926     0.027     2.631     2.536
    92   1 H        0.926     0.029     2.600     2.521
    93   1 H        0.926     0.029     2.598     2.520
    94   1 H        0.926     0.040     2.443     2.444
    95   1 H        0.926     0.039     2.462     2.454
    96   1 H        0.926     0.030     2.579     2.512
    97   1 H        0.925     0.036     2.502     2.474
    98   1 H        0.925     0.039     2.467     2.456
    99   1 H        0.925     0.032     2.561     2.503
   100   1 H        0.925     0.036     2.497     2.471
   101   1 H        0.925     0.033     2.550     2.497
   102   1 H        0.925     0.038     2.470     2.458
   103   1 H        0.925     0.036     2.503     2.474
   104   1 H        0.925     0.036     2.509     2.477
   105   1 H        0.925     0.037     2.483     2.464
   106   1 H        0.926     0.037     2.485     2.465
   107   1 H        0.926     0.028     2.618     2.530

molecular dipole:
                 x           y           z       tot (Debye)
 q only:       -0.049      -0.074       0.727
   full:       -0.051      -0.079       0.802       2.053

 projected vibrational frequencies (cm⁻¹)
eigval :       -0.00    -0.00     0.00     0.00     0.00     0.00
eigval :       10.38    11.96    13.21    15.90    17.66    22.53
eigval :       24.99    34.67    40.09    43.60    48.88    53.34
eigval :       57.62    74.67    77.21    80.72    94.73   104.21
eigval :      105.19   126.84   128.59   144.44   145.77   146.06
eigval :      148.33   166.17   168.24   175.84   186.17   189.35
eigval :      197.93   212.40   216.59   224.79   230.14   234.18
eigval :      237.30   263.70   271.03   271.44   273.61   277.23
eigval :      302.83   311.39   320.79   324.87   327.39   328.73
eigval :      347.32   348.21   355.24   367.55   368.64   380.66
eigval :      386.00   386.51   392.08   392.97   405.66   407.68
eigval :      414.67   422.80   427.93   434.00   434.92   441.93
eigval :      443.83   445.13   449.24   464.45   480.34   493.85
eigval :      511.65   518.64   520.10   529.14   534.46   535.96
eigval :      542.29   542.82   543.80   569.55   579.87   582.05
eigval :      592.77   595.66   609.22   609.28   617.03   624.40
eigval :      626.76   639.24   642.55   674.42   675.36   682.19
eigval :      687.74   688.52   707.02   708.82   711.02   721.59
eigval :      722.78   729.50   740.36   756.33   757.31   767.98
eigval :      768.09   779.58   779.61   803.18   815.62   820.45
eigval :      821.21   833.31   864.87   865.42   870.15   871.86
eigval :      872.98   876.93   878.56   880.88   887.16   890.16
eigval :      897.24   897.52   900.21   901.23   902.11   902.38
eigval :      903.20   912.98   919.09   919.20   919.59   920.00
eigval :      921.54   925.68   926.56   928.17   932.73   936.09
eigval :      958.44   959.21   959.44   959.87   961.20   962.51
eigval :      964.09   965.92   966.99  1010.89  1011.06  1014.78
eigval :     1019.93  1027.34  1032.97  1034.62  1035.36  1036.36
eigval :     1068.20  1068.82  1072.01  1072.04  1113.23  1117.00
eigval :     1117.27  1125.97  1137.80  1138.94  1140.74  1150.86
eigval :     1151.47  1174.76  1175.55  1176.69  1180.38  1181.61
eigval :     1182.96  1183.71  1187.69  1194.40  1202.20  1204.08
eigval :     1224.79  1224.88  1226.25  1229.65  1232.42  1234.84
eigval :     1235.28  1235.73  1237.73  1247.13  1251.53  1256.20
eigval :     1268.88  1270.80  1281.48  1288.64  1299.38  1300.18
eigval :     1302.25  1302.80  1303.91  1312.77  1319.15  1324.41
eigval :     1355.46  1355.60  1360.73  1361.03  1364.85  1366.07
eigval :     1370.32  1400.65  1401.33  1402.62  1403.36  1403.64
eigval :     1407.40  1415.71  1426.74  1427.03  1427.21  1427.50
eigval :     1429.94  1430.40  1433.32  1452.17  1474.45  1474.92
eigval :     1477.39  1486.92  1487.57  1488.19  1488.24  1489.95
eigval :     1490.28  1490.84  1491.95  1498.00  1499.89  1501.79
eigval :     1502.06  1511.77  1511.99  1517.19  1518.39  1564.53
eigval :     1568.20  1573.57  1574.78  1576.51  1587.14  1587.37
eigval :     1591.44  1596.83  1596.94  1597.02  1597.18  1603.65
eigval :     1609.33  1613.08  1613.26  3018.63  3019.12  3019.51
eigval :     3020.08  3022.09  3023.70  3023.83  3024.26  3026.28
eigval :     3028.03  3028.82  3030.42  3034.60  3035.68  3042.92
eigval :     3043.51  3046.51  3046.60  3069.86  3070.05  3070.35
eigval :     3070.81  3071.45  3074.01  3075.26  3075.67  3076.40
eigval :     3076.40  3077.23  3079.18  3082.37  3083.29  3083.54
eigval :     3083.80  3084.87  3084.93  3085.81  3089.51  3090.13
eigval :     3090.20  3090.71  3091.69  3092.60  3092.65  3094.68
eigval :     3095.31  3111.17  3121.13

   temp. (K)  partition function   enthalpy   heat capacity  entropy
                                   cal/mol     cal/K/mol   cal/K/mol   J/K/mol
 298.15  VIB  0.213E+24            29928.542    188.556    185.170
         ROT  0.160E+09              888.752      2.981     40.526
         INT  0.341E+32            30817.294    191.537    225.695
         TR   0.203E+29             1481.254      4.968     45.747
         TOT                       32298.5482   196.5047   271.4422  1135.7140

       T/K    H(0)-H(T)+PV         H(T)/Eh          T*S/Eh         G(T)/Eh
   ------------------------------------------------------------------------
    298.15    0.514710E-01    0.915750E+00    0.128971E+00    0.786779E+00
   ------------------------------------------------------------------------

         :::::::::::::::::::::::::::::::::::::::::::::::::::::
         ::                  THERMODYNAMIC                  ::
         :::::::::::::::::::::::::::::::::::::::::::::::::::::
         :: total free energy        -151.777110666197 Eh   ::
         ::.................................................::
         :: total energy             -152.563890114322 Eh   ::
         :: zero point energy           0.864279365413 Eh   ::
         :: G(RRHO) w/o ZPVE           -0.077499917288 Eh   ::
         :: G(RRHO) contrib.            0.786779448125 Eh   ::
         :::::::::::::::::::::::::::::::::::::::::::::::::::::

           -------------------------------------------------
          | TOTAL ENERGY             -152.563890114322 Eh   |
          | TOTAL ENTHALPY           -151.648139736145 Eh   |
          | TOTAL FREE ENERGY        -151.777110666197 Eh   |
          | GRADIENT NORM               0.000039389434 Eh/α |
          | HOMO-LUMO GAP               3.046383413381 eV   |
           -------------------------------------------------

 * finished run on 2025/09/10 at 04:24:57.638
