   * xtb version 6.7.1 (edcfbbe) compiled by 'albert@albert-system' on 2024-07-22

   ID    Z sym.   atoms
    1    6 C      1-15, 17-34, 36-59
    2    7 N      16, 35
    3    1 H      60-107

          program call               : xtb data2507/toluene/CPTBF/CPTBF_toluene_S0_finalOpt.xtbopt.xyz --gfn 2 --uhf 2 --gbsa toluene --ohess vtight --parallel 40 --molden --ceasefiles --namespace data2507/toluene/CPTBF/CPTBF_toluene_T1_preOpt
      * Solvation model:               GBSA
        Solvent                        toluene
        Solvent mass                       9.2140E+01 g/mol
          :  Hamiltonian                  GFN2-xTB          :
 * total energy  :  -152.4500025 Eh     change       -0.6740265E-08 Eh
 * total energy  :  -152.4516575 Eh     change       -0.1654950E-02 Eh
 * total energy  :  -152.4526596 Eh     change       -0.1002193E-02 Eh
 * total energy  :  -152.4538921 Eh     change       -0.1232467E-02 Eh
 * total energy  :  -152.4545729 Eh     change       -0.6808233E-03 Eh
 * total energy  :  -152.4555489 Eh     change       -0.9759955E-03 Eh
 * total energy  :  -152.4556157 Eh     change       -0.6675211E-04 Eh
 * total energy  :  -152.4556420 Eh     change       -0.2630448E-04 Eh
 * total energy  :  -152.4556501 Eh     change       -0.8066423E-05 Eh
 * total energy  :  -152.4556550 Eh     change       -0.4940754E-05 Eh
 * total energy  :  -152.4556594 Eh     change       -0.4298919E-06 Eh
 * total energy  :  -152.4556598 Eh     change       -0.3134323E-06 Eh
 * total energy  :  -152.4556600 Eh     change       -0.2413603E-06 Eh
 * total energy  :  -152.4556604 Eh     change       -0.4458338E-06 Eh
 * total energy  :  -152.4556610 Eh     change       -0.5496595E-06 Eh
 * total energy  :  -152.4556615 Eh     change       -0.5216943E-06 Eh
 * total energy  :  -152.4556619 Eh     change       -0.4139675E-06 Eh
 * total energy  :  -152.4556623 Eh     change       -0.3894182E-06 Eh
 * total energy  :  -152.4556623 Eh     change       -0.7280306E-08 Eh
   *** GEOMETRY OPTIMIZATION CONVERGED AFTER 22 ITERATIONS ***

 final structure:
================
107
 xtb: 6.7.1 (edcfbbe)
C            2.37902640204923       -4.82205677151170       -1.90027581052537
C            1.12305306229846       -4.79133792155935       -2.78959966872286
C           -0.06207891152144       -5.39997382983186       -2.01796751149829
C            1.39062538263284       -5.66573272693399       -4.01842714718856
C            0.79644772364668       -3.35714858927539       -3.14222378433227
C            0.69916369035519       -2.88991541193814       -4.47829915893502
C            0.38919304521891       -1.59925640943573       -4.78651630307904
C            0.14737776338695       -0.66152984251073       -3.73463160486489
C            0.25100577049624       -1.13874312298563       -2.36904329893419
C            0.56781209237367       -2.42926875220252       -2.09605249374178
C           -0.00934037455012        0.00300827241311       -1.40334966425973
C            1.24634282123619        0.17693885739618       -0.57594841252905
C            2.26777107662167        1.01992140399091       -1.00023517184921
C            3.45112002780455        1.11103352148133       -0.29385187752242
C            3.63933566786505        0.34910477928614        0.85539461171980
N            4.84224840511959        0.43337660345362        1.57412781199226
C            5.63795471328958       -0.63235787191049        1.94127192514531
C            5.48152700813358       -1.98514796344133        1.67179177085913
C            6.44917926870075       -2.85278220135724        2.14154545718804
C            7.55426539630330       -2.39227774380578        2.85503016495727
C            7.72630181036840       -1.04512872170678        3.10813964715155
C            6.76675488995975       -0.15324173214220        2.64695596510784
C            6.63164913830609        1.27596859396195        2.70845485778690
C            7.39691088422520        2.28663006022688        3.27562715553458
C            6.95514371334429        3.59123665331438        3.16895021150190
C            5.76159706999154        3.89310650278364        2.51582247678683
C            4.98351749674768        2.90535009595134        1.94238832820258
C            5.43196562089570        1.59449438914374        2.02936805776970
C            2.62362350474831       -0.50162744620082        1.28434336187233
C            1.44487732507494       -0.58618048255763        0.57138738032606
C           -1.25713590402469       -0.17506608986782       -0.56496718537872
C           -1.44484746850700        0.58207190075851        0.58813532771609
C           -2.61694830081329        0.49389416930422        1.31157161966138
C           -3.63674374587471       -0.35447825701958        0.88766985605235
N           -4.83306343610412       -0.44222726526823        1.61688204944548
C           -5.41992040174949       -1.60560685297736        2.07003360315939
C           -4.97235921787248       -2.91606866610119        1.97308406583049
C           -5.74673722349611       -3.90670154898884        2.54657144542307
C           -6.93578767991770       -3.60806756938715        3.20932452334030
C           -7.37647163201658       -2.30394697521858        3.32599877240862
C           -6.61483695434039       -1.29044037834179        2.75902004775293
C           -6.74995153793111        0.13911207951798        2.70610324841103
C           -7.70624636703268        1.02869675584497        3.17835605606455
C           -7.53573468234623        2.37711699721000        2.93106004855887
C           -6.43531557730073        2.84119803353663        2.21270110506076
C           -5.47101111392333        1.97589208152662        1.73188082219425
C           -5.62584402344885        0.62173149134240        1.99531941087950
C           -3.45925124968849       -1.11060540172591       -0.26711660448457
C           -2.28253008351552       -1.01585091709531       -0.98399999836989
C           -0.27879157247968        1.14942705202919       -2.36097067093857
C           -0.59439031691883        2.43826970488910       -2.07875549252106
C           -0.83339698411563        3.37106552852262       -3.11823228226723
C           -1.15914245031369        4.80294753575466       -2.75559798009646
C            0.03199810482666        5.40984264943499       -1.99189061457853
C           -1.43950488347815        5.68287983101806       -3.97759712280671
C           -2.40699309788627        4.82709756509456       -1.85471634656598
C           -0.74694584138333        2.91073194273864       -4.45742583855062
C           -0.43840790239356        1.62195367866905       -4.77481363047692
C           -0.18700451387986        0.67909323856723       -3.72978574107960
H            2.64699324079044       -5.85112037153585       -1.66950330262236
H            3.21539948279708       -4.35276447288114       -2.41494659753021
H            2.21626669015972       -4.29508815721200       -0.96432257194337
H           -0.26954745393072       -4.84303636154221       -1.10816354339734
H            0.15905499761665       -6.43026133002390       -1.74661642070119
H           -0.95789330190581       -5.38989776335278       -2.63607258944409
H            0.51682918389929       -5.71384891510647       -4.66447503488748
H            1.62531576048691       -6.67901697522523       -3.69780257849887
H            2.23669864518896       -5.28956441560709       -4.58947469076326
H            0.87894862954968       -3.57864992494404       -5.28838699345206
H            0.33036057451181       -1.27195908260391       -5.81386524626282
H            0.63755755468858       -2.75480225021439       -1.06913977429189
H            2.13550636385880        1.60704644133229       -1.89722009104090
H            4.24276683181887        1.75941851914555       -0.63950225112952
H            4.63760600464421       -2.34764034002730        1.10468926062688
H            6.34930676019221       -3.91082301617234        1.94733977751667
H            8.28855114379541       -3.10204601982800        3.20706645201791
H            8.59021047190072       -0.68876712161126        3.64919584215066
H            8.31532489600650        2.05308029175241        3.79333363597307
H            7.53680609409834        4.39153145434931        3.60260127824218
H            5.43563735716574        4.92165717106473        2.46008723234956
H            4.05331305198506        3.14602313296950        1.45024775170701
H            2.75959946565252       -1.08190621604351        2.18513376197326
H            0.65913355218288       -1.24033489867881        0.92026384936904
H           -0.65571693713219        1.23422469824239        0.93313549758520
H           -2.74452239053385        1.06950556163860        2.21657341155836
H           -4.04555015800661       -3.15427302671506        1.47339131145724
H           -5.42136984423219       -4.93500252773025        2.48323428797301
H           -7.51471021722498       -4.41052719261399        3.64264161957219
H           -8.29129153856752       -2.07297426870077        3.85117013816713
H           -8.56653338062230        0.66962612142292        3.72337274289189
H           -8.26749267353681        3.08512441766123        3.29179394814803
H           -6.33657046805914        3.90022701363616        2.02336037149904
H           -4.63091096254832        2.34121713175446        1.16094657543720
H           -4.25410439963036       -1.75722713726330       -0.60872459171341
H           -2.15848208806553       -1.59848143941357       -1.88506895285489
H           -0.65534163962895        2.75866222510552       -1.04966362552202
H            0.92210371273819        5.40445368719118       -2.61827223359243
H           -0.18839830988751        6.43837023334502       -1.71335120689285
H            0.24883432722436        4.84873111188320       -1.08684173721563
H           -0.57167856135569        5.73595369340230       -4.63122731554027
H           -2.28996142537765        5.30784191344190       -4.54285250365815
H           -1.67328170174158        6.69408201000463       -3.64981044226007
H           -3.24727120862436        4.35898442200084       -2.36407914408446
H           -2.23482373049672        4.29569061162304       -0.92297365853663
H           -2.67453597543389        5.85452833177018       -1.61630366196680
H           -0.93427994449639        3.60335860861878       -5.26246909573554
H           -0.38801126974171        1.29992403451587       -5.80427338142018

          :  Hamiltonian                  GFN2-xTB          :
         :: gradient norm              0.000058707105 Eh/a0 ::
         :: HOMO-LUMO gap              0.311165084648 eV    ::
         :: SCC energy              -155.252058931592 Eh    ::
         :: -> dispersion             -0.148759828986 Eh    ::
         :: -> Gsolv                  -0.059170128176 Eh    ::
         :: repulsion energy           2.796396601253 Eh    ::

    * Orbital Energies and Occupations

         #    Occupation            Energy/Eh            Energy/eV
      -------------------------------------------------------------
         1        2.0000           -0.6766930             -18.4138
       ...           ...                  ...                  ...
       132        2.0000           -0.4059127             -11.0454
       133        2.0000           -0.4049535             -11.0193
       134        2.0000           -0.4045846             -11.0093
       135        2.0000           -0.4040059             -10.9936
       136        2.0000           -0.3953885             -10.7591
       137        2.0000           -0.3948466             -10.7443
       138        2.0000           -0.3904420             -10.6245
       139        2.0000           -0.3792017             -10.3186
       140        2.0000           -0.3792004             -10.3186
       141        1.9870           -0.3626332              -9.8678
       142        1.9732           -0.3619287              -9.8486
       143        1.0398           -0.3554927              -9.6734
       144        0.9968           -0.2578607              -7.0167 (HOMO)
       145        0.0018           -0.2464261              -6.7056 (LUMO)
       146        0.0014           -0.2461805              -6.6989
       147                         -0.2340973              -6.3701
       148                         -0.2317121              -6.3052
       149                         -0.2307987              -6.2804
       150                         -0.2275039              -6.1907
       151                         -0.2226771              -6.0594
       152                         -0.2226753              -6.0593
       153                         -0.2107331              -5.7343
       154                         -0.2059749              -5.6049
       155                         -0.1908271              -5.1927
       ...                                ...                  ...
       284                          0.7441897              20.2504
      -------------------------------------------------------------
                  HL-Gap            0.0114346 Eh            0.3112 eV

     #   Z          covCN         q      C6AA      α(0)
     1   6 C        3.761    -0.102    22.501     6.762
     2   6 C        3.902     0.028    20.052     6.365
     3   6 C        3.761    -0.103    22.504     6.763
     4   6 C        3.761    -0.106    22.570     6.773
     5   6 C        2.971    -0.004    28.128     8.700
     6   6 C        2.912    -0.040    28.994     8.830
     7   6 C        2.903    -0.045    29.119     8.848
     8   6 C        3.022    -0.009    28.216     8.713
     9   6 C        3.048    -0.003    28.056     8.687
    10   6 C        2.909    -0.042    29.052     8.838
    11   6 C        3.938     0.009    20.359     6.412
    12   6 C        2.980     0.013    27.716     8.636
    13   6 C        2.923    -0.034    28.853     8.809
    14   6 C        2.921    -0.042    29.055     8.839
    15   6 C        2.913     0.059    26.673     8.469
    16   7 N        2.802    -0.042    22.045     6.973
    17   6 C        3.076     0.048    26.850     8.496
    18   6 C        2.909    -0.050    29.250     8.868
    19   6 C        2.923    -0.035    28.867     8.811
    20   6 C        2.920    -0.042    29.036     8.836
    21   6 C        2.912    -0.034    28.857     8.809
    22   6 C        3.067    -0.018    28.394     8.738
    23   6 C        3.067    -0.018    28.393     8.737
    24   6 C        2.912    -0.034    28.857     8.809
    25   6 C        2.920    -0.042    29.037     8.837
    26   6 C        2.923    -0.035    28.868     8.811
    27   6 C        2.909    -0.051    29.254     8.869
    28   6 C        3.076     0.048    26.851     8.496
    29   6 C        2.920    -0.043    29.080     8.843
    30   6 C        2.923    -0.033    28.827     8.805
    31   6 C        2.980     0.013    27.716     8.636
    32   6 C        2.923    -0.033    28.827     8.805
    33   6 C        2.920    -0.043    29.080     8.843
    34   6 C        2.913     0.059    26.673     8.469
    35   7 N        2.802    -0.042    22.045     6.973
    36   6 C        3.076     0.048    26.851     8.496
    37   6 C        2.909    -0.051    29.254     8.869
    38   6 C        2.923    -0.035    28.868     8.811
    39   6 C        2.920    -0.042    29.037     8.837
    40   6 C        2.912    -0.034    28.857     8.809
    41   6 C        3.067    -0.018    28.393     8.737
    42   6 C        3.067    -0.018    28.394     8.738
    43   6 C        2.912    -0.034    28.857     8.809
    44   6 C        2.920    -0.042    29.036     8.836
    45   6 C        2.923    -0.035    28.867     8.811
    46   6 C        2.909    -0.050    29.250     8.868
    47   6 C        3.076     0.048    26.850     8.496
    48   6 C        2.921    -0.042    29.055     8.839
    49   6 C        2.923    -0.034    28.853     8.809
    50   6 C        3.048    -0.003    28.056     8.687
    51   6 C        2.909    -0.042    29.052     8.838
    52   6 C        2.971    -0.004    28.128     8.699
    53   6 C        3.902     0.028    20.052     6.365
    54   6 C        3.761    -0.102    22.504     6.763
    55   6 C        3.761    -0.106    22.570     6.773
    56   6 C        3.761    -0.102    22.501     6.762
    57   6 C        2.912    -0.040    28.994     8.830
    58   6 C        2.903    -0.045    29.119     8.848
    59   6 C        3.022    -0.009    28.216     8.713
    60   1 H        0.925     0.039     2.459     2.452
    61   1 H        0.925     0.032     2.560     2.502
    62   1 H        0.925     0.036     2.502     2.473
    63   1 H        0.925     0.037     2.493     2.469
    64   1 H        0.925     0.039     2.457     2.451
    65   1 H        0.925     0.033     2.546     2.495
    66   1 H        0.925     0.036     2.507     2.476
    67   1 H        0.925     0.037     2.490     2.468
    68   1 H        0.925     0.035     2.512     2.479
    69   1 H        0.926     0.034     2.537     2.491
    70   1 H        0.926     0.022     2.698     2.568
    71   1 H        0.926     0.026     2.648     2.545
    72   1 H        0.926     0.039     2.466     2.456
    73   1 H        0.926     0.040     2.443     2.444
    74   1 H        0.926     0.031     2.565     2.505
    75   1 H        0.926     0.031     2.565     2.505
    76   1 H        0.926     0.029     2.602     2.522
    77   1 H        0.926     0.031     2.572     2.508
    78   1 H        0.926     0.031     2.571     2.508
    79   1 H        0.926     0.029     2.602     2.523
    80   1 H        0.926     0.031     2.570     2.507
    81   1 H        0.926     0.031     2.571     2.507
    82   1 H        0.926     0.041     2.433     2.439
    83   1 H        0.926     0.038     2.475     2.460
    84   1 H        0.926     0.038     2.475     2.460
    85   1 H        0.926     0.041     2.433     2.439
    86   1 H        0.926     0.031     2.571     2.507
    87   1 H        0.926     0.031     2.570     2.507
    88   1 H        0.926     0.029     2.602     2.523
    89   1 H        0.926     0.031     2.571     2.508
    90   1 H        0.926     0.031     2.572     2.508
    91   1 H        0.926     0.029     2.602     2.522
    92   1 H        0.926     0.031     2.565     2.505
    93   1 H        0.926     0.031     2.565     2.505
    94   1 H        0.926     0.040     2.443     2.444
    95   1 H        0.926     0.039     2.466     2.456
    96   1 H        0.926     0.026     2.648     2.545
    97   1 H        0.925     0.033     2.546     2.495
    98   1 H        0.925     0.039     2.457     2.451
    99   1 H        0.925     0.037     2.493     2.469
   100   1 H        0.925     0.036     2.507     2.476
   101   1 H        0.925     0.035     2.512     2.479
   102   1 H        0.925     0.037     2.490     2.468
   103   1 H        0.925     0.032     2.560     2.502
   104   1 H        0.925     0.036     2.502     2.473
   105   1 H        0.925     0.039     2.459     2.452
   106   1 H        0.926     0.034     2.537     2.491
   107   1 H        0.926     0.022     2.698     2.568

molecular dipole:
                 x           y           z       tot (Debye)
 q only:       -0.000      -0.000       0.017
   full:       -0.001      -0.000      -0.065       0.166

 projected vibrational frequencies (cm⁻¹)
eigval :       -0.00    -0.00    -0.00    -0.00     0.00     0.00
eigval :       12.31    13.25    13.88    16.46    18.96    23.38
eigval :       23.79    35.05    40.85    43.79    47.81    57.07
eigval :       58.02    70.39    78.25    79.56    95.49   106.34
eigval :      107.32   111.50   123.66   134.87   145.33   146.87
eigval :      148.59   164.34   170.82   176.84   186.19   187.57
eigval :      191.09   211.62   217.10   226.26   226.75   236.32
eigval :      237.47   259.80   270.46   271.53   272.78   275.33
eigval :      299.75   303.55   310.34   311.74   318.04   321.39
eigval :      327.21   342.62   346.22   354.34   354.96   366.37
eigval :      379.57   385.00   385.77   391.15   392.68   403.75
eigval :      407.06   416.66   418.74   424.63   427.71   431.33
eigval :      436.15   441.92   446.50   447.39   476.03   487.05
eigval :      503.42   516.70   518.30   518.38   528.49   533.99
eigval :      536.52   537.13   542.41   542.43   575.62   578.35
eigval :      583.13   589.48   596.61   600.87   608.26   612.12
eigval :      616.14   621.32   641.22   649.87   673.73   674.88
eigval :      675.79   676.31   690.90   703.71   706.84   708.83
eigval :      710.77   717.01   732.15   755.83   755.98   763.98
eigval :      766.80   767.48   772.15   778.09   778.32   783.01
eigval :      816.62   821.17   860.99   863.25   864.80   865.77
eigval :      869.48   870.99   871.39   873.40   878.43   879.92
eigval :      893.20   893.82   896.54   897.19   898.48   899.55
eigval :      900.41   901.16   901.60   918.15   918.72   919.15
eigval :      919.60   920.02   926.43   927.26   933.99   936.50
eigval :      939.41   944.52   952.33   952.94   953.17   959.29
eigval :      959.66   961.97   962.39   971.42  1010.98  1011.02
eigval :     1015.27  1023.73  1027.29  1027.38  1032.07  1032.36
eigval :     1067.85  1067.88  1070.53  1070.70  1085.17  1090.18
eigval :     1114.23  1115.59  1117.12  1129.72  1139.42  1139.96
eigval :     1148.64  1148.73  1171.73  1174.19  1175.39  1176.14
eigval :     1179.99  1180.20  1181.46  1182.75  1186.53  1197.30
eigval :     1197.60  1207.52  1207.93  1210.32  1218.95  1228.82
eigval :     1231.76  1234.09  1234.17  1239.95  1243.68  1251.39
eigval :     1263.66  1266.73  1267.33  1277.66  1296.36  1296.49
eigval :     1298.89  1299.28  1301.48  1302.93  1315.37  1318.33
eigval :     1321.67  1352.46  1353.11  1354.41  1357.21  1357.29
eigval :     1362.80  1363.84  1378.30  1396.28  1398.43  1398.59
eigval :     1400.87  1402.53  1405.47  1408.83  1423.47  1423.64
eigval :     1423.94  1424.30  1426.86  1427.54  1470.81  1470.96
eigval :     1482.31  1484.68  1485.32  1485.42  1485.67  1485.74
eigval :     1487.60  1487.83  1492.25  1492.52  1498.49  1499.09
eigval :     1501.59  1501.65  1510.34  1510.59  1516.89  1517.36
eigval :     1546.40  1548.58  1553.67  1558.86  1570.13  1570.38
eigval :     1580.88  1581.22  1585.36  1585.58  1592.22  1592.30
eigval :     1599.29  1604.64  1608.41  3017.85  3018.31  3018.80
eigval :     3019.04  3021.77  3022.89  3023.89  3024.00  3025.94
eigval :     3026.60  3029.80  3029.83  3034.90  3035.18  3042.57
eigval :     3042.64  3047.49  3047.63  3071.01  3071.30  3072.22
eigval :     3072.27  3073.41  3075.93  3076.18  3076.87  3077.00
eigval :     3077.74  3078.17  3078.29  3080.34  3080.47  3082.19
eigval :     3082.56  3085.21  3085.23  3086.33  3086.45  3088.56
eigval :     3089.22  3091.29  3091.42  3091.99  3092.47  3093.25
eigval :     3093.60  3104.33  3104.61

   temp. (K)  partition function   enthalpy   heat capacity  entropy
                                   cal/mol     cal/K/mol   cal/K/mol   J/K/mol
 298.15  VIB  0.233E+24            30299.852    190.779    187.110
         ROT  0.805E+08              888.752      2.981     39.157
         INT  0.187E+32            31188.604    193.760    226.266
         TR   0.203E+29             1481.254      4.968     45.747
         TOT                       32669.8581   198.7279   272.0130  1138.1025

       T/K    H(0)-H(T)+PV         H(T)/Eh          T*S/Eh         G(T)/Eh
   ------------------------------------------------------------------------
    298.15    0.520627E-01    0.911791E+00    0.129242E+00    0.782549E+00
   ------------------------------------------------------------------------

         :::::::::::::::::::::::::::::::::::::::::::::::::::::
         ::                  THERMODYNAMIC                  ::
         :::::::::::::::::::::::::::::::::::::::::::::::::::::
         :: total free energy        -151.673113491801 Eh   ::
         ::.................................................::
         :: total energy             -152.455662323478 Eh   ::
         :: zero point energy           0.859728263332 Eh   ::
         :: G(RRHO) w/o ZPVE           -0.077179431655 Eh   ::
         :: G(RRHO) contrib.            0.782548831677 Eh   ::
         :::::::::::::::::::::::::::::::::::::::::::::::::::::

           -------------------------------------------------
          | TOTAL ENERGY             -152.455662323478 Eh   |
          | TOTAL ENTHALPY           -151.543871327304 Eh   |
          | TOTAL FREE ENERGY        -151.673113491801 Eh   |
          | GRADIENT NORM               0.000058684561 Eh/α |
          | HOMO-LUMO GAP               0.311152182266 eV   |
           -------------------------------------------------

 * finished run on 2025/09/10 at 04:37:58.732
