   * xtb version 6.7.1 (edcfbbe) compiled by 'albert@albert-system' on 2024-07-22

   ID    Z sym.   atoms
    1    6 C      1-15, 17-34, 36-59
    2    7 N      16, 35
    3    1 H      60-107

          program call               : xtb data2507/toluene/CPTBF/CPTBF_toluene_S0_crest.xyz --gfn 2 --gbsa toluene --ohess vtight --parallel 40 --molden --ceasefiles --namespace data2507/toluene/CPTBF/CPTBF_toluene_S0_finalOpt
      * Solvation model:               GBSA
        Solvent                        toluene
        Solvent mass                       9.2140E+01 g/mol
          :  Hamiltonian                  GFN2-xTB          :
 * total energy  :  -152.5640356 Eh     change       -0.2817870E-08 Eh
 * total energy  :  -152.5640874 Eh     change       -0.5186430E-04 Eh
 * total energy  :  -152.5641236 Eh     change       -0.3619583E-04 Eh
 * total energy  :  -152.5641356 Eh     change       -0.1194519E-04 Eh
 * total energy  :  -152.5641652 Eh     change       -0.2961902E-04 Eh
 * total energy  :  -152.5641791 Eh     change       -0.1388849E-04 Eh
 * total energy  :  -152.5641987 Eh     change       -0.1966171E-04 Eh
 * total energy  :  -152.5642083 Eh     change       -0.9595153E-05 Eh
 * total energy  :  -152.5642226 Eh     change       -0.1431081E-04 Eh
 * total energy  :  -152.5642470 Eh     change       -0.2439061E-04 Eh
 * total energy  :  -152.5643323 Eh     change       -0.1520204E-06 Eh
 * total energy  :  -152.5643325 Eh     change       -0.1407562E-06 Eh
 * total energy  :  -152.5643324 Eh     change        0.1093781E-07 Eh
 * total energy  :  -152.5643326 Eh     change       -0.1125447E-06 Eh
 * total energy  :  -152.5643327 Eh     change       -0.1019490E-06 Eh
 * total energy  :  -152.5643186 Eh     change        0.1410162E-04 Eh
 * total energy  :  -152.5643327 Eh     change       -0.1415930E-04 Eh
 * total energy  :  -152.5643328 Eh     change       -0.1145721E-06 Eh
 * total energy  :  -152.5643329 Eh     change       -0.5922388E-07 Eh
   *** GEOMETRY OPTIMIZATION CONVERGED AFTER 45 ITERATIONS ***

 final structure:
================
107
 xtb: 6.7.1 (edcfbbe)
C            2.37366307116828       -4.81989036222601       -1.90844925000593
C            1.11408796836108       -4.80134022401929       -2.78806755089660
C           -0.06681466230857       -5.41159968995148       -2.01756832445091
C            1.38204142464917       -5.67130715808290       -4.01982376876606
C            0.77746474082511       -3.36061818779865       -3.14380981669679
C            0.67879592903478       -2.90843042098720       -4.45624912190685
C            0.36673277725959       -1.59115624056236       -4.75753107669230
C            0.14873700190897       -0.69754904938584       -3.72481247888234
C            0.24254287452547       -1.13999883936769       -2.39840646711916
C            0.55329312220937       -2.44775845181037       -2.11010398940014
C           -0.00900037302788        0.00314494836454       -1.43002906928029
C            1.24435740130415        0.17916207082434       -0.59852142566111
C            2.26227126734334        1.03182926609363       -1.00778633322266
C            3.44039308087746        1.12397203962734       -0.29105739708767
C            3.62336449003077        0.35850291265868        0.85562313119247
N            4.82296846177413        0.44118767867732        1.58127676349103
C            5.62105651369628       -0.62547247971814        1.94154846019000
C            5.46700690004623       -1.97704052673247        1.66536737582857
C            6.43656921895270       -2.84530193605462        2.12918526557984
C            7.54202282255975       -2.38697348276960        2.84379125907456
C            7.71155609578735       -1.04152204412218        3.10378195430724
C            6.74949796505040       -0.14848119940268        2.64864436433564
C            6.61249077761163        1.27956756476281        2.71830053296761
C            7.37812330385483        2.28824899199117        3.28962470290660
C            6.93622738047875        3.59262223361221        3.18968257921983
C            5.74178660411607        3.89680756943071        2.53891868663177
C            4.96352741302097        2.91165620920467        1.96188598997804
C            5.41203519797796        1.60052399480812        2.04227067732179
C            2.60772607031594       -0.49596988366998        1.27320192898997
C            1.43610597154285       -0.58596926403438        0.54747852240729
C           -1.25447692910201       -0.17712122739792       -0.58772052003948
C           -1.43547608810994        0.58194764293909        0.56404627434285
C           -2.60046447783250        0.48835127531231        1.29995640811949
C           -3.62004518951857       -0.36377132768187        0.88724180790268
N           -4.81306582623131       -0.44997380980242        1.62329639605956
C           -5.39883128884772       -1.61153442013833        2.08281814217139
C           -4.95068566008507       -2.92219051562865        1.99315368532814
C           -5.72473766355500       -3.91015272783797        2.57105793396748
C           -6.91480330739041       -3.60924615872787        3.23132349927009
C           -7.35627298668089       -2.30544040413759        3.34028398933538
C           -6.59467939834551       -1.29395447951649        2.76853971716453
C           -6.73229509642047        0.13439048483677        2.70660164837691
C           -7.69142525581127        1.02511537508065        3.17233578159769
C           -7.52388043011494        2.37179012536682        2.91741961453594
C           -6.42319165648453        2.83366493706985        2.19776055111063
C           -5.45661976468397        1.96775017147373        1.72342388572166
C           -5.60864354579071        0.61487785671235        1.99426595061530
C           -3.44768764775600       -1.12342688238994       -0.26494162083773
C           -2.27622262879422       -1.02756943309119       -0.99201288959232
C           -0.26927480555534        1.15119472251185       -2.39024754033232
C           -0.58003341868193        2.45684237661100       -2.09252490452000
C           -0.81420974064810        3.37475060733086       -3.11954202278085
C           -1.15232388000502        4.81252803564170       -2.75345935808360
C            0.03268666325582        5.42230286034108       -1.98893293734387
C           -1.43266768612360        5.68819681232185       -3.97839185519587
C           -2.40510613552473        4.82242623948140       -1.86402354727070
C           -0.72404124483311        2.93000109323562       -4.43511326690394
C           -0.41190344707541        1.61494995097798       -4.74588877593149
C           -0.18512406606031        0.71601952629371       -3.71970404353382
H            2.65614127692128       -5.84592321529909       -1.68139151571161
H            3.20206238417056       -4.33993133933221       -2.42638537969697
H            2.21127991176627       -4.29777850237143       -0.96959087600572
H           -0.27124014572846       -4.86001084462058       -1.10371305256729
H            0.15298566103770       -6.44357669666221       -1.75161236026796
H           -0.96519939749547       -5.39820605024092       -2.63206407035478
H            0.50545147888474       -5.72499275957450       -4.66158201594651
H            1.62562934695198       -6.68330740473489       -3.70191804803832
H            2.22275649716708       -5.28813061102068       -4.59403250485857
H            0.84694264611074       -3.58653761314004       -5.27699833099293
H            0.29855880592843       -1.27297523752351       -5.78773100468240
H            0.61885494759690       -2.76155144633738       -1.07984959692552
H            2.13818704376159        1.62508748372762       -1.90147263001781
H            4.23109046964984        1.77816393341652       -0.62765731336009
H            4.62305310201260       -2.33859312615832        1.09756248719532
H            6.33821404704638       -3.90260801650850        1.92962101976278
H            8.27796864254276       -3.09761150899925        3.19083223075597
H            8.57548146826553       -0.68606469564706        3.64565047047282
H            8.29736336838396        2.05217849449659        3.80498093365906
H            7.51797384638077        4.39139569198660        3.62623684438953
H            5.41574046468252        4.92570355976257        2.48793523626399
H            4.03294977917766        3.15486979587181        1.47146618942586
H            2.73868514882698       -1.08120521646964        2.17146394659002
H            0.65311529738921       -1.24818195885941        0.88701949437232
H           -0.64915954870238        1.24210011887455        0.89993222993352
H           -2.72317061813947        1.06892945087607        2.20239333767767
H           -4.02342405135661       -3.16288813007785        1.49526918419630
H           -5.39877996150926       -4.93871912724313        2.51320508410043
H           -7.49341567392206       -4.41014022923365        3.66815618103380
H           -8.27199689938491       -2.07195164155651        3.86302508515255
H           -8.55166893660755        0.66696473324679        3.71826320951299
H           -8.25758782279809        3.08065359173394        3.27272202830600
H           -6.32632877960524        3.89191190498378        2.00249373562565
H           -4.61653676100485        2.33208280775329        1.15167923894899
H           -4.24147118821708       -1.77592949184924       -0.59756959334815
H           -2.16027056949205       -1.61625236512554       -1.88979581565863
H           -0.63830985930340        2.76499448334239       -1.06012982886119
H            0.92630859962039        5.41492059052313       -2.61046398115409
H           -0.18815080948234        6.45217027189551       -1.71574444165055
H            0.24590367435082        4.86645971651417       -1.07966872718069
H           -0.56121526053826        5.74839247273700       -4.62650319220607
H           -2.27643604476113        5.30519008887128       -4.54822507826874
H           -1.67730385555025        6.69760276628106       -3.65313375593709
H           -3.23596943425181        4.34257543634584       -2.37809180093004
H           -2.23379163166780        4.29585366388489       -0.92926647119661
H           -2.68905483838019        5.84632241908979       -1.62929430486263
H           -0.89950028289190        3.61219906420277       -5.25093246597284
H           -0.35085570297543        1.30249489142870       -5.77828477290861

          :  Hamiltonian                  GFN2-xTB          :
         :: gradient norm              0.000045993785 Eh/a0 ::
         :: HOMO-LUMO gap              3.047025822601 eV    ::
         :: SCC energy              -155.381319994651 Eh    ::
         :: -> dispersion             -0.148959467962 Eh    ::
         :: -> Gsolv                  -0.059214804977 Eh    ::
         :: repulsion energy           2.816987105459 Eh    ::

    * Orbital Energies and Occupations

         #    Occupation            Energy/Eh            Energy/eV
      -------------------------------------------------------------
         1        2.0000           -0.6746148             -18.3572
       ...           ...                  ...                  ...
       131        2.0000           -0.4095606             -11.1447
       132        2.0000           -0.4087093             -11.1215
       133        2.0000           -0.4060005             -11.0478
       134        2.0000           -0.4040345             -10.9943
       135        2.0000           -0.4039296             -10.9915
       136        2.0000           -0.3964413             -10.7877
       137        2.0000           -0.3962703             -10.7831
       138        2.0000           -0.3920776             -10.6690
       139        2.0000           -0.3773926             -10.2694
       140        2.0000           -0.3773900             -10.2693
       141        2.0000           -0.3711474             -10.0994
       142        2.0000           -0.3605420              -9.8108
       143        2.0000           -0.3603811              -9.8065 (HOMO)
       144                         -0.2484050              -6.7594 (LUMO)
       145                         -0.2450399              -6.6679
       146                         -0.2444629              -6.6522
       147                         -0.2348266              -6.3900
       148                         -0.2325694              -6.3285
       149                         -0.2318151              -6.3080
       150                         -0.2282466              -6.2109
       151                         -0.2207936              -6.0081
       152                         -0.2207924              -6.0081
       153                         -0.2184159              -5.9434
       154                         -0.2139697              -5.8224
       ...                                ...                  ...
       284                          0.7457699              20.2934
      -------------------------------------------------------------
                  HL-Gap            0.1119761 Eh            3.0470 eV

     #   Z          covCN         q      C6AA      α(0)
     1   6 C        3.761    -0.103    22.518     6.765
     2   6 C        3.903     0.025    20.092     6.372
     3   6 C        3.761    -0.104    22.524     6.765
     4   6 C        3.761    -0.107    22.586     6.775
     5   6 C        2.974     0.006    27.889     8.662
     6   6 C        2.925    -0.044    29.096     8.846
     7   6 C        2.914    -0.039    28.959     8.824
     8   6 C        3.034    -0.005    28.107     8.696
     9   6 C        3.056    -0.001    27.989     8.676
    10   6 C        2.922    -0.041    29.028     8.835
    11   6 C        3.946     0.009    20.362     6.412
    12   6 C        2.979     0.016    27.656     8.626
    13   6 C        2.923    -0.034    28.853     8.809
    14   6 C        2.921    -0.043    29.065     8.841
    15   6 C        2.912     0.061    26.630     8.462
    16   7 N        2.802    -0.047    22.155     6.991
    17   6 C        3.077     0.048    26.850     8.495
    18   6 C        2.909    -0.052    29.291     8.875
    19   6 C        2.924    -0.035    28.881     8.813
    20   6 C        2.920    -0.043    29.075     8.842
    21   6 C        2.912    -0.035    28.879     8.812
    22   6 C        3.067    -0.019    28.421     8.742
    23   6 C        3.067    -0.019    28.421     8.742
    24   6 C        2.912    -0.035    28.878     8.812
    25   6 C        2.919    -0.043    29.076     8.842
    26   6 C        2.924    -0.035    28.883     8.813
    27   6 C        2.909    -0.052    29.295     8.875
    28   6 C        3.077     0.048    26.850     8.496
    29   6 C        2.921    -0.044    29.081     8.843
    30   6 C        2.924    -0.033    28.826     8.805
    31   6 C        2.979     0.016    27.656     8.626
    32   6 C        2.924    -0.033    28.826     8.805
    33   6 C        2.921    -0.044    29.081     8.843
    34   6 C        2.912     0.061    26.630     8.462
    35   7 N        2.802    -0.047    22.156     6.991
    36   6 C        3.077     0.048    26.850     8.496
    37   6 C        2.909    -0.052    29.294     8.875
    38   6 C        2.924    -0.035    28.883     8.813
    39   6 C        2.919    -0.043    29.076     8.842
    40   6 C        2.912    -0.035    28.878     8.812
    41   6 C        3.067    -0.019    28.421     8.742
    42   6 C        3.067    -0.019    28.421     8.742
    43   6 C        2.912    -0.035    28.879     8.812
    44   6 C        2.920    -0.043    29.075     8.842
    45   6 C        2.924    -0.035    28.881     8.813
    46   6 C        2.909    -0.052    29.291     8.875
    47   6 C        3.077     0.048    26.849     8.495
    48   6 C        2.921    -0.043    29.064     8.841
    49   6 C        2.923    -0.034    28.853     8.809
    50   6 C        3.056    -0.001    27.989     8.676
    51   6 C        2.922    -0.041    29.028     8.835
    52   6 C        2.974     0.006    27.889     8.662
    53   6 C        3.903     0.025    20.092     6.372
    54   6 C        3.761    -0.104    22.524     6.765
    55   6 C        3.761    -0.107    22.586     6.775
    56   6 C        3.761    -0.103    22.517     6.764
    57   6 C        2.925    -0.044    29.095     8.846
    58   6 C        2.914    -0.039    28.959     8.824
    59   6 C        3.034    -0.005    28.107     8.696
    60   1 H        0.925     0.039     2.468     2.457
    61   1 H        0.925     0.032     2.564     2.504
    62   1 H        0.925     0.036     2.508     2.477
    63   1 H        0.925     0.036     2.500     2.473
    64   1 H        0.925     0.039     2.466     2.456
    65   1 H        0.925     0.033     2.549     2.497
    66   1 H        0.925     0.036     2.503     2.474
    67   1 H        0.925     0.037     2.484     2.465
    68   1 H        0.925     0.036     2.508     2.476
    69   1 H        0.926     0.037     2.484     2.465
    70   1 H        0.926     0.028     2.615     2.529
    71   1 H        0.926     0.030     2.582     2.513
    72   1 H        0.926     0.039     2.456     2.451
    73   1 H        0.926     0.041     2.440     2.443
    74   1 H        0.926     0.030     2.590     2.517
    75   1 H        0.926     0.030     2.589     2.516
    76   1 H        0.926     0.027     2.632     2.537
    77   1 H        0.926     0.029     2.602     2.523
    78   1 H        0.926     0.029     2.602     2.522
    79   1 H        0.926     0.027     2.633     2.538
    80   1 H        0.926     0.029     2.595     2.519
    81   1 H        0.926     0.029     2.597     2.520
    82   1 H        0.926     0.041     2.433     2.439
    83   1 H        0.926     0.039     2.466     2.456
    84   1 H        0.926     0.039     2.466     2.456
    85   1 H        0.926     0.041     2.433     2.439
    86   1 H        0.926     0.029     2.597     2.520
    87   1 H        0.926     0.029     2.595     2.519
    88   1 H        0.926     0.027     2.633     2.538
    89   1 H        0.926     0.029     2.602     2.522
    90   1 H        0.926     0.029     2.602     2.523
    91   1 H        0.926     0.027     2.632     2.537
    92   1 H        0.926     0.030     2.589     2.516
    93   1 H        0.926     0.030     2.590     2.517
    94   1 H        0.926     0.041     2.440     2.443
    95   1 H        0.926     0.039     2.456     2.451
    96   1 H        0.926     0.030     2.582     2.513
    97   1 H        0.925     0.033     2.549     2.497
    98   1 H        0.925     0.039     2.466     2.456
    99   1 H        0.925     0.036     2.500     2.473
   100   1 H        0.925     0.036     2.503     2.474
   101   1 H        0.925     0.036     2.508     2.476
   102   1 H        0.925     0.037     2.484     2.465
   103   1 H        0.925     0.032     2.564     2.504
   104   1 H        0.925     0.036     2.508     2.477
   105   1 H        0.925     0.039     2.468     2.457
   106   1 H        0.926     0.037     2.484     2.465
   107   1 H        0.926     0.028     2.615     2.529

molecular dipole:
                 x           y           z       tot (Debye)
 q only:       -0.003       0.002      -0.728
   full:       -0.004       0.002      -0.788       2.002

 projected vibrational frequencies (cm⁻¹)
eigval :       -0.00    -0.00     0.00     0.00     0.00     0.00
eigval :       13.09    13.76    16.05    17.18    19.65    25.02
eigval :       29.08    34.92    42.02    43.59    49.61    57.02
eigval :       58.32    77.02    78.53    81.81    93.84   107.93
eigval :      108.00   125.01   132.21   145.44   145.82   147.87
eigval :      150.01   166.97   174.81   179.50   189.49   193.89
eigval :      194.05   215.80   219.29   226.43   232.12   236.94
eigval :      238.55   272.24   272.29   273.11   275.75   280.61
eigval :      302.63   308.70   310.20   318.14   322.83   325.29
eigval :      346.91   351.20   357.38   360.13   363.32   381.98
eigval :      384.21   387.92   392.51   394.27   406.51   408.50
eigval :      419.21   423.35   428.83   434.03   434.63   442.72
eigval :      444.47   448.73   450.52   462.84   479.13   493.65
eigval :      511.58   518.75   520.07   530.45   534.75   535.69
eigval :      542.98   543.28   543.55   570.04   579.98   582.30
eigval :      591.67   597.28   607.41   614.66   617.81   620.49
eigval :      627.31   639.93   642.83   675.82   676.33   682.54
eigval :      688.65   689.51   707.38   710.16   712.13   721.64
eigval :      723.03   731.08   740.57   756.36   757.35   766.98
eigval :      767.41   778.65   779.14   804.25   817.61   819.82
eigval :      823.39   831.44   865.31   865.95   870.29   871.71
eigval :      872.83   881.17   881.94   883.87   886.13   889.64
eigval :      897.14   897.86   898.54   899.11   901.37   901.63
eigval :      902.24   911.68   914.43   919.03   919.25   919.99
eigval :      920.29   927.61   928.03   928.49   936.28   937.72
eigval :      958.58   958.66   958.85   960.97   961.36   964.06
eigval :      964.14   965.36   965.56  1011.09  1011.24  1014.16
eigval :     1020.61  1028.09  1034.48  1034.70  1034.99  1036.37
eigval :     1068.34  1068.49  1071.59  1071.66  1113.56  1116.87
eigval :     1117.03  1124.88  1137.78  1140.25  1141.82  1150.43
eigval :     1150.50  1174.84  1174.93  1178.93  1180.66  1180.70
eigval :     1183.43  1183.56  1188.98  1195.63  1201.87  1204.11
eigval :     1224.07  1224.25  1225.87  1232.09  1233.37  1233.65
eigval :     1235.31  1235.44  1236.12  1246.90  1250.91  1256.17
eigval :     1269.31  1269.85  1284.63  1288.17  1298.24  1299.65
eigval :     1299.70  1302.56  1303.02  1312.88  1319.00  1328.07
eigval :     1355.56  1355.64  1360.87  1360.94  1365.02  1366.32
eigval :     1374.65  1400.58  1401.21  1403.79  1404.02  1404.07
eigval :     1407.73  1416.05  1427.15  1427.47  1427.56  1427.84
eigval :     1430.36  1430.74  1433.01  1452.09  1473.31  1474.68
eigval :     1474.82  1487.16  1487.17  1489.52  1489.86  1490.41
eigval :     1490.80  1492.71  1493.29  1498.93  1499.56  1503.45
eigval :     1503.88  1510.49  1511.02  1516.66  1517.11  1564.77
eigval :     1568.35  1573.45  1574.66  1578.30  1587.43  1587.51
eigval :     1594.10  1597.16  1597.21  1597.27  1597.58  1605.42
eigval :     1610.65  1613.28  1613.47  3018.41  3018.48  3019.11
eigval :     3019.32  3022.22  3022.45  3024.38  3024.47  3026.50
eigval :     3026.71  3030.18  3030.31  3035.22  3035.32  3042.32
eigval :     3042.43  3047.32  3047.37  3069.13  3069.78  3070.52
eigval :     3070.58  3072.89  3075.01  3075.29  3075.37  3076.17
eigval :     3076.27  3077.33  3078.90  3083.21  3083.31  3084.01
eigval :     3084.02  3084.75  3084.78  3089.56  3090.06  3090.27
eigval :     3090.39  3090.98  3091.49  3092.93  3092.95  3094.82
eigval :     3095.35  3111.81  3112.38

   temp. (K)  partition function   enthalpy   heat capacity  entropy
                                   cal/mol     cal/K/mol   cal/K/mol   J/K/mol
 298.15  VIB  0.577E+23            29845.930    188.728    183.744
         ROT  0.803E+08              888.752      2.981     39.150
         INT  0.463E+31            30734.682    191.709    222.895
         TR   0.203E+29             1481.254      4.968     45.747
         TOT                       32215.9359   196.6774   268.6412  1123.9948

       T/K    H(0)-H(T)+PV         H(T)/Eh          T*S/Eh         G(T)/Eh
   ------------------------------------------------------------------------
    298.15    0.513394E-01    0.915861E+00    0.127640E+00    0.788221E+00
   ------------------------------------------------------------------------

         :::::::::::::::::::::::::::::::::::::::::::::::::::::
         ::                  THERMODYNAMIC                  ::
         :::::::::::::::::::::::::::::::::::::::::::::::::::::
         :: total free energy        -151.776111728517 Eh   ::
         ::.................................................::
         :: total energy             -152.564332883678 Eh   ::
         :: zero point energy           0.864521898100 Eh   ::
         :: G(RRHO) w/o ZPVE           -0.076300742939 Eh   ::
         :: G(RRHO) contrib.            0.788221155160 Eh   ::
         :::::::::::::::::::::::::::::::::::::::::::::::::::::

           -------------------------------------------------
          | TOTAL ENERGY             -152.564332883678 Eh   |
          | TOTAL ENTHALPY           -151.648471623754 Eh   |
          | TOTAL FREE ENERGY        -151.776111728517 Eh   |
          | GRADIENT NORM               0.000045993779 Eh/α |
          | HOMO-LUMO GAP               3.047025261678 eV   |
           -------------------------------------------------

 * finished run on 2025/09/10 at 04:37:47.549
