   * xtb version 6.7.1 (edcfbbe) compiled by 'albert@albert-system' on 2024-07-22

   ID    Z sym.   atoms
    1    6 C      1-15, 17-34, 36-59
    2    7 N      16, 35
    3    1 H      60-107

          program call               : xtb data2507/toluene/CPTBF/CPTBF_toluene_T1_crest.xyz --gfn 2 --uhf 2 --gbsa toluene --ohess vtight --parallel 40 --molden --ceasefiles --namespace data2507/toluene/CPTBF/CPTBF_toluene_T1_finalOpt
      * Solvation model:               GBSA
        Solvent                        toluene
        Solvent mass                       9.2140E+01 g/mol
          :  Hamiltonian                  GFN2-xTB          :
 * total energy  :  -152.4554823 Eh     change       -0.1795172E-08 Eh
 * total energy  :  -152.4555284 Eh     change       -0.4606613E-04 Eh
 * total energy  :  -152.4555586 Eh     change       -0.3016843E-04 Eh
 * total energy  :  -152.4555711 Eh     change       -0.1253045E-04 Eh
 * total energy  :  -152.4555859 Eh     change       -0.1480506E-04 Eh
 * total energy  :  -152.4555933 Eh     change       -0.7383149E-05 Eh
 * total energy  :  -152.4555997 Eh     change       -0.6378702E-05 Eh
 * total energy  :  -152.4556040 Eh     change       -0.4368772E-05 Eh
 * total energy  :  -152.4556088 Eh     change       -0.4784405E-05 Eh
 * total energy  :  -152.4556152 Eh     change       -0.6374261E-05 Eh
 * total energy  :  -152.4556608 Eh     change       -0.4879441E-06 Eh
 * total energy  :  -152.4556614 Eh     change       -0.5978526E-06 Eh
 * total energy  :  -152.4556624 Eh     change       -0.1001585E-05 Eh
 * total energy  :  -152.4556633 Eh     change       -0.8225255E-06 Eh
 * total energy  :  -152.4556638 Eh     change       -0.5297807E-06 Eh
 * total energy  :  -152.4556644 Eh     change       -0.5749174E-06 Eh
 * total energy  :  -152.4556651 Eh     change       -0.7343301E-06 Eh
 * total energy  :  -152.4556657 Eh     change       -0.5797306E-06 Eh
 * total energy  :  -152.4556658 Eh     change       -0.7833376E-07 Eh
   *** GEOMETRY OPTIMIZATION CONVERGED AFTER 32 ITERATIONS ***

 final structure:
================
107
 xtb: 6.7.1 (edcfbbe)
C            2.38528189204870       -4.92918944003558       -1.57910510807997
C            1.13071427990998       -4.95563862034985       -2.47064538970385
C           -0.05477955432750       -5.51802221658696       -1.66532735070355
C            1.40235863939888       -5.90306115932066       -3.64320113447826
C            0.80205489828458       -3.54637561955672       -2.91093705250820
C            0.70345243358173       -3.16319543250783       -4.27339580908923
C            0.39432843648742       -1.89397411177541       -4.66118467318372
C            0.15510127852124       -0.89239235332754       -3.66943774876594
C            0.25742103009751       -1.28425424314711       -2.27697060768506
C            0.57351677727536       -2.55548977037842       -1.92420123132670
C           -0.00108882978744       -0.08418703308620       -1.38401913613849
C            1.25439078150382        0.13559564536063       -0.56804861949814
C            2.28437923061225        0.93478274472839       -1.05249319220281
C            3.46977905232289        1.06324462109901       -0.35570446838935
C            3.65054932659441        0.38625004496101        0.84670476276857
N            4.85436902270334        0.51010542462462        1.55766577837557
C            5.63287815253305       -0.53561734440545        2.00987762875857
C            5.45821285575254       -1.90275306650222        1.84370060133918
C            6.41323483380449       -2.74537092547748        2.38011567841064
C            7.52295407114464       -2.24739742347084        3.06039663072347
C            7.71392273888265       -0.88734068407783        3.20951972392771
C            6.76810383811679       -0.02004765728489        2.67835925045139
C            6.65752313707454        1.41151251751196        2.62289112334767
C            7.44218444760638        2.45115932360730        3.10467972609539
C            7.02728470960877        3.75046073910416        2.88545615539633
C            5.83947456035120        4.01916866614529        2.20792846476825
C            5.04145538971678        3.00197028309456        1.71963435869254
C            5.46401671681503        1.69444561492001        1.91754698399387
C            2.62590880143769       -0.41991367282421        1.33666931113543
C            1.44640712731647       -0.54536515681985        0.63090173214390
C           -1.25366571285432       -0.20562987786665       -0.54306311747652
C           -1.44053995715261        0.60889032159280        0.57034154268746
C           -2.61855788305552        0.56858110780507        1.28857433063878
C           -3.64664472913749       -0.28540944510564        0.89688154791934
N           -4.85037066243526       -0.32187820862763        1.61777796944625
C           -5.46567833050085       -1.45579855438673        2.10705051762123
C           -5.04353182005049       -2.77767765030651        2.06578802888384
C           -5.84464356885488       -3.73022455740030        2.66643665464500
C           -7.03521420768672       -3.38332148207142        3.30234236398708
C           -7.45067430194119       -2.06729252230936        3.36423509108342
C           -6.66216355760282       -1.09152206138854        2.76852029485423
C           -6.76821593162885        0.33732788641761        2.66025395901881
C           -7.71220906531562        1.26210919841423        3.08744276544924
C           -7.51191687268805        2.59694350250330        2.79328435840860
C           -6.39440581873219        3.01242181396024        2.07161765239846
C           -5.44240743372000        2.11117657318435        1.63430104328911
C           -5.62671117142163        0.77093203991528        1.94569679031057
C           -3.47050804397772       -1.09728405849941       -0.21980973801366
C           -2.28670057307393       -1.05297573811609       -0.92940328533598
C           -0.26545969578318        1.00176859099913       -2.41113814411901
C           -0.57950252484990        2.30601982977002       -2.20928323667297
C           -0.81695785232325        3.17272363340127       -3.30476699114828
C           -1.14550261788209        4.62385689673988       -3.03223423047292
C            0.03906361070101        5.27802625705271       -2.29804782069713
C           -1.41766193741553        5.42778399556267       -4.30735308303832
C           -2.40003318489417        4.70046458749159       -2.14357922934439
C           -0.73020522680643        2.63009973146858       -4.61280298318180
C           -0.42386011977658        1.32361064738216       -4.84963636994221
C           -0.17479305871193        0.44709464059979       -3.74797943122639
H            2.65624477865959       -5.94182939644573       -1.28722698012129
H            3.22097978467956       -4.48843079195224       -2.11950639405511
H            2.21913628752267       -4.34820355131646       -0.67628810552046
H            0.17098220520638       -6.52610037902330       -1.32338388862943
H           -0.94729716740493       -5.55538917182173       -2.28716636167444
H           -0.27048407650325       -4.90150089060553       -0.79678187852934
H            0.52963574720241       -5.99336489323169       -4.28616962066079
H            1.63934627828960       -6.89402749055831       -3.26058335442851
H            2.24819969813928       -5.56019573225212       -4.23520768084968
H            0.88146565229580       -3.90128665617101       -5.03916391673370
H            0.33474808324364       -1.63096169446083       -5.70679534094489
H            0.64334618687861       -2.81618152508813       -0.87889520961307
H            2.15711324014385        1.45647315523405       -1.98976065306694
H            4.26892163052091        1.67392894816352       -0.74900669572819
H            4.61094556832918       -2.29595488096225        1.30273546604560
H            6.29949721945108       -3.81361299533252        2.26550178033950
H            8.24641340556212       -2.93841751523147        3.46778140888662
H            8.58236978140157       -0.50248498485775        3.72309385738088
H            8.35572664557587        2.24384980406851        3.64180490887888
H            7.62530274007912        4.57308214246698        3.24949496678417
H            5.53439646201766        5.04547672801653        2.06380785138526
H            4.11594632963726        3.21914125673682        1.20802385150974
H            2.75560276305999       -0.93355244859164        2.27795773461994
H            0.65537254226985       -1.16658068465654        1.02515890006418
H           -0.64706966148757        1.26932208166559        0.88880607249044
H           -2.74452323595490        1.18692981188618        2.16513084328213
H           -4.11587570225731       -3.05356795773655        1.58752315647574
H           -5.53957836346458       -4.76641012224021        2.64586459613174
H           -7.63504608325212       -4.15726562376216        3.75848242517417
H           -8.36651827856933       -1.79814532451134        3.86904460025075
H           -8.58583646929983        0.93993435127286        3.63430936501392
H           -8.23346789101198        3.33210456449289        3.11851847872651
H           -6.27211801458172        4.06157634946278        1.84482056857009
H           -4.58954712857229        2.43906830399865        1.05977945824674
H           -4.27196853580618       -1.74742114837359       -0.53829430875162
H           -2.16298732834593       -1.67922894503401       -1.80081349010585
H           -0.64137083720653        2.68871667859812       -1.20172736779276
H            0.93276909189829        5.23993097494908       -2.91814712384673
H           -0.18667838573848        6.31999866864184       -2.08044432366331
H            0.25260328776667        4.77094525478355       -1.36092051106843
H           -0.54621351649735        5.43946591180642       -4.95828100058906
H           -2.26579516492651        5.02025849685420       -4.85328338764764
H           -1.65146903050601        6.45745088060255       -4.04330972837318
H           -3.23678507705207        4.20353982832576       -2.63102791360767
H           -2.23467573793884        4.22387685360332       -1.18144638478074
H           -2.66894120738473        5.74001427540099       -1.96730929638257
H           -0.91610488907494        3.27195627980679       -5.45918002782465
H           -0.37363142300507        0.93813496365408       -5.85707017779523

          :  Hamiltonian                  GFN2-xTB          :
         :: gradient norm              0.000152478368 Eh/a0 ::
         :: HOMO-LUMO gap              0.308232013525 eV    ::
         :: SCC energy              -155.252056620030 Eh    ::
         :: -> dispersion             -0.148756290815 Eh    ::
         :: -> Gsolv                  -0.059144815985 Eh    ::
         :: repulsion energy           2.796390862408 Eh    ::

    * Orbital Energies and Occupations

         #    Occupation            Energy/Eh            Energy/eV
      -------------------------------------------------------------
         1        2.0000           -0.6767200             -18.4145
       ...           ...                  ...                  ...
       132        2.0000           -0.4059385             -11.0461
       133        2.0000           -0.4049772             -11.0200
       134        2.0000           -0.4045615             -11.0087
       135        2.0000           -0.4040384             -10.9944
       136        2.0000           -0.3953472             -10.7579
       137        2.0000           -0.3948526             -10.7445
       138        2.0000           -0.3903446             -10.6218
       139        2.0000           -0.3792419             -10.3197
       140        2.0000           -0.3792257             -10.3193
       141        1.9876           -0.3626393              -9.8679
       142        1.9733           -0.3618934              -9.8476
       143        1.0390           -0.3554335              -9.6718
       144        0.9966           -0.2578026              -7.0152 (HOMO)
       145        0.0019           -0.2464747              -6.7069 (LUMO)
       146        0.0015           -0.2462238              -6.7001
       147                         -0.2340543              -6.3689
       148                         -0.2316673              -6.3040
       149                         -0.2306878              -6.2773
       150                         -0.2274639              -6.1896
       151                         -0.2227250              -6.0607
       152                         -0.2227153              -6.0604
       153                         -0.2107077              -5.7336
       154                         -0.2059282              -5.6036
       155                         -0.1907507              -5.1906
       ...                                ...                  ...
       284                          0.7441466              20.2493
      -------------------------------------------------------------
                  HL-Gap            0.0113278 Eh            0.3082 eV

     #   Z          covCN         q      C6AA      α(0)
     1   6 C        3.761    -0.102    22.501     6.762
     2   6 C        3.902     0.028    20.052     6.365
     3   6 C        3.761    -0.103    22.505     6.763
     4   6 C        3.761    -0.106    22.570     6.773
     5   6 C        2.971    -0.004    28.129     8.700
     6   6 C        2.912    -0.040    28.994     8.830
     7   6 C        2.903    -0.045    29.120     8.848
     8   6 C        3.022    -0.009    28.217     8.713
     9   6 C        3.048    -0.003    28.056     8.687
    10   6 C        2.909    -0.042    29.052     8.838
    11   6 C        3.938     0.009    20.358     6.412
    12   6 C        2.980     0.013    27.717     8.636
    13   6 C        2.923    -0.034    28.851     8.808
    14   6 C        2.921    -0.043    29.058     8.840
    15   6 C        2.913     0.059    26.673     8.469
    16   7 N        2.802    -0.041    22.041     6.973
    17   6 C        3.076     0.048    26.851     8.496
    18   6 C        2.909    -0.050    29.249     8.868
    19   6 C        2.923    -0.035    28.867     8.811
    20   6 C        2.920    -0.042    29.035     8.836
    21   6 C        2.912    -0.034    28.857     8.809
    22   6 C        3.067    -0.018    28.394     8.738
    23   6 C        3.067    -0.018    28.392     8.737
    24   6 C        2.912    -0.034    28.857     8.809
    25   6 C        2.920    -0.042    29.036     8.836
    26   6 C        2.923    -0.035    28.869     8.811
    27   6 C        2.909    -0.051    29.254     8.869
    28   6 C        3.076     0.048    26.853     8.496
    29   6 C        2.920    -0.044    29.083     8.844
    30   6 C        2.923    -0.033    28.829     8.805
    31   6 C        2.980     0.013    27.717     8.636
    32   6 C        2.923    -0.033    28.830     8.805
    33   6 C        2.920    -0.044    29.084     8.844
    34   6 C        2.913     0.059    26.673     8.469
    35   7 N        2.802    -0.041    22.040     6.973
    36   6 C        3.076     0.048    26.853     8.496
    37   6 C        2.909    -0.051    29.254     8.869
    38   6 C        2.923    -0.035    28.869     8.811
    39   6 C        2.920    -0.042    29.035     8.836
    40   6 C        2.912    -0.034    28.856     8.809
    41   6 C        3.067    -0.018    28.392     8.737
    42   6 C        3.067    -0.018    28.392     8.737
    43   6 C        2.912    -0.034    28.857     8.809
    44   6 C        2.920    -0.042    29.035     8.836
    45   6 C        2.923    -0.035    28.867     8.811
    46   6 C        2.909    -0.050    29.250     8.868
    47   6 C        3.076     0.048    26.852     8.496
    48   6 C        2.921    -0.043    29.057     8.840
    49   6 C        2.923    -0.034    28.852     8.809
    50   6 C        3.048    -0.003    28.056     8.687
    51   6 C        2.909    -0.042    29.052     8.838
    52   6 C        2.971    -0.004    28.129     8.700
    53   6 C        3.902     0.028    20.052     6.365
    54   6 C        3.761    -0.103    22.505     6.763
    55   6 C        3.761    -0.106    22.570     6.773
    56   6 C        3.761    -0.102    22.500     6.762
    57   6 C        2.912    -0.040    28.994     8.830
    58   6 C        2.903    -0.045    29.120     8.848
    59   6 C        3.022    -0.009    28.217     8.713
    60   1 H        0.925     0.039     2.460     2.453
    61   1 H        0.925     0.032     2.560     2.502
    62   1 H        0.925     0.036     2.502     2.473
    63   1 H        0.925     0.039     2.457     2.451
    64   1 H        0.925     0.033     2.545     2.495
    65   1 H        0.925     0.037     2.494     2.470
    66   1 H        0.925     0.036     2.508     2.476
    67   1 H        0.925     0.037     2.490     2.468
    68   1 H        0.925     0.035     2.512     2.479
    69   1 H        0.926     0.034     2.537     2.491
    70   1 H        0.926     0.022     2.698     2.569
    71   1 H        0.926     0.025     2.651     2.546
    72   1 H        0.926     0.038     2.469     2.457
    73   1 H        0.926     0.040     2.443     2.444
    74   1 H        0.926     0.032     2.564     2.504
    75   1 H        0.926     0.032     2.565     2.504
    76   1 H        0.926     0.029     2.601     2.522
    77   1 H        0.926     0.031     2.571     2.508
    78   1 H        0.926     0.031     2.571     2.507
    79   1 H        0.926     0.029     2.602     2.523
    80   1 H        0.926     0.031     2.570     2.507
    81   1 H        0.926     0.031     2.568     2.506
    82   1 H        0.926     0.041     2.433     2.439
    83   1 H        0.926     0.038     2.473     2.459
    84   1 H        0.926     0.038     2.474     2.460
    85   1 H        0.926     0.041     2.432     2.439
    86   1 H        0.926     0.031     2.569     2.506
    87   1 H        0.926     0.031     2.570     2.507
    88   1 H        0.926     0.029     2.602     2.522
    89   1 H        0.926     0.031     2.571     2.507
    90   1 H        0.926     0.031     2.571     2.507
    91   1 H        0.926     0.029     2.601     2.522
    92   1 H        0.926     0.032     2.564     2.504
    93   1 H        0.926     0.032     2.563     2.503
    94   1 H        0.926     0.040     2.444     2.444
    95   1 H        0.926     0.038     2.469     2.457
    96   1 H        0.926     0.025     2.652     2.547
    97   1 H        0.925     0.033     2.545     2.495
    98   1 H        0.925     0.039     2.458     2.452
    99   1 H        0.925     0.037     2.493     2.469
   100   1 H        0.925     0.036     2.508     2.476
   101   1 H        0.925     0.035     2.513     2.479
   102   1 H        0.925     0.037     2.490     2.468
   103   1 H        0.925     0.032     2.560     2.502
   104   1 H        0.925     0.036     2.502     2.474
   105   1 H        0.925     0.039     2.459     2.452
   106   1 H        0.926     0.034     2.537     2.491
   107   1 H        0.926     0.022     2.698     2.569

molecular dipole:
                 x           y           z       tot (Debye)
 q only:       -0.002       0.001       0.033
   full:       -0.002      -0.004      -0.051       0.131

 projected vibrational frequencies (cm⁻¹)
eigval :       -0.00    -0.00    -0.00     0.00     0.00     0.00
eigval :       12.91    13.60    14.38    17.30    19.53    23.58
eigval :       24.93    35.13    40.68    43.51    48.16    56.33
eigval :       58.24    69.85    78.11    80.76    97.45   104.43
eigval :      107.12   111.76   123.19   134.89   143.90   146.25
eigval :      149.50   165.03   168.98   173.89   181.51   185.21
eigval :      190.94   210.38   216.33   223.54   225.59   233.40
eigval :      235.71   260.24   270.88   271.67   273.44   274.91
eigval :      299.69   303.56   309.01   311.23   317.09   321.28
eigval :      327.35   342.51   346.57   353.92   355.13   366.38
eigval :      379.73   385.08   386.43   390.74   392.48   404.04
eigval :      406.77   416.55   418.53   424.89   428.15   431.48
eigval :      436.38   442.03   446.53   447.25   475.94   487.35
eigval :      503.83   516.29   518.25   518.44   528.79   533.89
eigval :      535.92   536.77   540.62   541.68   575.87   578.32
eigval :      583.41   589.43   596.84   600.82   608.30   612.16
eigval :      616.23   621.34   641.27   650.23   673.42   674.67
eigval :      675.22   675.85   691.12   703.77   706.83   708.77
eigval :      710.76   716.84   732.09   755.83   756.24   763.02
eigval :      767.91   769.42   771.03   779.25   780.13   782.87
eigval :      817.46   822.23   861.63   863.10   866.28   866.48
eigval :      870.32   871.57   872.85   873.68   879.79   881.41
eigval :      892.85   893.25   896.43   897.14   899.48   899.88
eigval :      902.47   902.94   903.65   917.64   918.11   919.86
eigval :      921.19   921.78   927.34   928.55   934.63   937.94
eigval :      939.43   944.52   952.11   952.48   952.73   959.14
eigval :      959.95   962.11   962.86   971.41  1011.02  1011.09
eigval :     1015.41  1024.00  1026.52  1027.28  1031.33  1032.30
eigval :     1067.88  1067.93  1070.93  1071.10  1084.84  1090.35
eigval :     1114.89  1116.04  1117.47  1129.89  1139.80  1140.94
eigval :     1148.77  1148.98  1171.06  1173.81  1174.64  1175.83
eigval :     1179.82  1180.46  1181.79  1183.18  1186.58  1197.83
eigval :     1198.79  1207.24  1207.96  1210.08  1219.07  1228.97
eigval :     1232.76  1234.04  1234.28  1240.32  1243.79  1252.14
eigval :     1264.23  1267.31  1268.45  1277.05  1296.60  1296.86
eigval :     1298.58  1299.22  1301.33  1302.73  1315.38  1317.74
eigval :     1321.74  1352.63  1353.38  1354.54  1357.09  1357.19
eigval :     1362.79  1363.87  1377.77  1395.62  1397.86  1398.67
eigval :     1400.69  1402.15  1405.33  1409.15  1423.35  1423.45
eigval :     1423.82  1423.95  1426.70  1427.40  1470.75  1470.99
eigval :     1481.90  1484.61  1485.34  1485.49  1485.63  1485.83
eigval :     1486.97  1487.65  1491.70  1491.80  1498.01  1498.43
eigval :     1500.98  1501.78  1510.20  1510.46  1516.27  1516.64
eigval :     1545.34  1548.43  1553.22  1558.47  1570.17  1570.43
eigval :     1580.42  1580.79  1585.13  1585.41  1592.03  1592.09
eigval :     1598.97  1604.42  1607.96  3017.49  3017.88  3018.02
eigval :     3018.37  3021.47  3021.84  3023.25  3023.60  3025.43
eigval :     3025.97  3029.43  3029.48  3034.84  3034.94  3042.53
eigval :     3042.67  3047.19  3047.80  3071.04  3071.16  3072.30
eigval :     3072.62  3073.24  3075.71  3075.85  3076.93  3077.21
eigval :     3077.50  3078.46  3078.73  3079.81  3080.37  3081.06
eigval :     3081.66  3085.38  3085.79  3087.06  3087.74  3088.42
eigval :     3089.23  3091.45  3091.71  3092.58  3093.68  3094.51
eigval :     3095.03  3104.19  3104.99

   temp. (K)  partition function   enthalpy   heat capacity  entropy
                                   cal/mol     cal/K/mol   cal/K/mol   J/K/mol
 298.15  VIB  0.199E+24            30314.708    190.788    187.105
         ROT  0.805E+08              888.752      2.981     39.157
         INT  0.160E+32            31203.460    193.769    226.262
         TR   0.203E+29             1481.254      4.968     45.747
         TOT                       32684.7141   198.7367   272.0087  1138.0844

       T/K    H(0)-H(T)+PV         H(T)/Eh          T*S/Eh         G(T)/Eh
   ------------------------------------------------------------------------
    298.15    0.520864E-01    0.911807E+00    0.129240E+00    0.782567E+00
   ------------------------------------------------------------------------

         :::::::::::::::::::::::::::::::::::::::::::::::::::::
         ::                  THERMODYNAMIC                  ::
         :::::::::::::::::::::::::::::::::::::::::::::::::::::
         :: total free energy        -151.673098717373 Eh   ::
         ::.................................................::
         :: total energy             -152.455665749845 Eh   ::
         :: zero point energy           0.859720732702 Eh   ::
         :: G(RRHO) w/o ZPVE           -0.077153700230 Eh   ::
         :: G(RRHO) contrib.            0.782567032473 Eh   ::
         :::::::::::::::::::::::::::::::::::::::::::::::::::::

           -------------------------------------------------
          | TOTAL ENERGY             -152.455665749845 Eh   |
          | TOTAL ENTHALPY           -151.543858609717 Eh   |
          | TOTAL FREE ENERGY        -151.673098717373 Eh   |
          | GRADIENT NORM               0.000152404155 Eh/α |
          | HOMO-LUMO GAP               0.308245950393 eV   |
           -------------------------------------------------

 * finished run on 2025/09/10 at 04:51:20.319
