   * xtb version 6.7.1 (edcfbbe) compiled by 'albert@albert-system' on 2024-07-22

   ID    Z sym.   atoms
    1    8 O      1, 10, 17
    2    6 C      2-9, 11, 13-16, 18-23, 25
    3    7 N      12, 24
    4    1 H      26-35

          program call               : xtb data2507/toluene/HDP/HDP_toluene_T1_crest.xyz --gfn 2 --uhf 2 --gbsa toluene --ohess vtight --parallel 40 --molden --ceasefiles --namespace data2507/toluene/HDP/HDP_toluene_T1_finalOpt
      * Solvation model:               GBSA
        Solvent                        toluene
        Solvent mass                       9.2140E+01 g/mol
          :  Hamiltonian                  GFN2-xTB          :
 * total energy  :   -65.9515895 Eh     change       -0.7056116E-09 Eh
 * total energy  :   -65.9517085 Eh     change       -0.1189972E-03 Eh
 * total energy  :   -65.9517393 Eh     change       -0.3077593E-04 Eh
 * total energy  :   -65.9517416 Eh     change       -0.2357412E-05 Eh
 * total energy  :   -65.9517408 Eh     change        0.7927115E-06 Eh
 * total energy  :   -65.9517428 Eh     change       -0.1940938E-05 Eh
 * total energy  :   -65.9517437 Eh     change       -0.9802738E-06 Eh
 * total energy  :   -65.9517451 Eh     change       -0.1339820E-05 Eh
 * total energy  :   -65.9517468 Eh     change       -0.1770800E-05 Eh
 * total energy  :   -65.9517490 Eh     change       -0.2133899E-05 Eh
 * total energy  :   -65.9517509 Eh     change       -0.1968644E-05 Eh
 * total energy  :   -65.9517523 Eh     change       -0.1302942E-05 Eh
 * total energy  :   -65.9517529 Eh     change       -0.6495638E-06 Eh
 * total energy  :   -65.9517532 Eh     change       -0.2801053E-06 Eh
 * total energy  :   -65.9517533 Eh     change       -0.1136927E-06 Eh
 * total energy  :   -65.9517533 Eh     change       -0.3965434E-07 Eh
   *** GEOMETRY OPTIMIZATION CONVERGED AFTER 16 ITERATIONS ***

 final structure:
================
35
 xtb: 6.7.1 (edcfbbe)
O           -2.56138429091480       -2.75186057354328       -0.01707796333615
C           -2.40963426166246       -1.52113034687824       -0.01411245932259
C           -3.50980484129966       -0.57384864284462       -0.01346766601324
C           -4.81947332154194       -1.07614632420289       -0.01583119137684
C           -5.90507223704960       -0.23216666182669       -0.01513967634516
C           -5.71342580600312        1.15021186177483       -0.01207281214995
C           -4.43869254606878        1.66578337566057       -0.00987421986208
C           -3.31635752954961        0.82499043890018       -0.01049062897607
C           -1.99824033711285        1.43258610760589       -0.00806473702074
O           -1.80086703295923        2.65521644798551       -0.00621804921378
C           -0.87076519466196        0.50333476602631       -0.00766225785600
N            0.35910736392210        0.93438303335490       -0.00454341984828
C            1.42359697739614        0.18637533285249       -0.00398014771993
C            1.23116962627200       -1.25967692072993       -0.00697902607314
C            2.35773604904676       -2.10047055777103       -0.00635704206699
C            3.62958817529012       -1.59360267554568       -0.00378384994947
O            4.64271048494285       -2.46851379429336       -0.00320733192006
C            3.86269224779365       -0.16357926637444       -0.00167197726135
C            5.14981481037165        0.39242773513795       -0.00014469649705
C            5.33160038321437        1.75858607709201        0.00241580247774
C            4.23443263992892        2.61619826727620        0.00370691250979
C            2.95854091294694        2.10142070127789        0.00184136088230
C            2.75425602680071        0.71489039209550       -0.00113785691368
N           -0.00222320104967       -1.69348407923252       -0.01005800374447
C           -1.06963228237745       -0.94299770543929       -0.01068244503643
H           -4.94297325127249       -2.14927524232526       -0.01820889217248
H           -6.90526853570517       -0.63810775854655       -0.01693914678679
H           -6.56520430717601        1.81317512607768       -0.01144085414219
H           -4.26430246316422        2.73183308885278       -0.00757287509342
H            2.20624340650862       -3.16785787096333       -0.00801173640515
H            5.50145679840073       -2.02059000018590       -0.00066373510565
H            6.02753093415464       -0.23867113818837       -0.00112309473199
H            6.33114570672384        2.16531620781379        0.00345730209762
H            4.38416071942366        3.68467925551450        0.00598491646264
H            2.09214692703134        2.74479916999232        0.00246470501114

          :  Hamiltonian                  GFN2-xTB          :
         :: gradient norm              0.000024329189 Eh/a0 ::
         :: HOMO-LUMO gap              0.316759184566 eV    ::
         :: SCC energy               -66.976847280008 Eh    ::
         :: -> dispersion             -0.045052706382 Eh    ::
         :: -> Gsolv                  -0.038556074763 Eh    ::
         :: repulsion energy           1.025093944099 Eh    ::

    * Orbital Energies and Occupations

         #    Occupation            Energy/Eh            Energy/eV
      -------------------------------------------------------------
         1        2.0000           -0.7446140             -20.2620
       ...           ...                  ...                  ...
        48        2.0000           -0.4561516             -12.4125
        49        2.0000           -0.4552816             -12.3888
        50        2.0000           -0.4523553             -12.3092
        51        2.0000           -0.4463345             -12.1454
        52        2.0000           -0.4388495             -11.9417
        53        2.0000           -0.4343658             -11.8197
        54        2.0000           -0.4242774             -11.5452
        55        2.0000           -0.4225979             -11.4995
        56        2.0000           -0.4174916             -11.3605
        57        2.0000           -0.4093221             -11.1382
        58        1.9999           -0.3994311             -10.8691
        59        1.0001           -0.3818205             -10.3899
        60        0.9978           -0.3389086              -9.2222 (HOMO)
        61        0.0022           -0.3272679              -8.9054 (LUMO)
        62                         -0.2874448              -7.8218
        63                         -0.2629151              -7.1543
        64                         -0.2524614              -6.8698
        65                         -0.2387934              -6.4979
        66                         -0.2102107              -5.7201
        67                         -0.1895618              -5.1582
        68                         -0.1772707              -4.8238
        69                         -0.1408475              -3.8327
        70                         -0.0892781              -2.4294
        71                         -0.0686830              -1.8690
       ...                                ...                  ...
       110                          0.7124459              19.3866
      -------------------------------------------------------------
                  HL-Gap            0.0116407 Eh            0.3168 eV

     #   Z          covCN         q      C6AA      α(0)
     1   8 O        0.858    -0.430    22.298     6.331
     2   6 C        2.832     0.196    23.828     7.999
     3   6 C        2.974    -0.023    28.578     8.769
     4   6 C        2.923    -0.018    28.453     8.747
     5   6 C        2.916    -0.022    28.557     8.763
     6   6 C        2.916    -0.023    28.572     8.765
     7   6 C        2.923    -0.018    28.447     8.746
     8   6 C        2.975    -0.025    28.612     8.774
     9   6 C        2.832     0.198    23.780     7.991
    10   8 O        0.858    -0.429    22.270     6.327
    11   6 C        2.935     0.054    26.798     8.490
    12   7 N        1.854    -0.120    24.375     7.317
    13   6 C        2.947     0.075    26.326     8.415
    14   6 C        2.940     0.089    26.022     8.366
    15   6 C        2.910    -0.075    29.862     8.961
    16   6 C        2.836     0.160    24.528     8.116
    17   8 O        1.661    -0.357    20.026     6.041
    18   6 C        2.977    -0.007    28.193     8.710
    19   6 C        2.919    -0.026    28.660     8.779
    20   6 C        2.916    -0.018    28.453     8.747
    21   6 C        2.917    -0.016    28.414     8.741
    22   6 C        2.921    -0.019    28.490     8.753
    23   6 C        2.984     0.011    27.770     8.644
    24   7 N        1.854    -0.129    24.576     7.348
    25   6 C        2.932     0.058    26.704     8.475
    26   1 H        0.926     0.058     2.226     2.333
    27   1 H        0.926     0.056     2.247     2.344
    28   1 H        0.926     0.056     2.247     2.344
    29   1 H        0.926     0.058     2.218     2.329
    30   1 H        0.926     0.088     1.895     2.153
    31   1 H        0.805     0.339     0.614     1.230
    32   1 H        0.926     0.062     2.180     2.309
    33   1 H        0.926     0.066     2.132     2.283
    34   1 H        0.926     0.065     2.141     2.288
    35   1 H        0.926     0.065     2.141     2.288

molecular dipole:
                 x           y           z       tot (Debye)
 q only:        3.851       0.609       0.009
   full:        3.890       0.687       0.009      10.042

 projected vibrational frequencies (cm⁻¹)
eigval :       -0.00    -0.00    -0.00     0.00     0.00     0.00
eigval :       27.86    31.38    70.65    99.13   100.63   115.11
eigval :      139.91   155.49   204.01   207.05   251.38   260.33
eigval :      272.41   317.36   329.14   354.67   364.84   389.70
eigval :      401.64   412.36   414.03   425.96   437.93   442.51
eigval :      475.06   483.90   524.40   532.86   549.69   593.97
eigval :      601.75   626.37   633.53   633.62   649.54   672.65
eigval :      675.32   702.03   721.27   722.79   739.90   770.00
eigval :      779.34   798.82   826.39   860.40   865.33   886.90
eigval :      915.70   924.27   926.28   928.46   953.15   996.18
eigval :     1059.88  1075.48  1081.38  1087.75  1110.85  1131.93
eigval :     1156.78  1166.23  1178.15  1185.65  1202.93  1206.29
eigval :     1223.92  1223.97  1239.85  1256.83  1294.75  1330.03
eigval :     1348.78  1355.21  1363.79  1391.70  1412.80  1418.27
eigval :     1440.93  1446.24  1476.28  1500.68  1528.29  1540.24
eigval :     1544.60  1569.17  1574.09  1577.81  1588.54  3063.26
eigval :     3083.68  3086.18  3092.49  3093.27  3099.68  3100.61
eigval :     3107.31  3114.59  3438.92

   temp. (K)  partition function   enthalpy   heat capacity  entropy
                                   cal/mol     cal/K/mol   cal/K/mol   J/K/mol
 298.15  VIB  0.184E+07             9992.785     68.096     58.720
         ROT  0.100E+08              888.752      2.981     35.013
         INT  0.185E+14            10881.537     71.077     93.733
         TR   0.570E+28             1481.254      4.968     43.224
         TOT                       12362.7908    76.0449   136.9570   573.0280

       T/K    H(0)-H(T)+PV         H(T)/Eh          T*S/Eh         G(T)/Eh
   ------------------------------------------------------------------------
    298.15    0.197014E-01    0.260653E+00    0.650727E-01    0.195580E+00
   ------------------------------------------------------------------------

         :::::::::::::::::::::::::::::::::::::::::::::::::::::
         ::                  THERMODYNAMIC                  ::
         :::::::::::::::::::::::::::::::::::::::::::::::::::::
         :: total free energy         -65.756173251236 Eh   ::
         ::.................................................::
         :: total energy              -65.951753337213 Eh   ::
         :: zero point energy           0.240951401500 Eh   ::
         :: G(RRHO) w/o ZPVE           -0.045371315523 Eh   ::
         :: G(RRHO) contrib.            0.195580085977 Eh   ::
         :::::::::::::::::::::::::::::::::::::::::::::::::::::

           -------------------------------------------------
          | TOTAL ENERGY              -65.951753337213 Eh   |
          | TOTAL ENTHALPY            -65.691100574500 Eh   |
          | TOTAL FREE ENERGY         -65.756173251236 Eh   |
          | GRADIENT NORM               0.000023810565 Eh/α |
          | HOMO-LUMO GAP               0.316758752443 eV   |
           -------------------------------------------------

 * finished run on 2025/07/18 at 22:04:58.769
