   * xtb version 6.7.1 (edcfbbe) compiled by 'albert@albert-system' on 2024-07-22

   ID    Z sym.   atoms
    1    8 O      1, 10, 17
    2    6 C      2-9, 11, 13-16, 18-23, 25
    3    7 N      12, 24
    4    1 H      26-35

          program call               : xtb data2507/toluene/HDP/HDP.xyz --gfn 2 --gbsa toluene --ohess vtight --parallel 40 --molden --ceasefiles --namespace data2507/toluene/HDP/HDP_toluene_S0_preOpt
      * Solvation model:               GBSA
        Solvent                        toluene
        Solvent mass                       9.2140E+01 g/mol
          :  Hamiltonian                  GFN2-xTB          :
 * total energy  :   -65.9800554 Eh     change       -0.8526229E-09 Eh
 * total energy  :   -65.9890707 Eh     change       -0.9015305E-02 Eh
 * total energy  :   -65.9914030 Eh     change       -0.2332220E-02 Eh
 * total energy  :   -65.9916708 Eh     change       -0.2678150E-03 Eh
 * total energy  :   -65.9918478 Eh     change       -0.1770475E-03 Eh
 * total energy  :   -65.9919217 Eh     change       -0.7384714E-04 Eh
 * total energy  :   -65.9919997 Eh     change       -0.7805726E-04 Eh
 * total energy  :   -65.9920385 Eh     change       -0.3873306E-04 Eh
 * total energy  :   -65.9920533 Eh     change       -0.1481627E-04 Eh
 * total energy  :   -65.9920622 Eh     change       -0.8876750E-05 Eh
 * total energy  :   -65.9920726 Eh     change        0.8513503E-07 Eh
 * total energy  :   -65.9920730 Eh     change       -0.3935396E-06 Eh
 * total energy  :   -65.9920730 Eh     change       -0.2638410E-07 Eh
 * total energy  :   -65.9920732 Eh     change       -0.2534424E-06 Eh
 * total energy  :   -65.9920734 Eh     change       -0.1528702E-06 Eh
 * total energy  :   -65.9920735 Eh     change       -0.1289917E-06 Eh
 * total energy  :   -65.9920736 Eh     change       -0.1133162E-06 Eh
 * total energy  :   -65.9920738 Eh     change       -0.1269815E-06 Eh
 * total energy  :   -65.9920738 Eh     change       -0.2003461E-08 Eh
   *** GEOMETRY OPTIMIZATION CONVERGED AFTER 22 ITERATIONS ***

 final structure:
================
35
 xtb: 6.7.1 (edcfbbe)
O           -2.72122345833215       -2.82458124002811       -0.03784387433109
C           -2.52553962431061       -1.62386914536195       -0.02111668170197
C           -3.63052987163859       -0.64306974490849       -0.00979170699539
C           -4.93994577648737       -1.12135687571647       -0.01120522293949
C           -6.01335748937273       -0.24847686155607        0.00107949704632
C           -5.79094236793919        1.12076805860604        0.01472117656444
C           -4.49647618420847        1.60954350067083        0.01510173958713
C           -3.40578388926740        0.74231588575473        0.00286826414367
C           -2.04624828755048        1.32308625123118        0.00205735295446
O           -1.85310191181213        2.52620723335035        0.00652564912487
C           -0.93253237361862        0.34720736137850       -0.00405426538768
N            0.29762975036340        0.84081063378636       -0.00321279422514
C            1.32140416990115       -0.00551407420632       -0.00232292494318
C            1.10018416010671       -1.41544638985914        0.00265172904956
C            2.19613905619577       -2.30042286397504        0.01431609632325
C            3.48159857704852       -1.82858003149356        0.01755630711855
O            4.47414449891071       -2.73227297109003        0.03049397432217
C            3.75087999512346       -0.40924963401955        0.00618631367797
C            5.05400339686192        0.11530678973367        0.00398924707548
C            5.26995313802849        1.47383066637913       -0.00817252579351
C            4.19445070986770        2.36174198091416       -0.01785831435972
C            2.90790168528649        1.87862432237518       -0.01544947489941
C            2.66588132760987        0.49865646154890       -0.00390121517232
N           -0.14748497813644       -1.90316909666645       -0.00462839026958
C           -1.15359859124705       -1.04875641577314       -0.00968826864710
H           -5.08872510324103       -2.19120143001132       -0.02178426944590
H           -7.02080395024619       -0.63546821947049        0.00008300886005
H           -6.62399684059292        1.80680712158161        0.02469348519224
H           -4.29916750376520        2.67152605495103        0.02477239792422
H            2.00815459889149       -3.36175369495266        0.02055130663845
H            5.34249063300776       -2.30368457167872        0.03253219837020
H            5.91512574977303       -0.53892537841866        0.01106012626891
H            6.27982973003100        1.85516616508905       -0.01025911998977
H            4.37509307770149        3.42556364378319       -0.02734112566558
H            2.05459294705763        2.53863850805236       -0.02260969547506

          :  Hamiltonian                  GFN2-xTB          :
         :: gradient norm              0.000033082491 Eh/a0 ::
         :: HOMO-LUMO gap              0.855527730520 eV    ::
         :: SCC energy               -67.008055786092 Eh    ::
         :: -> dispersion             -0.045160092248 Eh    ::
         :: -> Gsolv                  -0.035517566682 Eh    ::
         :: repulsion energy           1.015982026945 Eh    ::

    * Orbital Energies and Occupations

         #    Occupation            Energy/Eh            Energy/eV
      -------------------------------------------------------------
         1        2.0000           -0.7383411             -20.0913
       ...           ...                  ...                  ...
        47        2.0000           -0.4646067             -12.6426
        48        2.0000           -0.4512836             -12.2801
        49        2.0000           -0.4474118             -12.1747
        50        2.0000           -0.4452831             -12.1168
        51        2.0000           -0.4393381             -11.9550
        52        2.0000           -0.4377800             -11.9126
        53        2.0000           -0.4354645             -11.8496
        54        2.0000           -0.4318664             -11.7517
        55        2.0000           -0.4259461             -11.5906
        56        2.0000           -0.4243691             -11.5477
        57        2.0000           -0.4066772             -11.0662
        58        2.0000           -0.4003044             -10.8928
        59        2.0000           -0.3700771             -10.0703 (HOMO)
        60        0.0000           -0.3386370              -9.2148 (LUMO)
        61                         -0.3195851              -8.6964
        62                         -0.2789033              -7.5893
        63                         -0.2698775              -7.3437
        64                         -0.2502184              -6.8088
        65                         -0.2359242              -6.4198
        66                         -0.2082826              -5.6677
        67                         -0.2025575              -5.5119
        68                         -0.1739017              -4.7321
        69                         -0.1367015              -3.7198
        70                         -0.0909775              -2.4756
       ...                                ...                  ...
       110                          0.7178843              19.5346
      -------------------------------------------------------------
                  HL-Gap            0.0314401 Eh            0.8555 eV

     #   Z          covCN         q      C6AA      α(0)
     1   8 O        0.858    -0.363    20.958     6.138
     2   6 C        2.829     0.218    23.415     7.929
     3   6 C        2.973    -0.018    28.456     8.750
     4   6 C        2.924    -0.011    28.295     8.723
     5   6 C        2.917    -0.014    28.367     8.734
     6   6 C        2.917    -0.014    28.359     8.733
     7   6 C        2.924    -0.012    28.303     8.724
     8   6 C        2.973    -0.018    28.443     8.748
     9   6 C        2.830     0.216    23.443     7.934
    10   8 O        0.858    -0.371    21.105     6.159
    11   6 C        2.950     0.054    26.783     8.488
    12   7 N        1.849    -0.220    26.642     7.650
    13   6 C        2.964     0.080    26.219     8.399
    14   6 C        2.961     0.089    26.017     8.366
    15   6 C        2.914    -0.077    29.934     8.972
    16   6 C        2.837     0.156    24.626     8.132
    17   8 O        1.661    -0.366    20.197     6.067
    18   6 C        2.978    -0.011    28.294     8.725
    19   6 C        2.918    -0.029    28.723     8.789
    20   6 C        2.917    -0.020    28.498     8.754
    21   6 C        2.916    -0.019    28.490     8.753
    22   6 C        2.920    -0.020    28.518     8.757
    23   6 C        2.986     0.003    27.958     8.673
    24   7 N        1.850    -0.227    26.819     7.675
    25   6 C        2.948     0.063    26.596     8.458
    26   1 H        0.926     0.071     2.069     2.250
    27   1 H        0.926     0.070     2.086     2.258
    28   1 H        0.926     0.070     2.084     2.258
    29   1 H        0.926     0.072     2.064     2.247
    30   1 H        0.926     0.075     2.030     2.228
    31   1 H        0.805     0.335     0.625     1.242
    32   1 H        0.925     0.054     2.267     2.355
    33   1 H        0.926     0.060     2.200     2.319
    34   1 H        0.926     0.058     2.218     2.329
    35   1 H        0.926     0.067     2.113     2.273

molecular dipole:
                 x           y           z       tot (Debye)
 q only:        1.590       0.770       0.020
   full:        1.673       0.844       0.020       4.763

 projected vibrational frequencies (cm⁻¹)
eigval :       -0.00    -0.00    -0.00    -0.00     0.00     0.00
eigval :       10.14    23.70    60.31    94.12    97.67   100.85
eigval :      129.08   149.11   199.17   209.87   221.61   249.89
eigval :      271.11   319.13   320.50   361.29   365.39   381.45
eigval :      390.18   409.26   414.13   418.95   437.58   443.57
eigval :      473.56   484.70   524.37   549.12   555.81   599.76
eigval :      601.22   652.61   653.23   655.80   675.35   679.99
eigval :      704.22   711.02   750.02   750.29   773.51   778.30
eigval :      791.01   804.00   856.48   868.63   879.83   895.06
eigval :      919.42   931.03   932.35   932.98   965.95  1026.21
eigval :     1067.18  1085.31  1085.66  1095.71  1124.18  1147.92
eigval :     1157.42  1169.02  1185.62  1189.68  1221.47  1235.07
eigval :     1240.28  1245.69  1271.54  1291.63  1326.07  1334.01
eigval :     1337.04  1360.90  1391.51  1410.89  1416.23  1431.99
eigval :     1451.50  1464.15  1473.43  1499.39  1543.89  1565.44
eigval :     1567.81  1578.62  1587.12  1657.89  1668.29  3058.10
eigval :     3087.57  3089.79  3089.98  3095.59  3098.89  3103.06
eigval :     3110.11  3119.71  3443.22

   temp. (K)  partition function   enthalpy   heat capacity  entropy
                                   cal/mol     cal/K/mol   cal/K/mol   J/K/mol
 298.15  VIB  0.982E+07            10039.368     66.982     60.423
         ROT  0.999E+07              888.752      2.981     35.009
         INT  0.981E+14            10928.120     69.962     95.432
         TR   0.570E+28             1481.254      4.968     43.224
         TOT                       12409.3739    74.9306   138.6554   580.1343

       T/K    H(0)-H(T)+PV         H(T)/Eh          T*S/Eh         G(T)/Eh
   ------------------------------------------------------------------------
    298.15    0.197756E-01    0.262695E+00    0.658797E-01    0.196816E+00
   ------------------------------------------------------------------------

         :::::::::::::::::::::::::::::::::::::::::::::::::::::
         ::                  THERMODYNAMIC                  ::
         :::::::::::::::::::::::::::::::::::::::::::::::::::::
         :: total free energy         -65.795258026640 Eh   ::
         ::.................................................::
         :: total energy              -65.992073761112 Eh   ::
         :: zero point energy           0.242919808209 Eh   ::
         :: G(RRHO) w/o ZPVE           -0.046104073738 Eh   ::
         :: G(RRHO) contrib.            0.196815734472 Eh   ::
         :::::::::::::::::::::::::::::::::::::::::::::::::::::

           -------------------------------------------------
          | TOTAL ENERGY              -65.992073761112 Eh   |
          | TOTAL ENTHALPY            -65.729378356832 Eh   |
          | TOTAL FREE ENERGY         -65.795258026640 Eh   |
          | GRADIENT NORM               0.000033071942 Eh/α |
          | HOMO-LUMO GAP               0.855528075097 eV   |
           -------------------------------------------------

 * finished run on 2025/07/18 at 22:02:48.547
