   * xtb version 6.7.1 (edcfbbe) compiled by 'albert@albert-system' on 2024-07-22

   ID    Z sym.   atoms
    1    8 O      1, 10, 17
    2    6 C      2-9, 11, 13-16, 18-23, 25
    3    7 N      12, 24
    4    1 H      26-35

          program call               : xtb data2507/toluene/HDP/HDP_toluene_S0_finalOpt.xtbopt.xyz --gfn 2 --uhf 2 --gbsa toluene --ohess vtight --parallel 40 --molden --ceasefiles --namespace data2507/toluene/HDP/HDP_toluene_T1_preOpt
      * Solvation model:               GBSA
        Solvent                        toluene
        Solvent mass                       9.2140E+01 g/mol
          :  Hamiltonian                  GFN2-xTB          :
 * total energy  :   -65.9424501 Eh     change       -0.9977015E-09 Eh
 * total energy  :   -65.9481008 Eh     change       -0.5650632E-02 Eh
 * total energy  :   -65.9515624 Eh     change       -0.3461631E-02 Eh
 * total energy  :   -65.9517066 Eh     change       -0.1442017E-03 Eh
 * total energy  :   -65.9517471 Eh     change       -0.4050621E-04 Eh
 * total energy  :   -65.9517506 Eh     change       -0.3504264E-05 Eh
 * total energy  :   -65.9517513 Eh     change       -0.7104019E-06 Eh
 * total energy  :   -65.9517517 Eh     change       -0.3585887E-06 Eh
 * total energy  :   -65.9517520 Eh     change       -0.3133745E-06 Eh
 * total energy  :   -65.9517523 Eh     change       -0.2655417E-06 Eh
 * total energy  :   -65.9517525 Eh     change       -0.2036855E-06 Eh
 * total energy  :   -65.9517526 Eh     change       -0.1811483E-06 Eh
 * total energy  :   -65.9517528 Eh     change       -0.1673879E-06 Eh
 * total energy  :   -65.9517530 Eh     change       -0.1524860E-06 Eh
 * total energy  :   -65.9517531 Eh     change       -0.1216305E-06 Eh
 * total energy  :   -65.9517532 Eh     change       -0.9127594E-07 Eh
   *** GEOMETRY OPTIMIZATION CONVERGED AFTER 16 ITERATIONS ***

 final structure:
================
35
 xtb: 6.7.1 (edcfbbe)
O           -2.56249520535706       -2.75193393741053       -0.00048561541552
C           -2.41081095050747       -1.52119863035584        0.00103593580756
C           -3.51096655595239       -0.57394039524810        0.00453685991784
C           -4.82059935424938       -1.07632616676850        0.00801015039705
C           -5.90621938976648       -0.23239114932557        0.01225178381778
C           -5.71456992764722        1.14999105526889        0.01291513813714
C           -4.43985585344782        1.66562593345274        0.00920627151484
C           -3.31747527804032        0.82488905782992        0.00502322105227
C           -1.99933110776399        1.43251592880766        0.00155100345234
O           -1.80207116187163        2.65517972291324        0.00059353099897
C           -0.87182906322038        0.50332028853738       -0.00025281427442
N            0.35814502938951        0.93420627130599       -0.00126312954886
C            1.42255578420031        0.18607010437534       -0.00112528095971
C            1.22991009152024       -1.25994928784192        0.00011287133162
C            2.35618755528063       -2.10110216991034        0.00171595964824
C            3.62817720235624       -1.59460719007865        0.00279141918969
O            4.64104138509837       -2.46981261533326        0.00496997646098
C            3.86159333712518       -0.16464261115356        0.00147635997670
C            5.14890434205176        0.39091346583020        0.00267116143495
C            5.33121218891572        1.75700049208616        0.00077728850752
C            4.23433535584046        2.61497055696323       -0.00248827206466
C            2.95825080160196        2.10063738834477       -0.00331696610156
C            2.75340774677475        0.71418620414964       -0.00115423994877
N           -0.00353800378437       -1.69359605530050        0.00018319870870
C           -1.07083039804863       -0.94299848072313        0.00009656036626
H           -4.94400548936630       -2.14946651115749        0.00746931487284
H           -6.90640293536296       -0.63836230006692        0.01512618856486
H           -6.56637192796526        1.81292232298374        0.01636809149156
H           -4.26557842001390        2.73169503158015        0.00956858417079
H            2.20427686566889       -3.16842644730902        0.00247330575528
H            5.49994346210171       -2.02218334734838        0.00563125719954
H            6.02637324910020       -0.24052299883424        0.00519004826271
H            6.33091489075391        2.16334249151960        0.00182594617873
H            4.38445246756814        3.68339883586130       -0.00423317779076
H            2.09213906175696        2.74439205991809       -0.00557730132775

          :  Hamiltonian                  GFN2-xTB          :
         :: gradient norm              0.000036611246 Eh/a0 ::
         :: HOMO-LUMO gap              0.316718546259 eV    ::
         :: SCC energy               -66.976837577851 Eh    ::
         :: -> dispersion             -0.045052198499 Eh    ::
         :: -> Gsolv                  -0.038556927426 Eh    ::
         :: repulsion energy           1.025084402673 Eh    ::

    * Orbital Energies and Occupations

         #    Occupation            Energy/Eh            Energy/eV
      -------------------------------------------------------------
         1        2.0000           -0.7446121             -20.2619
       ...           ...                  ...                  ...
        48        2.0000           -0.4561514             -12.4125
        49        2.0000           -0.4552808             -12.3888
        50        2.0000           -0.4523582             -12.3093
        51        2.0000           -0.4463356             -12.1454
        52        2.0000           -0.4388498             -11.9417
        53        2.0000           -0.4343673             -11.8197
        54        2.0000           -0.4242769             -11.5452
        55        2.0000           -0.4225965             -11.4994
        56        2.0000           -0.4174916             -11.3605
        57        2.0000           -0.4093224             -11.1382
        58        1.9999           -0.3994311             -10.8691
        59        1.0001           -0.3818216             -10.3899
        60        0.9978           -0.3389087              -9.2222 (HOMO)
        61        0.0022           -0.3272696              -8.9055 (LUMO)
        62                         -0.2874442              -7.8218
        63                         -0.2629159              -7.1543
        64                         -0.2524619              -6.8698
        65                         -0.2387942              -6.4979
        66                         -0.2102123              -5.7202
        67                         -0.1895635              -5.1583
        68                         -0.1772692              -4.8237
        69                         -0.1408478              -3.8327
        70                         -0.0892818              -2.4295
        71                         -0.0686857              -1.8690
       ...                                ...                  ...
       110                          0.7124348              19.3863
      -------------------------------------------------------------
                  HL-Gap            0.0116392 Eh            0.3167 eV

     #   Z          covCN         q      C6AA      α(0)
     1   8 O        0.858    -0.430    22.297     6.331
     2   6 C        2.832     0.196    23.828     7.999
     3   6 C        2.974    -0.023    28.578     8.769
     4   6 C        2.923    -0.018    28.453     8.747
     5   6 C        2.916    -0.022    28.557     8.763
     6   6 C        2.916    -0.023    28.572     8.765
     7   6 C        2.923    -0.018    28.447     8.746
     8   6 C        2.975    -0.025    28.612     8.774
     9   6 C        2.832     0.198    23.780     7.991
    10   8 O        0.858    -0.429    22.270     6.327
    11   6 C        2.935     0.054    26.798     8.490
    12   7 N        1.854    -0.120    24.375     7.317
    13   6 C        2.947     0.075    26.326     8.415
    14   6 C        2.940     0.089    26.022     8.366
    15   6 C        2.910    -0.075    29.862     8.961
    16   6 C        2.836     0.160    24.528     8.116
    17   8 O        1.661    -0.357    20.026     6.041
    18   6 C        2.977    -0.007    28.193     8.710
    19   6 C        2.919    -0.026    28.660     8.779
    20   6 C        2.916    -0.018    28.453     8.747
    21   6 C        2.917    -0.016    28.414     8.741
    22   6 C        2.921    -0.019    28.490     8.753
    23   6 C        2.984     0.011    27.770     8.644
    24   7 N        1.854    -0.129    24.576     7.348
    25   6 C        2.932     0.058    26.704     8.475
    26   1 H        0.926     0.058     2.226     2.333
    27   1 H        0.926     0.056     2.247     2.344
    28   1 H        0.926     0.056     2.247     2.344
    29   1 H        0.926     0.058     2.218     2.329
    30   1 H        0.926     0.088     1.895     2.153
    31   1 H        0.805     0.339     0.614     1.230
    32   1 H        0.926     0.062     2.180     2.309
    33   1 H        0.926     0.066     2.132     2.283
    34   1 H        0.926     0.065     2.141     2.288
    35   1 H        0.926     0.065     2.141     2.288

molecular dipole:
                 x           y           z       tot (Debye)
 q only:        3.851       0.607       0.005
   full:        3.891       0.686       0.005      10.042

 projected vibrational frequencies (cm⁻¹)
eigval :       -0.00    -0.00    -0.00    -0.00     0.00     0.00
eigval :       27.65    31.53    70.72    99.21   100.61   115.07
eigval :      139.97   155.51   204.03   207.04   251.39   260.38
eigval :      272.38   317.39   329.19   354.67   364.64   389.63
eigval :      401.67   412.37   414.05   425.96   437.99   442.51
eigval :      475.06   483.91   524.40   532.89   549.68   593.99
eigval :      601.75   626.33   633.51   633.63   649.56   672.66
eigval :      675.33   702.02   721.29   722.79   739.89   770.01
eigval :      779.34   798.81   826.45   860.40   865.33   886.82
eigval :      915.69   924.24   926.26   928.48   953.14   996.17
eigval :     1059.87  1075.47  1081.35  1087.75  1110.86  1131.90
eigval :     1156.76  1166.27  1178.14  1185.53  1202.90  1206.29
eigval :     1223.86  1223.94  1239.84  1256.82  1294.74  1329.99
eigval :     1348.80  1355.20  1363.77  1391.69  1412.81  1418.24
eigval :     1440.90  1446.17  1476.24  1500.68  1528.30  1540.24
eigval :     1544.58  1569.14  1574.08  1577.80  1588.52  3063.26
eigval :     3083.67  3086.18  3092.49  3093.27  3099.66  3100.59
eigval :     3107.30  3114.63  3438.93

   temp. (K)  partition function   enthalpy   heat capacity  entropy
                                   cal/mol     cal/K/mol   cal/K/mol   J/K/mol
 298.15  VIB  0.185E+07             9992.699     68.097     58.720
         ROT  0.100E+08              888.752      2.981     35.013
         INT  0.185E+14            10881.451     71.077     93.733
         TR   0.570E+28             1481.254      4.968     43.224
         TOT                       12362.7050    76.0456   136.9567   573.0270

       T/K    H(0)-H(T)+PV         H(T)/Eh          T*S/Eh         G(T)/Eh
   ------------------------------------------------------------------------
    298.15    0.197012E-01    0.260651E+00    0.650726E-01    0.195579E+00
   ------------------------------------------------------------------------

         :::::::::::::::::::::::::::::::::::::::::::::::::::::
         ::                  THERMODYNAMIC                  ::
         :::::::::::::::::::::::::::::::::::::::::::::::::::::
         :: total free energy         -65.756174565163 Eh   ::
         ::.................................................::
         :: total energy              -65.951753176321 Eh   ::
         :: zero point energy           0.240949951992 Eh   ::
         :: G(RRHO) w/o ZPVE           -0.045371340835 Eh   ::
         :: G(RRHO) contrib.            0.195578611157 Eh   ::
         :::::::::::::::::::::::::::::::::::::::::::::::::::::

           -------------------------------------------------
          | TOTAL ENERGY              -65.951753176321 Eh   |
          | TOTAL ENTHALPY            -65.691101999895 Eh   |
          | TOTAL FREE ENERGY         -65.756174565163 Eh   |
          | GRADIENT NORM               0.000037513425 Eh/α |
          | HOMO-LUMO GAP               0.316717453561 eV   |
           -------------------------------------------------

 * finished run on 2025/07/18 at 22:03:50.884
