   * xtb version 6.7.1 (edcfbbe) compiled by 'albert@albert-system' on 2024-07-22

   ID    Z sym.   atoms
    1    8 O      1, 10, 17
    2    6 C      2-9, 11, 13-16, 18-23, 25
    3    7 N      12, 24
    4    1 H      26-35

          program call               : xtb data2507/toluene/HDP/HDP_toluene_S0_crest.xyz --gfn 2 --gbsa toluene --ohess vtight --parallel 40 --molden --ceasefiles --namespace data2507/toluene/HDP/HDP_toluene_S0_finalOpt
      * Solvation model:               GBSA
        Solvent                        toluene
        Solvent mass                       9.2140E+01 g/mol
          :  Hamiltonian                  GFN2-xTB          :
 * total energy  :   -65.9919694 Eh     change       -0.4256719E-09 Eh
 * total energy  :   -65.9920497 Eh     change       -0.8021349E-04 Eh
 * total energy  :   -65.9920685 Eh     change       -0.1888583E-04 Eh
 * total energy  :   -65.9920697 Eh     change       -0.1177172E-05 Eh
 * total energy  :   -65.9920700 Eh     change       -0.2568354E-06 Eh
 * total energy  :   -65.9920701 Eh     change       -0.1188288E-06 Eh
 * total energy  :   -65.9920701 Eh     change        0.8425090E-08 Eh
 * total energy  :   -65.9920702 Eh     change       -0.7989895E-07 Eh
   *** GEOMETRY OPTIMIZATION CONVERGED AFTER 8 ITERATIONS ***

 final structure:
================
35
 xtb: 6.7.1 (edcfbbe)
O           -2.55940539746064       -2.73084677691279       -0.02955306602490
C           -2.39160236475419       -1.52589407062288       -0.01529034432767
C           -3.51899369544336       -0.57094518893220       -0.00156760536371
C           -4.81692728966561       -1.07941105428364        0.00735192224669
C           -5.91026218268369       -0.23162546951824        0.02154774616628
C           -5.71963839208985        1.14246437392119        0.02609166576103
C           -4.43685155763590        1.66108639672021        0.01590964543716
C           -3.32643159797176        0.81931128853023        0.00233387812603
C           -1.98073827355993        1.43140484866726       -0.00870890408690
O           -1.81571568431641        2.63868349919305       -0.01736909704347
C           -0.84467286075214        0.48161211115673       -0.00809020561583
N            0.37377243629767        1.00359744537880       -0.00614893830617
C            1.41683397287385        0.18118869119815       -0.00312653255625
C            1.22834843478448       -1.23351111487542       -0.00042640095841
C            2.34454104950804       -2.09283578765209        0.00686386962417
C            3.61875314746166       -1.59140177659975        0.01003487504108
O            4.63205335269555       -2.47178255545537        0.01743841299511
C            3.85508927434520       -0.16615538309043        0.00518016895750
C            5.14571404431878        0.38846193320793        0.00652675780287
C            5.33009180809081        1.75169716784483        0.00135655504184
C            4.23423932481727        2.61439591006063       -0.00510718359889
C            2.95922667867503        2.10159604579113       -0.00640370113657
C            2.74931097105138        0.71634748504521       -0.00142580975025
N           -0.00770720288280       -1.75002216977171       -0.00500128388849
C           -1.03331754841516       -0.91909590008900       -0.00928427279427
H           -4.94092987184535       -2.15244050503150        0.00327657232950
H           -6.90840171875946       -0.64197712669259        0.02900691524856
H           -6.56837951052014        1.80899187929607        0.03733866743904
H           -4.26412708999062        2.72737809601153        0.01842937875588
H            2.18123901129041       -3.15826829233670        0.00972000018198
H            5.49011476772437       -2.02297156441506        0.01937497028462
H            6.02180384830328       -0.24563122611709        0.01134627019341
H            6.33080293193096        2.15649044132625        0.00236243169542
H            4.39010191888023        3.68214756524461       -0.00898691056487
H            2.09090605519800        2.74177503750266       -0.01130459171155

          :  Hamiltonian                  GFN2-xTB          :
         :: gradient norm              0.000098619766 Eh/a0 ::
         :: HOMO-LUMO gap              0.855694522968 eV    ::
         :: SCC energy               -67.008031495020 Eh    ::
         :: -> dispersion             -0.045159965961 Eh    ::
         :: -> Gsolv                  -0.035513246542 Eh    ::
         :: repulsion energy           1.015961327494 Eh    ::

    * Orbital Energies and Occupations

         #    Occupation            Energy/Eh            Energy/eV
      -------------------------------------------------------------
         1        2.0000           -0.7383518             -20.0916
       ...           ...                  ...                  ...
        47        2.0000           -0.4646088             -12.6426
        48        2.0000           -0.4512830             -12.2800
        49        2.0000           -0.4474104             -12.1747
        50        2.0000           -0.4452888             -12.1169
        51        2.0000           -0.4393382             -11.9550
        52        2.0000           -0.4377798             -11.9126
        53        2.0000           -0.4354618             -11.8495
        54        2.0000           -0.4318681             -11.7517
        55        2.0000           -0.4259455             -11.5906
        56        2.0000           -0.4243721             -11.5478
        57        2.0000           -0.4066774             -11.0663
        58        2.0000           -0.4003065             -10.8929
        59        2.0000           -0.3700799             -10.0704 (HOMO)
        60        0.0000           -0.3386337              -9.2147 (LUMO)
        61                         -0.3195876              -8.6964
        62                         -0.2789040              -7.5894
        63                         -0.2698789              -7.3438
        64                         -0.2502192              -6.8088
        65                         -0.2359262              -6.4199
        66                         -0.2082886              -5.6678
        67                         -0.2025651              -5.5121
        68                         -0.1739032              -4.7321
        69                         -0.1367028              -3.7199
        70                         -0.0909811              -2.4757
       ...                                ...                  ...
       110                          0.7178784              19.5345
      -------------------------------------------------------------
                  HL-Gap            0.0314462 Eh            0.8557 eV

     #   Z          covCN         q      C6AA      α(0)
     1   8 O        0.858    -0.363    20.957     6.138
     2   6 C        2.829     0.218    23.415     7.929
     3   6 C        2.973    -0.018    28.456     8.750
     4   6 C        2.924    -0.011    28.295     8.723
     5   6 C        2.917    -0.014    28.367     8.734
     6   6 C        2.917    -0.014    28.359     8.733
     7   6 C        2.924    -0.012    28.303     8.724
     8   6 C        2.973    -0.018    28.443     8.748
     9   6 C        2.830     0.216    23.443     7.934
    10   8 O        0.858    -0.371    21.105     6.159
    11   6 C        2.950     0.054    26.783     8.488
    12   7 N        1.849    -0.220    26.642     7.650
    13   6 C        2.964     0.080    26.219     8.399
    14   6 C        2.961     0.089    26.017     8.366
    15   6 C        2.914    -0.077    29.934     8.972
    16   6 C        2.837     0.156    24.626     8.132
    17   8 O        1.661    -0.366    20.197     6.067
    18   6 C        2.978    -0.011    28.294     8.725
    19   6 C        2.918    -0.029    28.723     8.789
    20   6 C        2.917    -0.020    28.498     8.754
    21   6 C        2.916    -0.019    28.490     8.753
    22   6 C        2.920    -0.020    28.518     8.757
    23   6 C        2.986     0.003    27.958     8.673
    24   7 N        1.850    -0.227    26.819     7.675
    25   6 C        2.948     0.063    26.596     8.458
    26   1 H        0.926     0.071     2.069     2.250
    27   1 H        0.926     0.070     2.086     2.258
    28   1 H        0.926     0.070     2.084     2.258
    29   1 H        0.926     0.072     2.064     2.247
    30   1 H        0.926     0.075     2.030     2.228
    31   1 H        0.805     0.335     0.625     1.242
    32   1 H        0.925     0.054     2.267     2.355
    33   1 H        0.926     0.060     2.200     2.319
    34   1 H        0.926     0.058     2.218     2.329
    35   1 H        0.926     0.067     2.113     2.273

molecular dipole:
                 x           y           z       tot (Debye)
 q only:        1.572       0.806       0.037
   full:        1.654       0.882       0.038       4.765

 projected vibrational frequencies (cm⁻¹)
eigval :       -0.00     0.00     0.00     0.00     0.00     0.00
eigval :       12.09    21.61    60.95    93.81    98.21   100.37
eigval :      128.47   148.71   198.76   209.59   221.50   249.94
eigval :      270.90   318.87   320.28   361.30   365.97   381.43
eigval :      390.13   408.75   413.99   418.92   437.56   443.55
eigval :      473.62   484.74   524.32   548.72   555.63   599.72
eigval :      600.70   652.28   653.20   655.76   675.34   679.69
eigval :      703.91   710.93   749.84   750.26   773.11   777.96
eigval :      790.58   804.02   855.10   868.28   879.80   894.31
eigval :      919.30   930.57   931.72   932.05   965.83  1026.04
eigval :     1067.19  1084.69  1085.68  1095.32  1124.03  1147.57
eigval :     1156.27  1168.48  1184.67  1189.50  1221.40  1234.60
eigval :     1240.05  1245.28  1271.31  1291.55  1326.03  1333.91
eigval :     1337.02  1360.77  1391.50  1410.73  1416.02  1431.96
eigval :     1451.51  1464.08  1473.34  1499.36  1543.91  1565.44
eigval :     1567.80  1578.57  1587.03  1657.89  1668.34  3056.85
eigval :     3087.63  3089.44  3089.91  3095.84  3099.09  3103.63
eigval :     3109.68  3119.14  3443.46

   temp. (K)  partition function   enthalpy   heat capacity  entropy
                                   cal/mol     cal/K/mol   cal/K/mol   J/K/mol
 298.15  VIB  0.905E+07            10043.362     66.999     60.349
         ROT  0.999E+07              888.752      2.981     35.009
         INT  0.904E+14            10932.114     69.979     95.357
         TR   0.570E+28             1481.254      4.968     43.224
         TOT                       12413.3683    74.9476   138.5811   579.8234

       T/K    H(0)-H(T)+PV         H(T)/Eh          T*S/Eh         G(T)/Eh
   ------------------------------------------------------------------------
    298.15    0.197820E-01    0.262658E+00    0.658444E-01    0.196814E+00
   ------------------------------------------------------------------------

         :::::::::::::::::::::::::::::::::::::::::::::::::::::
         ::                  THERMODYNAMIC                  ::
         :::::::::::::::::::::::::::::::::::::::::::::::::::::
         :: total free energy         -65.795256240613 Eh   ::
         ::.................................................::
         :: total energy              -65.992070167333 Eh   ::
         :: zero point energy           0.242876326890 Eh   ::
         :: G(RRHO) w/o ZPVE           -0.046062400169 Eh   ::
         :: G(RRHO) contrib.            0.196813926721 Eh   ::
         :::::::::::::::::::::::::::::::::::::::::::::::::::::

           -------------------------------------------------
          | TOTAL ENERGY              -65.992070167333 Eh   |
          | TOTAL ENTHALPY            -65.729411878836 Eh   |
          | TOTAL FREE ENERGY         -65.795256240613 Eh   |
          | GRADIENT NORM               0.000098658179 Eh/α |
          | HOMO-LUMO GAP               0.855695014450 eV   |
           -------------------------------------------------

 * finished run on 2025/07/18 at 22:03:49.680
