   * xtb version 6.7.1 (edcfbbe) compiled by 'albert@albert-system' on 2024-07-22

   ID    Z sym.   atoms
    1    8 O      1, 21
    2   15 P      2
    3    6 C      3-20, 22-38, 40-71
    4    7 N      39
    5    1 H      72-115

          program call               : xtb data2507/toluene/9PhCzFDBFSPO/9PhCzFDBFSPO.xyz --gfn 2 --gbsa toluene --ohess vtight --parallel 40 --molden --ceasefiles --namespace data2507/toluene/9PhCzFDBFSPO/9PhCzFDBFSPO_toluene_S0_preOpt
      * Solvation model:               GBSA
        Solvent                        toluene
        Solvent mass                       9.2140E+01 g/mol
          :  Hamiltonian                  GFN2-xTB          :
 * total energy  :  -179.6426739 Eh     change       -0.2375572E-08 Eh
 * total energy  :  -179.6620264 Eh     change       -0.1935251E-01 Eh
 * total energy  :  -179.6675096 Eh     change       -0.5483226E-02 Eh
 * total energy  :  -179.6691921 Eh     change       -0.1682539E-02 Eh
 * total energy  :  -179.6705795 Eh     change       -0.1387341E-02 Eh
 * total energy  :  -179.6712369 Eh     change       -0.6574344E-03 Eh
 * total energy  :  -179.6715263 Eh     change       -0.2894031E-03 Eh
 * total energy  :  -179.6716840 Eh     change       -0.1576719E-03 Eh
 * total energy  :  -179.6718102 Eh     change       -0.1261595E-03 Eh
 * total energy  :  -179.6719364 Eh     change       -0.1262584E-03 Eh
 * total energy  :  -179.6733967 Eh     change       -0.7640009E-06 Eh
 * total energy  :  -179.6733974 Eh     change       -0.7758956E-06 Eh
 * total energy  :  -179.6733984 Eh     change       -0.9540911E-06 Eh
 * total energy  :  -179.6733996 Eh     change       -0.1169128E-05 Eh
 * total energy  :  -179.6734008 Eh     change       -0.1185769E-05 Eh
 * total energy  :  -179.6734018 Eh     change       -0.1072179E-05 Eh
 * total energy  :  -179.6734029 Eh     change       -0.1061886E-05 Eh
 * total energy  :  -179.6734041 Eh     change       -0.1232366E-05 Eh
 * total energy  :  -179.6734041 Eh     change       -0.7534283E-08 Eh
   *** GEOMETRY OPTIMIZATION CONVERGED AFTER 94 ITERATIONS ***

 final structure:
================
115
 xtb: 6.7.1 (edcfbbe)
O          -11.52305028191822       -2.05205204052296        1.30904186051890
P          -10.23676866673292       -2.06893451599493        0.58500219955420
C           -9.69042470045388       -3.74128342928387        0.12852213272928
C          -10.49046211096341       -4.80674999647059        0.51752556320785
C          -10.11232072673797       -6.10316182440041        0.21373775550082
C           -8.93231873567266       -6.33287200007180       -0.47511949539376
C           -8.13136065744046       -5.26856197936207       -0.86229356744919
C           -8.50578921537358       -3.97167627645845       -0.56193125366022
C          -10.26410689253846       -1.05969404669299       -0.93307441626774
C          -10.31899671061186        0.31844897107489       -0.76938976285771
C          -10.38319812502399        1.14483673793287       -1.87596163534066
C          -10.40003471148462        0.59308389259555       -3.14782653075919
C          -10.36174783574888       -0.78190151852933       -3.31063511424526
C          -10.29591528615116       -1.61195534656702       -2.20392314701977
C           -8.88500110840754       -1.36069016758625        1.57595762269047
C           -9.02780795866080       -1.27014014883669        2.95412000012860
C           -8.03251572941629       -0.72028515023318        3.75440708359236
C           -6.86125607492107       -0.23322238178060        3.20304080539274
C           -6.69533503637204       -0.30750768099000        1.82563871349507
C           -7.70670806079921       -0.87771245049973        1.02822907835596
O           -7.38008683915953       -0.86750512459864       -0.28976777330824
C           -6.15065345648594       -0.27673493352401       -0.37236620061619
C           -5.42341197897667       -0.04374972576829       -1.52522011194046
C           -4.19046886185830        0.56446011386520       -1.38357395958156
C           -3.68360326521750        0.94055065179391       -0.13224051264440
C           -2.36621121156960        1.59059649525009       -0.04021367893155
C           -1.28920909315721        1.13625951190668       -0.79775838755874
C           -0.05384546701139        1.74664520847897       -0.70780713431763
C            0.14505676788459        2.83043201776350        0.14107304175290
C            1.48414431476229        3.53973710111864        0.17286571762411
C            2.65496118032907        2.58174704526706        0.07423621557574
C            3.80579201775613        2.92258351381557       -0.62515633889671
C            4.88969564057886        2.06619719240663       -0.66133493832447
C            4.86258492001199        0.84969016557065        0.01572653137253
C            6.01753034293456       -0.05858791072452       -0.02079437584670
C            6.44364054608307       -0.71807113810074        1.13080048558670
C            7.53547438096992       -1.56259083852153        1.10223315229441
C            8.21800931966149       -1.78263513867501       -0.09093406589161
N            9.32179455083447       -2.64891863995559       -0.12768499038050
C            9.34733612917270       -3.94563295374394        0.34529927807881
C            8.33202188017824       -4.69793310136383        0.91992276889199
C            8.61944697027019       -5.99930938283846        1.28504258477230
C            9.88264938976208       -6.55097952868136        1.07903837014203
C           10.89054691196158       -5.81501936809418        0.48825331623946
C           10.62599866589729       -4.50396973616791        0.11245147754735
C           11.40580757547212       -3.48301335132115       -0.52977586001051
C           12.71688258751148       -3.42501075757850       -0.98557330673844
C           13.16885381118371       -2.25106287669239       -1.55478211553306
C           12.33624622901989       -1.13802746469139       -1.65806500503834
C           11.02885658960630       -1.17102176183259       -1.21194571250693
C           10.56076215034715       -2.35629675756413       -0.66141174142171
C            7.79420213889796       -1.13648549829984       -1.24902105358905
C            6.71299184049742       -0.27914237512452       -1.20843851370300
C            3.71317119699352        0.51778087787817        0.72951008940712
C            2.62728399391662        1.37018739300810        0.75718474547796
C            1.46921853159602        4.59530597357235       -0.91797968934928
C            1.28537914133338        4.42990050136624       -2.27446352368211
C            1.29044614979323        5.55374736001845       -3.09022994187217
C            1.47209292624229        6.82000957002067       -2.55451624444817
C            1.64959528470825        6.99343534911169       -1.19114249865022
C            1.64466523804157        5.87534585299815       -0.37287461783507
C            1.79520754474635        5.74887953691197        1.06808933020678
C            2.00216080606719        6.70813945516401        2.04619785526440
C            2.10586444835619        6.29943250015156        3.36632162793300
C            2.00985685968164        4.95730216430291        3.70244589478508
C            1.80406973491744        3.99195048573199        2.72553628683960
C            1.69201934328413        4.39306570540739        1.41110498000582
C           -0.93091518190302        3.29479981166043        0.88695111926598
C           -2.16556865890289        2.67942689811468        0.80403581009548
C           -4.42851621637817        0.70367151136651        1.01708578458943
C           -5.66674975146732        0.09050208831050        0.89784686141962
H          -11.40568920038598       -4.59787724016659        1.05413315027501
H          -10.73675554904372       -6.93156757481557        0.51458670111659
H           -8.63535280194834       -7.34377998719244       -0.71278992327088
H           -7.21280294656198       -5.45134836123871       -1.40071197684557
H           -7.89348619825140       -3.13604069345317       -0.86595038075771
H          -10.30959805620986        0.72940784868916        0.23288147260776
H          -10.41876459043967        2.21698987787397       -1.74809822258377
H          -10.44687561726456        1.23767560498845       -4.01324721403699
H          -10.38284867269282       -1.21066923244319       -4.30199824710693
H          -10.26622990137312       -2.68614759701329       -2.32374524496803
H           -9.94934484435706       -1.63050166013797        3.38922234660552
H           -8.18410187246476       -0.66902323048738        4.82208600466548
H           -6.09275302970451        0.19998502009513        3.82410719193133
H           -5.81225968416182       -0.32299693507605       -2.49167082180385
H           -3.60611775675532        0.77576488949272       -2.26617364618123
H           -1.41573838381714        0.28325871442388       -1.44848594079060
H            0.76982413953626        1.36900848028028       -1.29636813094941
H            3.85670644565862        3.86645230530426       -1.14823705323663
H            5.77830166712990        2.35605827450273       -1.20318049728661
H            5.93117654591267       -0.54332085812127        2.06536839325504
H            7.87486605050530       -2.04587822891468        2.00652007051821
H            7.34546450231145       -4.28554492757036        1.06866145028215
H            7.84637232338750       -6.60416514605993        1.73666834661341
H           10.06862548114630       -7.57155304962405        1.38047295861675
H           11.86492613353423       -6.24748126282034        0.31528391658410
H           13.36723663601867       -4.28205658317379       -0.89143728436662
H           14.18404860440938       -2.18651138602142       -1.91844350111520
H           12.72310055467450       -0.22798070026912       -2.09353241291752
H           10.39693716640793       -0.29836395919425       -1.28133498183672
H            8.30832915790586       -1.32216320234890       -2.18056607069606
H            6.38437735504967        0.20551859068891       -2.11602117296841
H            3.66259950941950       -0.42705328043663        1.25111789786485
H            1.74153313913504        1.08507450778211        1.30635190276886
H            1.14293128513049        3.44745990369328       -2.69933150614521
H            1.15084893537780        5.43953433320889       -4.15551203654645
H            1.47296169213041        7.68066397656009       -3.20799913469671
H            1.78710144745840        7.98096083760306       -0.77596615783480
H            2.08040986534502        7.75360860554733        1.78662513992602
H            2.26594762568658        7.03361006287597        4.14294618867064
H            2.09542014817534        4.65862147050026        4.73730027704248
H            1.72991894689536        2.94910605007049        2.99570213595877
H           -0.80390634888204        4.14683143264566        1.53892351405148
H           -2.99150422832335        3.06395604388945        1.38458841045618
H           -4.04379211931547        0.97442093013131        1.98800616467778

          :  Hamiltonian                  GFN2-xTB          :
         :: gradient norm              0.000063012830 Eh/a0 ::
         :: HOMO-LUMO gap              2.516483160066 eV    ::
         :: SCC energy              -183.012237115961 Eh    ::
         :: -> dispersion             -0.169218053003 Eh    ::
         :: -> Gsolv                  -0.078585885184 Eh    ::
         :: repulsion energy           3.338832984979 Eh    ::

    * Orbital Energies and Occupations

         #    Occupation            Energy/Eh            Energy/eV
      -------------------------------------------------------------
         1        2.0000           -0.7475666             -20.3423
       ...           ...                  ...                  ...
       155        2.0000           -0.4069752             -11.0744
       156        2.0000           -0.4066044             -11.0643
       157        2.0000           -0.4053926             -11.0313
       158        2.0000           -0.4049057             -11.0180
       159        2.0000           -0.4043766             -11.0036
       160        2.0000           -0.4008970             -10.9090
       161        2.0000           -0.3975727             -10.8185
       162        2.0000           -0.3960121             -10.7760
       163        2.0000           -0.3880480             -10.5593
       164        2.0000           -0.3823001             -10.4029
       165        2.0000           -0.3788974             -10.3103
       166        2.0000           -0.3778033             -10.2806
       167        2.0000           -0.3605118              -9.8100 (HOMO)
       168                         -0.2680327              -7.2935 (LUMO)
       169                         -0.2545579              -6.9269
       170                         -0.2535912              -6.9006
       171                         -0.2507615              -6.8236
       172                         -0.2478203              -6.7435
       173                         -0.2446415              -6.6570
       174                         -0.2429191              -6.6102
       175                         -0.2362135              -6.4277
       176                         -0.2347752              -6.3886
       177                         -0.2344665              -6.3802
       178                         -0.2296549              -6.2492
       ...                                ...                  ...
       333                          1.1894334              32.3661
      -------------------------------------------------------------
                  HL-Gap            0.0924791 Eh            2.5165 eV

     #   Z          covCN         q      C6AA      α(0)
     1   8 O        0.808    -0.402    21.739     6.250
     2  15 P        4.054     0.069   157.178    22.521
     3   6 C        2.921     0.011    27.772     8.642
     4   6 C        3.022    -0.020    28.472     8.753
     5   6 C        2.919    -0.027    28.664     8.780
     6   6 C        2.920    -0.023    28.588     8.768
     7   6 C        2.919    -0.027    28.666     8.780
     8   6 C        2.979    -0.026    28.637     8.778
     9   6 C        2.921     0.017    27.625     8.619
    10   6 C        3.026    -0.017    28.408     8.743
    11   6 C        2.919    -0.026    28.650     8.777
    12   6 C        2.920    -0.024    28.609     8.771
    13   6 C        2.920    -0.026    28.644     8.777
    14   6 C        2.975    -0.022    28.550     8.765
    15   6 C        2.908    -0.017    28.443     8.745
    16   6 C        3.009    -0.025    28.613     8.774
    17   6 C        2.919    -0.037    28.931     8.820
    18   6 C        2.913    -0.030    28.753     8.793
    19   6 C        3.053    -0.020    28.449     8.747
    20   6 C        3.155     0.132    24.843     8.150
    21   8 O        1.714    -0.231    17.830     5.701
    22   6 C        3.101     0.125    25.135     8.216
    23   6 C        2.907    -0.051    29.277     8.872
    24   6 C        2.932    -0.035    28.874     8.812
    25   6 C        2.977     0.007    27.863     8.659
    26   6 C        2.977     0.008    27.840     8.655
    27   6 C        2.924    -0.036    28.887     8.814
    28   6 C        2.922    -0.034    28.853     8.809
    29   6 C        2.979     0.016    27.641     8.624
    30   6 C        3.946     0.008    20.376     6.414
    31   6 C        2.979     0.016    27.652     8.626
    32   6 C        2.922    -0.036    28.904     8.816
    33   6 C        2.924    -0.035    28.881     8.813
    34   6 C        2.976     0.007    27.861     8.658
    35   6 C        2.976     0.008    27.831     8.654
    36   6 C        2.924    -0.033    28.834     8.806
    37   6 C        2.920    -0.043    29.071     8.842
    38   6 C        2.912     0.062    26.619     8.460
    39   7 N        2.802    -0.047    22.142     6.989
    40   6 C        3.076     0.048    26.854     8.496
    41   6 C        2.909    -0.052    29.292     8.875
    42   6 C        2.924    -0.035    28.880     8.813
    43   6 C        2.919    -0.043    29.069     8.842
    44   6 C        2.912    -0.035    28.875     8.811
    45   6 C        3.067    -0.019    28.414     8.741
    46   6 C        3.067    -0.019    28.415     8.741
    47   6 C        2.912    -0.035    28.875     8.811
    48   6 C        2.919    -0.043    29.069     8.841
    49   6 C        2.924    -0.035    28.880     8.813
    50   6 C        2.909    -0.052    29.290     8.874
    51   6 C        3.076     0.048    26.854     8.496
    52   6 C        2.920    -0.043    29.071     8.842
    53   6 C        2.925    -0.033    28.835     8.806
    54   6 C        2.924    -0.036    28.887     8.814
    55   6 C        2.922    -0.035    28.861     8.810
    56   6 C        3.057     0.004    27.882     8.660
    57   6 C        2.914    -0.034    28.858     8.809
    58   6 C        2.922    -0.033    28.830     8.805
    59   6 C        2.921    -0.034    28.839     8.806
    60   6 C        2.914    -0.035    28.872     8.811
    61   6 C        3.034     0.000    27.995     8.679
    62   6 C        3.034    -0.000    27.996     8.679
    63   6 C        2.914    -0.035    28.872     8.811
    64   6 C        2.921    -0.034    28.839     8.806
    65   6 C        2.922    -0.033    28.830     8.805
    66   6 C        2.914    -0.034    28.857     8.809
    67   6 C        3.056     0.004    27.883     8.660
    68   6 C        2.922    -0.036    28.895     8.815
    69   6 C        2.924    -0.035    28.876     8.812
    70   6 C        2.918    -0.038    28.936     8.821
    71   6 C        3.053    -0.019    28.421     8.743
    72   1 H        0.925     0.050     2.318     2.381
    73   1 H        0.926     0.045     2.381     2.413
    74   1 H        0.926     0.048     2.348     2.396
    75   1 H        0.926     0.046     2.368     2.407
    76   1 H        0.926     0.051     2.312     2.378
    77   1 H        0.925     0.033     2.539     2.492
    78   1 H        0.926     0.044     2.398     2.421
    79   1 H        0.926     0.048     2.347     2.396
    80   1 H        0.926     0.047     2.363     2.404
    81   1 H        0.925     0.039     2.457     2.451
    82   1 H        0.926     0.055     2.254     2.348
    83   1 H        0.926     0.051     2.302     2.373
    84   1 H        0.926     0.055     2.258     2.350
    85   1 H        0.926     0.050     2.319     2.382
    86   1 H        0.926     0.051     2.307     2.375
    87   1 H        0.926     0.036     2.497     2.471
    88   1 H        0.926     0.035     2.523     2.484
    89   1 H        0.926     0.030     2.580     2.512
    90   1 H        0.926     0.033     2.537     2.491
    91   1 H        0.926     0.041     2.436     2.441
    92   1 H        0.926     0.041     2.437     2.441
    93   1 H        0.926     0.030     2.588     2.516
    94   1 H        0.926     0.029     2.594     2.519
    95   1 H        0.926     0.027     2.629     2.536
    96   1 H        0.926     0.029     2.597     2.520
    97   1 H        0.926     0.029     2.597     2.520
    98   1 H        0.926     0.027     2.629     2.536
    99   1 H        0.926     0.029     2.596     2.519
   100   1 H        0.926     0.030     2.592     2.518
   101   1 H        0.926     0.041     2.439     2.442
   102   1 H        0.926     0.041     2.437     2.441
   103   1 H        0.926     0.035     2.519     2.482
   104   1 H        0.926     0.034     2.536     2.490
   105   1 H        0.926     0.032     2.562     2.503
   106   1 H        0.926     0.032     2.561     2.503
   107   1 H        0.926     0.031     2.570     2.507
   108   1 H        0.926     0.032     2.558     2.501
   109   1 H        0.926     0.032     2.558     2.501
   110   1 H        0.926     0.031     2.571     2.507
   111   1 H        0.926     0.032     2.563     2.504
   112   1 H        0.926     0.032     2.563     2.504
   113   1 H        0.926     0.031     2.568     2.506
   114   1 H        0.926     0.034     2.524     2.484
   115   1 H        0.926     0.048     2.340     2.392

molecular dipole:
                 x           y           z       tot (Debye)
 q only:        1.647       0.587      -0.852
   full:        1.672       0.626      -0.892       5.073

 projected vibrational frequencies (cm⁻¹)
eigval :       -0.00    -0.00    -0.00     0.00     0.00     0.00
eigval :        3.79     7.12     9.48    12.25    17.31    21.25
eigval :       24.34    29.55    31.24    35.52    35.93    39.88
eigval :       43.61    50.47    58.80    61.98    63.42    71.31
eigval :       76.82    81.40    88.06    91.39    98.56   101.54
eigval :      107.48   117.09   118.01   138.49   145.19   151.35
eigval :      155.66   157.28   169.02   177.91   200.22   210.28
eigval :      219.03   221.08   229.56   231.93   236.36   246.72
eigval :      253.22   265.39   269.59   271.59   272.25   289.66
eigval :      294.33   303.27   324.59   337.90   355.37   361.04
eigval :      364.59   369.14   375.31   380.70   387.15   388.26
eigval :      391.87   394.20   403.11   410.31   411.19   413.31
eigval :      415.95   417.82   422.87   430.70   440.62   451.82
eigval :      460.25   466.62   474.20   491.10   498.98   503.72
eigval :      515.16   518.26   522.05   530.08   533.70   538.51
eigval :      541.17   541.43   544.04   549.48   577.94   582.11
eigval :      585.77   585.96   588.34   595.57   596.65   601.40
eigval :      606.64   610.18   617.95   618.15   625.39   649.45
eigval :      659.39   661.67   665.66   673.68   681.32   685.52
eigval :      687.59   693.32   698.66   701.95   705.29   709.32
eigval :      712.73   720.78   730.22   741.27   743.55   747.05
eigval :      752.72   755.87   766.48   767.06   775.62   780.63
eigval :      783.93   799.58   803.76   808.30   828.86   830.97
eigval :      835.61   844.75   865.18   870.27   871.97   873.41
eigval :      875.67   876.51   877.17   879.55   880.33   881.09
eigval :      881.73   892.39   897.36   897.82   900.89   903.99
eigval :      904.07   907.10   908.17   908.25   910.28   916.79
eigval :      917.98   919.36   920.43   920.73   924.38   925.35
eigval :      926.70   927.63   928.16   930.93   931.14   932.35
eigval :      934.25   934.50   934.62   934.93   938.23   971.27
eigval :      975.60   995.97  1006.83  1010.90  1010.94  1022.90
eigval :     1035.18  1068.54  1071.90  1073.28  1075.20  1076.31
eigval :     1077.00  1080.29  1082.58  1093.55  1107.78  1112.18
eigval :     1113.36  1117.23  1120.61  1129.05  1134.29  1134.92
eigval :     1142.50  1145.80  1148.64  1151.79  1162.44  1174.29
eigval :     1175.17  1175.93  1177.13  1177.55  1178.03  1181.75
eigval :     1182.85  1183.18  1189.21  1190.29  1200.00  1202.32
eigval :     1203.42  1205.10  1208.67  1219.16  1223.58  1226.90
eigval :     1235.36  1236.40  1240.38  1242.62  1242.78  1254.65
eigval :     1261.62  1266.54  1269.52  1271.75  1275.82  1277.19
eigval :     1284.49  1295.66  1301.65  1303.95  1305.80  1313.71
eigval :     1314.21  1318.70  1320.67  1320.76  1325.43  1337.44
eigval :     1351.81  1355.71  1360.57  1364.25  1366.75  1385.01
eigval :     1391.91  1399.70  1412.05  1416.25  1421.11  1423.86
eigval :     1427.19  1427.44  1429.37  1430.53  1450.23  1454.06
eigval :     1454.77  1460.86  1470.88  1471.35  1474.41  1476.99
eigval :     1487.26  1499.53  1507.21  1557.25  1561.98  1567.42
eigval :     1570.67  1573.53  1580.42  1583.98  1584.26  1584.62
eigval :     1585.04  1586.87  1587.00  1588.69  1591.61  1592.89
eigval :     1596.90  1597.84  1600.34  1602.91  1604.35  1611.74
eigval :     1613.03  3043.93  3065.64  3068.46  3069.37  3069.45
eigval :     3069.99  3070.42  3071.06  3072.26  3073.89  3074.70
eigval :     3074.85  3075.39  3075.51  3075.61  3076.12  3076.41
eigval :     3076.73  3078.30  3079.96  3080.62  3080.69  3082.64
eigval :     3083.30  3083.76  3083.99  3084.39  3084.79  3086.74
eigval :     3087.93  3088.76  3089.55  3089.98  3090.02  3090.36
eigval :     3091.06  3091.26  3091.87  3092.21  3093.13  3096.77
eigval :     3097.16  3100.67  3103.18

   temp. (K)  partition function   enthalpy   heat capacity  entropy
                                   cal/mol     cal/K/mol   cal/K/mol   J/K/mol
 298.15  VIB  0.177E+29            33920.002    211.211    214.303
         ROT  0.520E+09              888.752      2.981     42.865
         INT  0.919E+37            34808.754    214.192    257.168
         TR   0.273E+29             1481.254      4.968     46.331
         TOT                       36290.0083   219.1601   303.4993  1269.8411

       T/K    H(0)-H(T)+PV         H(T)/Eh          T*S/Eh         G(T)/Eh
   ------------------------------------------------------------------------
    298.15    0.578318E-01    0.937335E+00    0.144202E+00    0.793133E+00
   ------------------------------------------------------------------------

         :::::::::::::::::::::::::::::::::::::::::::::::::::::
         ::                  THERMODYNAMIC                  ::
         :::::::::::::::::::::::::::::::::::::::::::::::::::::
         :: total free energy        -178.880270972131 Eh   ::
         ::.................................................::
         :: total energy             -179.673404128451 Eh   ::
         :: zero point energy           0.879503658259 Eh   ::
         :: G(RRHO) w/o ZPVE           -0.086370501938 Eh   ::
         :: G(RRHO) contrib.            0.793133156321 Eh   ::
         :::::::::::::::::::::::::::::::::::::::::::::::::::::

           -------------------------------------------------
          | TOTAL ENERGY             -179.673404128451 Eh   |
          | TOTAL ENTHALPY           -178.736068660820 Eh   |
          | TOTAL FREE ENERGY        -178.880270972131 Eh   |
          | GRADIENT NORM               0.000063015331 Eh/α |
          | HOMO-LUMO GAP               2.516483045353 eV   |
           -------------------------------------------------

 * finished run on 2025/07/17 at 13:00:52.932
