   * xtb version 6.7.1 (edcfbbe) compiled by 'albert@albert-system' on 2024-07-22

   ID    Z sym.   atoms
    1    8 O      1, 21
    2   15 P      2
    3    6 C      3-20, 22-38, 40-71
    4    7 N      39
    5    1 H      72-115

          program call               : xtb data2507/toluene/9PhCzFDBFSPO/9PhCzFDBFSPO_toluene_T1_crest.xyz --gfn 2 --uhf 2 --gbsa toluene --ohess vtight --parallel 40 --molden --ceasefiles --namespace data2507/toluene/9PhCzFDBFSPO/9PhCzFDBFSPO_toluene_T1_finalOpt
      * Solvation model:               GBSA
        Solvent                        toluene
        Solvent mass                       9.2140E+01 g/mol
          :  Hamiltonian                  GFN2-xTB          :
 * total energy  :  -179.5708842 Eh     change       -0.6927195E-08 Eh
 * total energy  :  -179.5710330 Eh     change       -0.1487558E-03 Eh
 * total energy  :  -179.5710929 Eh     change       -0.5995254E-04 Eh
 * total energy  :  -179.5711016 Eh     change       -0.8668748E-05 Eh
 * total energy  :  -179.5711085 Eh     change       -0.6889819E-05 Eh
 * total energy  :  -179.5711136 Eh     change       -0.5078369E-05 Eh
 * total energy  :  -179.5711170 Eh     change       -0.3403511E-05 Eh
 * total energy  :  -179.5711200 Eh     change       -0.3002001E-05 Eh
 * total energy  :  -179.5711233 Eh     change       -0.3337262E-05 Eh
 * total energy  :  -179.5711273 Eh     change       -0.3973117E-05 Eh
 * total energy  :  -179.5711958 Eh     change       -0.5059864E-06 Eh
 * total energy  :  -179.5711965 Eh     change       -0.6245785E-06 Eh
 * total energy  :  -179.5711972 Eh     change       -0.7330796E-06 Eh
 * total energy  :  -179.5711981 Eh     change       -0.9041646E-06 Eh
 * total energy  :  -179.5711989 Eh     change       -0.7532780E-06 Eh
 * total energy  :  -179.5711993 Eh     change       -0.4491897E-06 Eh
 * total energy  :  -179.5711997 Eh     change       -0.3483159E-06 Eh
 * total energy  :  -179.5712000 Eh     change       -0.2950798E-06 Eh
 * total energy  :  -179.5712000 Eh     change       -0.8422802E-08 Eh
   *** GEOMETRY OPTIMIZATION CONVERGED AFTER 44 ITERATIONS ***

 final structure:
================
115
 xtb: 6.7.1 (edcfbbe)
O          -11.18923366008037       -1.96606274597841        1.27441643202831
P           -9.90427951108297       -1.96954258212737        0.54610999041583
C           -9.34035172804611       -3.63862848628338        0.09981639383490
C          -10.10762706999286       -4.71375289756060        0.52874718088768
C           -9.70656715816313       -6.00764368592527        0.24640620590519
C           -8.53433586789131       -6.22750078645833       -0.45945824757055
C           -7.76516934125644       -5.15426642611379       -0.88552487635755
C           -8.16285473741314       -3.85986868048116       -0.60702981489702
C           -9.96078082027959       -0.97880128279321       -0.98447866513429
C          -10.02175202247187        0.40081555475128       -0.83778688249982
C          -10.10874232767396        1.21282124576543       -1.95343139515194
C          -10.14192676145881        0.64495468226161       -3.21782523649588
C          -10.09714494280425       -0.73168626680940       -3.36376285722518
C          -10.00915609053137       -1.54701651372385       -2.24769777481354
C           -8.55865290980378       -1.23748487464890        1.51923133337700
C           -8.68505597056276       -1.14274305529878        2.90348820695899
C           -7.68221792752529       -0.58702927126139        3.68712512599927
C           -6.51734154869308       -0.09874233802599        3.12149016221934
C           -6.36686586811098       -0.17858267439566        1.73901444617822
C           -7.38660047338135       -0.75459652536198        0.95799513717780
O           -7.07614814708711       -0.75021478945177       -0.36525027921245
C           -5.84778674271087       -0.15845818500542       -0.46555332550961
C           -5.13407948031050        0.06762000399901       -1.62661874995558
C           -3.89742588507481        0.67553522529986       -1.50290383599510
C           -3.37749349188432        1.05742728896341       -0.25843842652979
C           -2.05618759310236        1.70143249927059       -0.18178339179913
C           -0.98693229190887        1.23434403119867       -0.94276723526320
C            0.25466506093341        1.83276261819630       -0.85963860503903
C            0.46709229177726        2.91683566273468       -0.01447795725075
C            1.81703852946152        3.60130938268493        0.01951909435913
C            2.97241251393308        2.63504544577390       -0.05205895066211
C            4.17404404139463        2.97550621923081       -0.69413002320734
C            5.24178271004499        2.12415048176808       -0.70560080491328
C            5.20760449113700        0.85550327462016       -0.04513439435744
C            6.30776519747931       -0.02867235871525       -0.05393924938769
C            6.39732329027259       -1.15525571893550        0.83503169229050
C            7.45103878784897       -2.01139931457342        0.81870950269606
C            8.53741978087660       -1.82042124505602       -0.07438713128058
N            9.61252668941721       -2.68113791534341       -0.08239685641732
C            9.54974649253692       -4.06362935136504        0.00151890365623
C            8.44157256112553       -4.89927677064518        0.03252855662614
C            8.65909576629475       -6.26525749224375        0.08406941047558
C            9.94870247208818       -6.79447270636466        0.08904913276714
C           11.05767864713059       -5.97035058023358        0.01445588433248
C           10.86352254983477       -4.59764574451338       -0.03996930851327
C           11.75662345035055       -3.47931342890137       -0.15815604342057
C           13.13773332679721       -3.36561584214118       -0.22646523035290
C           13.69661996428308       -2.10156597531346       -0.29283099671503
C           12.89664818583157       -0.96028992799005       -0.26588470752417
C           11.51697452300120       -1.04966496838009       -0.20004904720681
C           10.94628880087250       -2.31499673745211       -0.17796633235604
C            8.47958307679566       -0.71101979874370       -0.95779830614965
C            7.41645459486083        0.13346672798962       -0.95501476008688
C            3.98453666385464        0.54780127485173        0.63017863132100
C            2.91999128586295        1.40177498382717        0.62143010076835
C            1.84866803571046        4.65776400444595       -1.07007772797344
C            1.65787754626524        4.50060487636919       -2.42611866513469
C            1.72030491006469        5.62267165212916       -3.24257088929243
C            1.96686972521507        6.87828461859421       -2.70738198395051
C            2.15288998572512        7.04360802570177       -1.34430408420612
C            2.09055432094418        5.92756465529959       -0.52468581418275
C            2.23339921747100        5.79421207659989        0.91504203461780
C            2.48881228002728        6.74112553868931        1.89429751662546
C            2.56049286372918        6.32967842228494        3.21512213024307
C            2.38337710682364        4.99498410707569        3.55317583080104
C            2.13421471048923        4.04068399275564        2.57686654521109
C            2.05219068851849        4.44572558882268        1.26054606563498
C           -0.60149597384182        3.39685064103468        0.73180277471132
C           -1.84245315176119        2.79369594152238        0.65518883450113
C           -4.10971732570762        0.82885038525669        0.89996608176935
C           -5.35122226020968        0.21529613226269        0.79959856156166
H          -11.01729249316896       -4.51277480250979        1.07780967441250
H          -10.30678700711721       -6.84265695027186        0.57722799654645
H           -8.21886064557218       -7.23683572077018       -0.67948835486701
H           -6.85261421015090       -5.32853332023153       -1.43702156168587
H           -7.57463248310130       -3.01784134521813       -0.93992187870464
H           -9.99773849360409        0.82404707230095        0.15922387525318
H          -10.14917899971003        2.28633163184035       -1.83842013920719
H          -10.20611459215893        1.27822529108416       -4.09052483808879
H          -10.13043206169884       -1.17333403267450       -4.34918172361081
H           -9.97444919213289       -2.62262579939501       -2.35387869250877
H           -9.60033254868346       -1.50436368193052        3.35037975114922
H           -7.82069319888386       -0.53183854961195        4.75673982365418
H           -5.74256599100778        0.33816795321342        3.73177841406351
H           -5.53378609945252       -0.21685969974836       -2.58726604181622
H           -3.32288701260937        0.88117179542327       -2.39320941203504
H           -1.12518230568207        0.37994940019976       -1.58935272977242
H            1.07439558414624        1.44614169980297       -1.44841203668865
H            4.25096034848075        3.93149077432257       -1.19277401917114
H            6.14561428410207        2.44108998347174       -1.20092787337912
H            5.63099783381136       -1.29786732029720        1.57944132593858
H            7.51095168653781       -2.81059786606826        1.54268622892738
H            7.43800743817236       -4.50529696121416       -0.00166404660699
H            7.81208307173387       -6.93408028350085        0.11296708519819
H           10.07993057428091       -7.86535713209306        0.13473394135472
H           12.05424332318568       -6.38430305879856       -0.00909811602975
H           13.76115147750300       -4.24668884231609       -0.21928403534295
H           14.76955378729403       -1.99292961901578       -0.34888948138594
H           13.36224602892406        0.01352480414093       -0.28819386676157
H           10.91173165623346       -0.15827881620334       -0.14795010447647
H            9.26432953555676       -0.59175142595127       -1.69021092399001
H            7.38120105271084        0.91836965924905       -1.69287913294799
H            3.88035472861322       -0.39853186447310        1.13656224915581
H            2.00898453624198        1.12090897488838        1.13113712703563
H            1.46476655932840        3.52648528202945       -2.85013475908665
H            1.57467829133995        5.51511889389418       -4.30771251373461
H            2.01223912773910        7.73727587491307       -3.36152891070780
H            2.34134032631806        8.02293244037326       -0.92968091659828
H            2.62857895433565        7.77986376427328        1.63339408937166
H            2.75728609185126        7.05443297528005        3.99207951866777
H            2.44052741361553        4.69480096863639        4.58951992494477
H            1.99994281287032        3.00388017430179        2.84724359920176
H           -0.46236060837136        4.24995888595938        1.38019019732347
H           -2.66311895024361        3.18780033017532        1.23692125225609
H           -3.71365752729845        1.10403352948376        1.86523556906912

          :  Hamiltonian                  GFN2-xTB          :
         :: gradient norm              0.000091713514 Eh/a0 ::
         :: HOMO-LUMO gap              0.104130929964 eV    ::
         :: SCC energy              -182.889434627599 Eh    ::
         :: -> dispersion             -0.169251802979 Eh    ::
         :: -> Gsolv                  -0.079873309291 Eh    ::
         :: repulsion energy           3.318234660688 Eh    ::

    * Orbital Energies and Occupations

         #    Occupation            Energy/Eh            Energy/eV
      -------------------------------------------------------------
         1        2.0000           -0.7423766             -20.2011
       ...           ...                  ...                  ...
       156        2.0000           -0.4051995             -11.0260
       157        2.0000           -0.4042041             -10.9990
       158        2.0000           -0.4034809             -10.9793
       159        2.0000           -0.4029718             -10.9654
       160        2.0000           -0.3978446             -10.8259
       161        2.0000           -0.3951764             -10.7533
       162        2.0000           -0.3917328             -10.6596
       163        2.0000           -0.3874964             -10.5443
       164        2.0000           -0.3853528             -10.4860
       165        2.0000           -0.3808750             -10.3641
       166        1.9999           -0.3776334             -10.2759
       167        1.0001           -0.3602424              -9.8027
       168        0.8823           -0.2671632              -7.2699 (HOMO)
       169        0.1177           -0.2633359              -7.1657 (LUMO)
       170        0.0000           -0.2535568              -6.8996
       171        0.0000           -0.2522314              -6.8636
       172        0.0000           -0.2501563              -6.8071
       173                         -0.2449626              -6.6658
       174                         -0.2422344              -6.5915
       175                         -0.2337154              -6.3597
       176                         -0.2324666              -6.3257
       177                         -0.2322242              -6.3191
       178                         -0.2304575              -6.2711
       179                         -0.2253020              -6.1308
       ...                                ...                  ...
       333                          1.1918993              32.4332
      -------------------------------------------------------------
                  HL-Gap            0.0038273 Eh            0.1041 eV

     #   Z          covCN         q      C6AA      α(0)
     1   8 O        0.808    -0.403    21.764     6.254
     2  15 P        4.052     0.056   157.778    22.564
     3   6 C        2.920     0.011    27.769     8.642
     4   6 C        3.021    -0.020    28.491     8.756
     5   6 C        2.918    -0.027    28.687     8.783
     6   6 C        2.920    -0.025    28.631     8.775
     7   6 C        2.919    -0.027    28.686     8.783
     8   6 C        2.979    -0.026    28.650     8.780
     9   6 C        2.921     0.019    27.594     8.614
    10   6 C        3.025    -0.017    28.400     8.742
    11   6 C        2.919    -0.026    28.661     8.779
    12   6 C        2.920    -0.025    28.624     8.774
    13   6 C        2.920    -0.026    28.657     8.779
    14   6 C        2.974    -0.022    28.553     8.765
    15   6 C        2.908    -0.021    28.520     8.757
    16   6 C        3.006    -0.030    28.739     8.794
    17   6 C        2.918    -0.039    28.974     8.827
    18   6 C        2.913    -0.037    28.921     8.818
    19   6 C        3.052    -0.024    28.547     8.763
    20   6 C        3.157     0.131    24.857     8.152
    21   8 O        1.714    -0.237    17.924     5.716
    22   6 C        3.099     0.123    25.180     8.223
    23   6 C        2.906    -0.053    29.326     8.880
    24   6 C        2.931    -0.039    28.968     8.827
    25   6 C        2.976     0.005    27.916     8.667
    26   6 C        2.977     0.008    27.835     8.654
    27   6 C        2.924    -0.036    28.894     8.815
    28   6 C        2.922    -0.034    28.841     8.807
    29   6 C        2.978     0.015    27.668     8.628
    30   6 C        3.946     0.011    20.326     6.406
    31   6 C        2.981     0.009    27.806     8.650
    32   6 C        2.913    -0.036    28.901     8.815
    33   6 C        2.917    -0.040    28.993     8.830
    34   6 C        2.965     0.002    27.969     8.675
    35   6 C        2.965     0.002    27.974     8.675
    36   6 C        2.914    -0.039    28.961     8.825
    37   6 C        2.909    -0.042    29.050     8.838
    38   6 C        2.909     0.040    27.110     8.538
    39   7 N        2.794     0.005    21.171     6.834
    40   6 C        3.067     0.041    27.006     8.521
    41   6 C        2.909    -0.040    29.002     8.831
    42   6 C        2.922    -0.035    28.879     8.813
    43   6 C        2.919    -0.033    28.819     8.803
    44   6 C        2.911    -0.031    28.767     8.795
    45   6 C        3.061    -0.013    28.274     8.720
    46   6 C        3.061    -0.013    28.274     8.720
    47   6 C        2.911    -0.031    28.767     8.795
    48   6 C        2.919    -0.033    28.819     8.803
    49   6 C        2.922    -0.035    28.879     8.813
    50   6 C        2.909    -0.040    29.001     8.830
    51   6 C        3.067     0.041    27.006     8.521
    52   6 C        2.909    -0.042    29.050     8.838
    53   6 C        2.914    -0.039    28.961     8.825
    54   6 C        2.917    -0.040    28.998     8.830
    55   6 C        2.913    -0.035    28.862     8.809
    56   6 C        3.055     0.004    27.871     8.658
    57   6 C        2.914    -0.034    28.855     8.809
    58   6 C        2.922    -0.033    28.834     8.806
    59   6 C        2.920    -0.034    28.837     8.806
    60   6 C        2.914    -0.035    28.883     8.813
    61   6 C        3.034     0.000    27.993     8.678
    62   6 C        3.034    -0.000    28.007     8.680
    63   6 C        2.914    -0.035    28.871     8.811
    64   6 C        2.920    -0.034    28.851     8.808
    65   6 C        2.922    -0.034    28.838     8.806
    66   6 C        2.914    -0.034    28.845     8.807
    67   6 C        3.060     0.005    27.853     8.655
    68   6 C        2.921    -0.036    28.898     8.815
    69   6 C        2.924    -0.035    28.878     8.813
    70   6 C        2.918    -0.040    28.995     8.830
    71   6 C        3.054    -0.022    28.491     8.754
    72   1 H        0.925     0.048     2.345     2.395
    73   1 H        0.926     0.044     2.402     2.424
    74   1 H        0.926     0.046     2.369     2.407
    75   1 H        0.926     0.044     2.394     2.419
    76   1 H        0.926     0.048     2.342     2.393
    77   1 H        0.925     0.032     2.557     2.500
    78   1 H        0.926     0.043     2.411     2.428
    79   1 H        0.926     0.047     2.356     2.400
    80   1 H        0.926     0.046     2.374     2.409
    81   1 H        0.925     0.038     2.474     2.460
    82   1 H        0.926     0.049     2.336     2.390
    83   1 H        0.926     0.045     2.377     2.411
    84   1 H        0.926     0.048     2.345     2.395
    85   1 H        0.926     0.046     2.374     2.409
    86   1 H        0.926     0.047     2.359     2.402
    87   1 H        0.926     0.036     2.509     2.477
    88   1 H        0.926     0.035     2.523     2.484
    89   1 H        0.926     0.025     2.659     2.550
    90   1 H        0.926     0.031     2.569     2.507
    91   1 H        0.926     0.038     2.472     2.459
    92   1 H        0.926     0.040     2.455     2.450
    93   1 H        0.926     0.043     2.404     2.425
    94   1 H        0.926     0.038     2.474     2.460
    95   1 H        0.926     0.038     2.479     2.462
    96   1 H        0.926     0.040     2.453     2.449
    97   1 H        0.926     0.040     2.453     2.449
    98   1 H        0.926     0.038     2.478     2.462
    99   1 H        0.926     0.038     2.474     2.460
   100   1 H        0.926     0.043     2.406     2.425
   101   1 H        0.926     0.040     2.455     2.450
   102   1 H        0.926     0.038     2.475     2.460
   103   1 H        0.926     0.032     2.555     2.500
   104   1 H        0.926     0.028     2.614     2.528
   105   1 H        0.926     0.031     2.569     2.506
   106   1 H        0.926     0.032     2.562     2.503
   107   1 H        0.926     0.031     2.568     2.506
   108   1 H        0.926     0.032     2.558     2.501
   109   1 H        0.926     0.032     2.553     2.498
   110   1 H        0.926     0.031     2.567     2.506
   111   1 H        0.926     0.032     2.564     2.504
   112   1 H        0.926     0.031     2.569     2.507
   113   1 H        0.926     0.031     2.577     2.510
   114   1 H        0.926     0.033     2.542     2.493
   115   1 H        0.926     0.044     2.398     2.422

molecular dipole:
                 x           y           z       tot (Debye)
 q only:        6.184      -0.514      -1.101
   full:        6.164      -0.450      -1.126      15.968

 projected vibrational frequencies (cm⁻¹)
eigval :       -0.00    -0.00    -0.00    -0.00     0.00     0.00
eigval :        4.34     9.54    11.12    15.09    15.95    20.85
eigval :       24.34    25.84    30.51    32.92    35.12    39.67
eigval :       42.06    50.51    55.60    57.79    64.81    72.87
eigval :       79.41    84.03    89.17    91.25    99.10   102.88
eigval :      114.05   118.15   119.14   135.28   138.74   146.01
eigval :      151.69   159.09   163.63   177.61   200.69   208.16
eigval :      215.64   219.83   229.14   236.70   239.77   245.16
eigval :      247.97   264.86   269.73   272.36   274.96   286.54
eigval :      292.94   299.58   303.16   326.62   338.23   355.12
eigval :      363.44   365.12   369.71   375.50   380.20   385.12
eigval :      387.91   391.44   396.72   400.02   401.85   410.56
eigval :      412.67   413.85   419.24   434.01   439.98   440.94
eigval :      452.07   453.40   464.08   472.18   476.24   495.85
eigval :      499.62   511.97   512.08   520.63   529.95   531.10
eigval :      536.97   539.41   544.06   547.76   570.41   576.21
eigval :      582.82   585.73   585.93   586.11   589.61   592.52
eigval :      597.96   600.29   610.66   615.13   622.46   641.29
eigval :      648.17   657.24   660.02   662.98   668.36   669.55
eigval :      680.29   683.58   689.36   692.86   699.90   704.23
eigval :      707.51   718.62   725.74   736.79   739.06   742.36
eigval :      749.03   753.39   757.69   765.16   767.43   773.02
eigval :      780.73   783.55   789.60   789.72   791.04   802.98
eigval :      805.34   826.69   833.23   841.48   866.65   866.97
eigval :      868.10   874.08   874.61   874.81   876.47   877.63
eigval :      878.44   880.43   891.69   892.63   895.44   896.37
eigval :      900.42   902.46   903.63   904.07   904.14   904.72
eigval :      907.63   910.35   911.70   913.15   913.47   917.57
eigval :      920.89   921.28   923.06   923.76   926.36   926.92
eigval :      927.59   929.36   930.48   933.02   933.36   958.27
eigval :      971.31   975.45   982.36   998.65  1003.31  1006.48
eigval :     1010.21  1032.92  1066.04  1069.54  1072.50  1074.23
eigval :     1074.68  1077.01  1079.38  1093.37  1104.19  1108.52
eigval :     1111.83  1113.11  1116.68  1126.28  1132.68  1133.63
eigval :     1137.64  1141.10  1144.20  1149.24  1160.35  1165.01
eigval :     1171.00  1173.41  1173.48  1174.84  1175.69  1177.85
eigval :     1178.95  1181.31  1187.94  1189.55  1195.52  1200.75
eigval :     1202.90  1204.86  1212.92  1215.67  1218.04  1220.38
eigval :     1227.87  1232.53  1233.82  1238.02  1242.98  1249.97
eigval :     1253.18  1260.58  1264.15  1267.93  1268.48  1271.36
eigval :     1274.77  1283.16  1284.16  1302.62  1308.86  1317.50
eigval :     1318.94  1321.25  1324.58  1327.63  1330.65  1334.66
eigval :     1340.18  1354.74  1359.04  1361.70  1364.93  1373.29
eigval :     1380.62  1390.10  1399.87  1401.65  1403.94  1412.83
eigval :     1420.35  1420.64  1423.48  1426.19  1432.45  1442.76
eigval :     1448.08  1452.05  1453.94  1454.92  1458.62  1464.56
eigval :     1465.14  1466.88  1477.59  1497.75  1498.47  1530.44
eigval :     1540.44  1544.20  1548.36  1551.55  1564.40  1566.06
eigval :     1570.16  1573.78  1575.36  1575.96  1577.77  1579.38
eigval :     1584.44  1584.63  1586.92  1592.69  1593.49  1599.15
eigval :     1602.00  3042.02  3064.89  3067.47  3068.28  3068.56
eigval :     3069.26  3069.88  3071.11  3072.25  3073.41  3073.60
eigval :     3074.60  3075.33  3076.37  3078.92  3079.05  3079.47
eigval :     3079.87  3080.20  3080.93  3081.31  3082.82  3083.91
eigval :     3084.72  3084.90  3086.47  3087.10  3089.08  3089.74
eigval :     3089.90  3090.48  3091.36  3094.11  3094.51  3094.97
eigval :     3095.33  3096.43  3097.58  3099.47  3100.89  3101.37
eigval :     3101.99  3106.53  3109.04

   temp. (K)  partition function   enthalpy   heat capacity  entropy
                                   cal/mol     cal/K/mol   cal/K/mol   J/K/mol
 298.15  VIB  0.169E+29            34269.487    213.313    215.503
         ROT  0.520E+09              888.752      2.981     42.865
         INT  0.879E+37            35158.239    216.294    258.368
         TR   0.273E+29             1481.254      4.968     46.331
         TOT                       36639.4934   221.2625   304.6994  1274.8623

       T/K    H(0)-H(T)+PV         H(T)/Eh          T*S/Eh         G(T)/Eh
   ------------------------------------------------------------------------
    298.15    0.583887E-01    0.933184E+00    0.144773E+00    0.788412E+00
   ------------------------------------------------------------------------

         :::::::::::::::::::::::::::::::::::::::::::::::::::::
         ::                  THERMODYNAMIC                  ::
         :::::::::::::::::::::::::::::::::::::::::::::::::::::
         :: total free energy        -178.782788341942 Eh   ::
         ::.................................................::
         :: total energy             -179.571199963788 Eh   ::
         :: zero point energy           0.874795389047 Eh   ::
         :: G(RRHO) w/o ZPVE           -0.086383767202 Eh   ::
         :: G(RRHO) contrib.            0.788411621846 Eh   ::
         :::::::::::::::::::::::::::::::::::::::::::::::::::::

           -------------------------------------------------
          | TOTAL ENERGY             -179.571199963788 Eh   |
          | TOTAL ENTHALPY           -178.638015825401 Eh   |
          | TOTAL FREE ENERGY        -178.782788341942 Eh   |
          | GRADIENT NORM               0.000091402004 Eh/α |
          | HOMO-LUMO GAP               0.104146242739 eV   |
           -------------------------------------------------

 * finished run on 2025/07/17 at 13:39:43.577
