   * xtb version 6.7.1 (edcfbbe) compiled by 'albert@albert-system' on 2024-07-22

   ID    Z sym.   atoms
    1    8 O      1, 21
    2   15 P      2
    3    6 C      3-20, 22-38, 40-71
    4    7 N      39
    5    1 H      72-115

          program call               : xtb data2507/toluene/9PhCzFDBFSPO/9PhCzFDBFSPO_toluene_S0_finalOpt.xtbopt.xyz --gfn 2 --uhf 2 --gbsa toluene --ohess vtight --parallel 40 --molden --ceasefiles --namespace data2507/toluene/9PhCzFDBFSPO/9PhCzFDBFSPO_toluene_T1_preOpt
      * Solvation model:               GBSA
        Solvent                        toluene
        Solvent mass                       9.2140E+01 g/mol
          :  Hamiltonian                  GFN2-xTB          :
 * total energy  :  -179.5624632 Eh     change       -0.2857519E-09 Eh
 * total energy  :  -179.5653612 Eh     change       -0.2897995E-02 Eh
 * total energy  :  -179.5676166 Eh     change       -0.2255487E-02 Eh
 * total energy  :  -179.5684008 Eh     change       -0.7841724E-03 Eh
 * total energy  :  -179.5693362 Eh     change       -0.9353568E-03 Eh
 * total energy  :  -179.5697533 Eh     change       -0.4171653E-03 Eh
 * total energy  :  -179.5700403 Eh     change       -0.2869892E-03 Eh
 * total energy  :  -179.5702292 Eh     change       -0.1888779E-03 Eh
 * total energy  :  -179.5703251 Eh     change       -0.9588462E-04 Eh
 * total energy  :  -179.5703743 Eh     change       -0.4925993E-04 Eh
 * total energy  :  -179.5711836 Eh     change       -0.3569403E-05 Eh
 * total energy  :  -179.5711869 Eh     change       -0.3303996E-05 Eh
 * total energy  :  -179.5711899 Eh     change       -0.2998359E-05 Eh
 * total energy  :  -179.5711923 Eh     change       -0.2395094E-05 Eh
 * total energy  :  -179.5711942 Eh     change       -0.1980302E-05 Eh
 * total energy  :  -179.5711959 Eh     change       -0.1702851E-05 Eh
 * total energy  :  -179.5711976 Eh     change       -0.1611422E-05 Eh
 * total energy  :  -179.5711992 Eh     change       -0.1652037E-05 Eh
 * total energy  :  -179.5711992 Eh     change       -0.6097224E-08 Eh
   *** GEOMETRY OPTIMIZATION CONVERGED AFTER 122 ITERATIONS ***

 final structure:
================
115
 xtb: 6.7.1 (edcfbbe)
O          -11.22291901496516       -1.96000195481974        1.21574235517609
P           -9.93194830786529       -1.97119571339789        0.49815546695595
C           -9.38010238212494       -3.64240858831806        0.04497813625922
C          -10.16344959353719       -4.71336645210392        0.45468687886453
C           -9.77312348415980       -6.00859521937021        0.16350582017330
C           -8.59594272036007       -6.23392155277565       -0.53228688529278
C           -7.81056001874052       -5.16484684030243       -0.93880729830994
C           -8.19740381984058       -3.86913356355384       -0.65138457451085
C           -9.96585834550340       -0.97239069243241       -1.02786336002415
C          -10.01349547654888        0.40722745493820       -0.87652572578973
C          -10.08086965695282        1.22415499798492       -1.98992854469497
C          -10.10785049602158        0.66138816679232       -3.25675046171438
C          -10.07721669042708       -0.71511793824555       -3.40744942970166
C          -10.00868533110130       -1.53533083479796       -2.29365568786966
C           -8.58771890757828       -1.25745466403832        1.48674077335655
C           -8.72328472805325       -1.17312907412655        2.87081548948560
C           -7.72217324990930       -0.63091120551596        3.66604132409082
C           -6.55028281460364       -0.14527490783763        3.11268356570335
C           -6.39094269769724       -0.21390216925892        1.73059666459535
C           -7.40861710126295       -0.77750386357213        0.93783773510973
O           -7.08952212790699       -0.76292944571446       -0.38326386861532
C           -5.85838330917333       -0.17499191866135       -0.47045868830176
C           -5.13771810632197        0.06103532199516       -1.62519928438881
C           -3.90039784875493        0.66468852789212       -1.48842021861361
C           -3.38615381100862        1.03244465069409       -0.23726082554806
C           -2.06397741254916        1.67325748391283       -0.14867902958615
C           -0.99356490995617        1.21261739871082       -0.91203646235544
C            0.24765707820686        1.81085595406609       -0.82291792648666
C            0.45860574768553        2.88850787100027        0.03075913858161
C            1.80583255950062        3.57776077498174        0.06518080351638
C            2.96541826652169        2.61748667448419       -0.02015618205518
C            4.15968677532391        2.96624635131741       -0.67138189605926
C            5.23253971413523        2.12154264529773       -0.69250781799030
C            5.21181738301940        0.85284242165962       -0.03199073593848
C            6.31923914519441       -0.02226782114600       -0.04717665017556
C            6.42800126230228       -1.14187955262622        0.84818771442872
C            7.48987613374868       -1.98784181512678        0.82740349215519
C            8.56519796185626       -1.79317416274940       -0.07831509291688
N            9.64890936231353       -2.64289219087332       -0.09080136513476
C            9.60169873807754       -4.02507301700490        0.00818598142678
C            8.50306746380643       -4.87223470972616        0.06054420969101
C            8.73582361107845       -6.23523420039725        0.12381367656991
C           10.03100996616791       -6.75069543057740        0.11952308348986
C           11.13008104347435       -5.91559757877937        0.02363655948371
C           10.92053564380400       -4.54568736706857       -0.04272306524867
C           11.80040889936034       -3.41947582106335       -0.18244107695999
C           13.17950053855069       -3.29252993510674       -0.26678654657422
C           13.72460682470208       -2.02365335833178       -0.35256784022383
C           12.91314629688439       -0.89045742870067       -0.32917125397976
C           11.53521958056790       -0.99317738867392       -0.24737979261484
C           10.97771743740123       -2.26388866119929       -0.20538041493785
C            8.48720981113711       -0.69115412248457       -0.96948748791576
C            7.41670087200014        0.14389836876345       -0.96091709698967
C            3.99544007448170        0.53529120180318        0.65052713291666
C            2.92500754583146        1.38197384362270        0.65008238865231
C            1.82859715460616        4.64334789844855       -1.01565201119237
C            1.62645585213503        4.49731561173000       -2.37127735475427
C            1.68333324224187        5.62586441072811       -3.17912499526520
C            1.93595412178609        6.87675876124343       -2.63573327937824
C            2.13304105974969        7.03091178884229       -1.27288760256745
C            2.07595594399189        5.90838818324286       -0.46173495313986
C            2.22852635569689        5.76311346303453        0.97585173823855
C            2.49301272901057        6.70151906012986        1.96088489563663
C            2.57234700379802        6.27946362503551        3.27791164904566
C            2.39333342225565        4.94268459507940        3.60664455995555
C            2.13561292270092        3.99676412271526        2.62446044929812
C            2.04671808291039        4.41220236844557        1.31180400262609
C           -0.61012023622475        3.36009542483164        0.78217020198674
C           -1.85076570326338        2.75693129512737        0.69956364226115
C           -4.12533080727932        0.79382209080280        0.91466446721272
C           -5.36794063679758        0.18465451487787        0.80115297728625
H          -11.07689314570135       -4.50815810483890        0.99586134467583
H          -10.38577093991154       -6.84034585591239        0.47937593140417
H           -8.28919426603368       -7.24426329845478       -0.75979662987196
H           -6.89400653382692       -5.34344635747301       -1.48222876469409
H           -7.59688144068828       -3.03003373698124       -0.96947047431798
H           -9.99451928078964        0.82660260149711        0.12221477237043
H          -10.11047834474154        2.29761095045089       -1.87127731575368
H          -10.15634082284258        1.29853834745140       -4.12763409148415
H          -10.10605735289662       -1.15283103283969       -4.39476591621795
H           -9.98492490373437       -2.61085372880717       -2.40355290425111
H           -9.64421812014477       -1.53182836918251        3.30831085102158
H           -7.86783403394927       -0.58377120340343        4.73508919818185
H           -5.77717693695645        0.28178722696340        3.73200462272468
H           -5.53299857383074       -0.21220268240277       -2.59093488781325
H           -3.32093202588339        0.87862089095093       -2.37355323690476
H           -1.13106136738806        0.36410127446880       -1.56646734547492
H            1.06800180141825        1.43011581277331       -1.41468929364801
H            4.22686275055833        3.92331056532264       -1.16930608114513
H            6.13060978981617        2.44454951210015       -1.19439698770825
H            5.67065755619236       -1.28576186265524        1.60154588652211
H            7.56513530803453       -2.78057397288846        1.55700826163334
H            7.49492127126741       -4.48958349987389        0.03335864629636
H            7.89642149367875       -6.91267035126189        0.16936659851878
H           10.17433531875000       -7.81958055977308        0.17492991163561
H           12.13079225960786       -6.31897583964991       -0.00693478841071
H           13.81186848394360       -4.16718665959158       -0.25724523271757
H           14.79567900782739       -1.90468182385658       -0.42154155116660
H           13.36823043020319        0.08782658652064       -0.36722416852730
H           10.92183478103998       -0.10725487799415       -0.19792895854265
H            9.26236243959366       -0.57033892709251       -1.71175519833822
H            7.36587438871757        0.92297268972100       -1.70407435880690
H            3.90125079551633       -0.41317987900355        1.15497691749530
H            2.01874063825831        1.09374424974779        1.16412459311942
H            1.42857100555885        3.52677299235613       -2.80127429167994
H            1.52850488929472        5.52716493370061       -4.24383178924886
H            1.97705834265294        7.74098783096446       -3.28323078225150
H            2.32588080159440        8.00673711682005       -0.85208137519850
H            2.63418292392711        7.74188124975666        1.70730411526689
H            2.77676172790168        6.99740648784789        4.05921236982869
H            2.45617780724988        4.63419700479527        4.64021866976362
H            2.00045660097010        2.95824175180186        2.88763982064126
H           -0.47145630097491        4.20719379260357        1.43853278015279
H           -2.67173529339766        3.14525337264593        1.28474712837103
H           -3.73415897081921        1.05825275535778        1.88492266132668

          :  Hamiltonian                  GFN2-xTB          :
         :: gradient norm              0.000060342859 Eh/a0 ::
         :: HOMO-LUMO gap              0.104123997418 eV    ::
         :: SCC energy              -182.889389771358 Eh    ::
         :: -> dispersion             -0.169274773157 Eh    ::
         :: -> Gsolv                  -0.079883231176 Eh    ::
         :: repulsion energy           3.318190561357 Eh    ::

    * Orbital Energies and Occupations

         #    Occupation            Energy/Eh            Energy/eV
      -------------------------------------------------------------
         1        2.0000           -0.7423805             -20.2012
       ...           ...                  ...                  ...
       156        2.0000           -0.4052173             -11.0265
       157        2.0000           -0.4042021             -10.9989
       158        2.0000           -0.4035168             -10.9803
       159        2.0000           -0.4029824             -10.9657
       160        2.0000           -0.3978227             -10.8253
       161        2.0000           -0.3951832             -10.7535
       162        2.0000           -0.3917157             -10.6591
       163        2.0000           -0.3874873             -10.5441
       164        2.0000           -0.3853807             -10.4867
       165        2.0000           -0.3808721             -10.3641
       166        1.9999           -0.3776010             -10.2750
       167        1.0001           -0.3602710              -9.8035
       168        0.8822           -0.2671351              -7.2691 (HOMO)
       169        0.1178           -0.2633089              -7.1650 (LUMO)
       170        0.0000           -0.2535589              -6.8997
       171        0.0000           -0.2521999              -6.8627
       172        0.0000           -0.2501503              -6.8069
       173                         -0.2449656              -6.6659
       174                         -0.2422306              -6.5914
       175                         -0.2337282              -6.3601
       176                         -0.2324758              -6.3260
       177                         -0.2322076              -6.3187
       178                         -0.2304713              -6.2714
       179                         -0.2252979              -6.1307
       ...                                ...                  ...
       333                          1.1916688              32.4270
      -------------------------------------------------------------
                  HL-Gap            0.0038261 Eh            0.1041 eV

     #   Z          covCN         q      C6AA      α(0)
     1   8 O        0.808    -0.403    21.764     6.254
     2  15 P        4.052     0.056   157.769    22.563
     3   6 C        2.920     0.011    27.770     8.642
     4   6 C        3.020    -0.020    28.491     8.756
     5   6 C        2.918    -0.027    28.687     8.783
     6   6 C        2.920    -0.025    28.631     8.775
     7   6 C        2.919    -0.027    28.686     8.783
     8   6 C        2.979    -0.026    28.648     8.780
     9   6 C        2.921     0.019    27.595     8.614
    10   6 C        3.024    -0.017    28.400     8.741
    11   6 C        2.919    -0.026    28.660     8.779
    12   6 C        2.920    -0.025    28.624     8.774
    13   6 C        2.920    -0.026    28.657     8.779
    14   6 C        2.975    -0.022    28.553     8.765
    15   6 C        2.908    -0.021    28.520     8.757
    16   6 C        3.006    -0.030    28.739     8.794
    17   6 C        2.918    -0.039    28.974     8.827
    18   6 C        2.913    -0.037    28.921     8.818
    19   6 C        3.052    -0.024    28.547     8.763
    20   6 C        3.157     0.131    24.856     8.152
    21   8 O        1.714    -0.237    17.924     5.716
    22   6 C        3.099     0.123    25.179     8.223
    23   6 C        2.906    -0.053    29.326     8.880
    24   6 C        2.931    -0.039    28.969     8.827
    25   6 C        2.976     0.005    27.916     8.667
    26   6 C        2.977     0.008    27.835     8.654
    27   6 C        2.924    -0.036    28.894     8.815
    28   6 C        2.922    -0.034    28.842     8.807
    29   6 C        2.978     0.015    27.669     8.628
    30   6 C        3.946     0.011    20.325     6.406
    31   6 C        2.982     0.009    27.804     8.649
    32   6 C        2.913    -0.036    28.902     8.816
    33   6 C        2.917    -0.040    28.992     8.830
    34   6 C        2.965     0.002    27.969     8.675
    35   6 C        2.965     0.002    27.973     8.675
    36   6 C        2.914    -0.039    28.960     8.824
    37   6 C        2.909    -0.042    29.050     8.838
    38   6 C        2.909     0.040    27.110     8.538
    39   7 N        2.794     0.005    21.169     6.833
    40   6 C        3.067     0.041    27.007     8.522
    41   6 C        2.909    -0.040    29.002     8.831
    42   6 C        2.922    -0.035    28.880     8.813
    43   6 C        2.919    -0.033    28.819     8.803
    44   6 C        2.911    -0.031    28.767     8.795
    45   6 C        3.061    -0.013    28.274     8.720
    46   6 C        3.061    -0.013    28.275     8.720
    47   6 C        2.911    -0.031    28.767     8.795
    48   6 C        2.919    -0.033    28.818     8.803
    49   6 C        2.922    -0.035    28.880     8.813
    50   6 C        2.909    -0.040    29.001     8.830
    51   6 C        3.067     0.041    27.007     8.521
    52   6 C        2.909    -0.042    29.051     8.838
    53   6 C        2.914    -0.039    28.961     8.825
    54   6 C        2.917    -0.040    28.996     8.830
    55   6 C        2.913    -0.035    28.861     8.809
    56   6 C        3.056     0.004    27.871     8.658
    57   6 C        2.914    -0.034    28.856     8.809
    58   6 C        2.922    -0.033    28.834     8.806
    59   6 C        2.920    -0.034    28.837     8.806
    60   6 C        2.914    -0.035    28.883     8.813
    61   6 C        3.034     0.000    27.994     8.678
    62   6 C        3.034    -0.001    28.009     8.681
    63   6 C        2.914    -0.035    28.871     8.811
    64   6 C        2.920    -0.034    28.851     8.808
    65   6 C        2.922    -0.034    28.839     8.807
    66   6 C        2.914    -0.034    28.846     8.807
    67   6 C        3.060     0.005    27.853     8.655
    68   6 C        2.921    -0.036    28.898     8.815
    69   6 C        2.924    -0.035    28.878     8.813
    70   6 C        2.918    -0.040    28.995     8.830
    71   6 C        3.054    -0.022    28.492     8.754
    72   1 H        0.925     0.048     2.345     2.395
    73   1 H        0.926     0.044     2.402     2.424
    74   1 H        0.926     0.046     2.368     2.407
    75   1 H        0.926     0.044     2.393     2.419
    76   1 H        0.926     0.048     2.344     2.394
    77   1 H        0.925     0.032     2.558     2.501
    78   1 H        0.926     0.043     2.411     2.428
    79   1 H        0.926     0.047     2.356     2.400
    80   1 H        0.926     0.046     2.374     2.409
    81   1 H        0.925     0.038     2.475     2.460
    82   1 H        0.926     0.049     2.336     2.390
    83   1 H        0.926     0.045     2.377     2.411
    84   1 H        0.926     0.048     2.345     2.395
    85   1 H        0.926     0.046     2.374     2.410
    86   1 H        0.926     0.047     2.359     2.402
    87   1 H        0.926     0.036     2.509     2.477
    88   1 H        0.926     0.034     2.524     2.484
    89   1 H        0.926     0.025     2.658     2.550
    90   1 H        0.926     0.031     2.569     2.506
    91   1 H        0.926     0.038     2.471     2.458
    92   1 H        0.926     0.040     2.454     2.449
    93   1 H        0.926     0.043     2.404     2.424
    94   1 H        0.926     0.038     2.474     2.460
    95   1 H        0.926     0.038     2.479     2.462
    96   1 H        0.926     0.040     2.453     2.449
    97   1 H        0.926     0.040     2.453     2.449
    98   1 H        0.926     0.038     2.478     2.462
    99   1 H        0.926     0.038     2.474     2.460
   100   1 H        0.926     0.043     2.405     2.425
   101   1 H        0.926     0.040     2.454     2.450
   102   1 H        0.926     0.038     2.474     2.460
   103   1 H        0.926     0.032     2.555     2.500
   104   1 H        0.926     0.028     2.613     2.528
   105   1 H        0.926     0.031     2.569     2.506
   106   1 H        0.926     0.032     2.563     2.503
   107   1 H        0.926     0.031     2.568     2.506
   108   1 H        0.926     0.032     2.559     2.502
   109   1 H        0.926     0.032     2.553     2.499
   110   1 H        0.926     0.031     2.568     2.506
   111   1 H        0.926     0.032     2.564     2.504
   112   1 H        0.926     0.031     2.569     2.506
   113   1 H        0.926     0.031     2.577     2.511
   114   1 H        0.926     0.033     2.542     2.493
   115   1 H        0.926     0.044     2.398     2.422

molecular dipole:
                 x           y           z       tot (Debye)
 q only:        6.215      -0.516      -1.084
   full:        6.195      -0.453      -1.109      16.037

 projected vibrational frequencies (cm⁻¹)
eigval :       -0.00    -0.00     0.00     0.00     0.00     0.00
eigval :        3.58     8.79    10.33    15.01    16.02    20.57
eigval :       24.50    26.18    29.66    32.74    34.62    38.88
eigval :       42.54    50.65    55.48    58.11    64.98    71.61
eigval :       78.97    83.42    87.81    91.27    99.04   101.75
eigval :      114.60   118.23   119.53   135.14   138.85   145.83
eigval :      151.95   158.88   163.80   177.61   200.47   208.30
eigval :      215.40   219.52   229.11   236.85   239.24   245.21
eigval :      247.75   264.87   269.61   272.86   275.37   286.20
eigval :      293.04   299.56   303.12   326.44   338.25   355.11
eigval :      363.48   364.53   369.67   375.84   379.67   384.40
eigval :      388.08   391.44   397.46   400.03   401.75   410.93
eigval :      412.93   414.38   419.40   434.23   440.09   440.58
eigval :      451.84   453.33   464.00   471.88   475.87   495.74
eigval :      499.50   512.00   512.13   519.99   530.07   531.95
eigval :      537.29   539.69   543.95   547.75   570.37   576.21
eigval :      582.80   585.59   585.83   586.11   589.61   592.43
eigval :      597.84   600.32   610.49   615.09   622.30   641.22
eigval :      648.16   657.65   659.57   662.38   668.49   669.85
eigval :      680.24   683.75   689.40   692.81   699.84   705.20
eigval :      707.62   718.47   725.67   736.46   741.87   743.30
eigval :      748.77   753.38   758.47   764.80   768.02   773.14
eigval :      780.59   783.98   787.84   790.17   791.11   802.07
eigval :      803.27   826.07   832.62   841.45   865.95   866.56
eigval :      867.67   872.97   874.74   874.95   875.50   878.17
eigval :      879.14   882.52   891.62   892.51   893.08   895.86
eigval :      900.86   902.59   903.35   903.79   904.42   906.85
eigval :      908.31   910.50   910.75   911.83   913.99   917.00
eigval :      919.00   921.05   922.86   924.59   926.89   926.96
eigval :      929.78   931.93   932.42   933.01   933.20   957.75
eigval :      971.18   975.36   981.96   998.69  1003.31  1006.39
eigval :     1010.18  1032.99  1066.14  1069.69  1072.12  1074.13
eigval :     1075.23  1076.99  1079.29  1093.26  1103.98  1107.42
eigval :     1112.21  1113.15  1117.12  1126.46  1131.60  1133.51
eigval :     1137.76  1141.05  1143.47  1148.84  1159.61  1164.61
eigval :     1171.01  1173.29  1173.93  1175.68  1175.85  1177.32
eigval :     1178.58  1181.48  1188.68  1189.94  1195.76  1200.62
eigval :     1202.55  1204.42  1212.03  1215.52  1218.21  1220.26
eigval :     1227.78  1232.58  1233.44  1238.13  1242.70  1249.55
eigval :     1253.54  1259.95  1264.17  1267.84  1269.44  1271.69
eigval :     1274.62  1283.70  1284.44  1302.82  1308.44  1317.41
eigval :     1318.92  1321.31  1324.62  1326.99  1330.61  1334.57
eigval :     1340.12  1354.07  1358.95  1361.64  1364.58  1373.85
eigval :     1380.49  1390.13  1399.80  1401.24  1403.84  1412.90
eigval :     1420.47  1420.54  1423.48  1426.26  1431.66  1442.63
eigval :     1448.60  1452.11  1453.79  1454.89  1458.53  1464.53
eigval :     1465.21  1466.87  1477.97  1497.67  1498.47  1529.58
eigval :     1540.17  1544.00  1548.16  1551.80  1564.45  1565.95
eigval :     1570.22  1573.95  1575.34  1575.78  1577.64  1579.39
eigval :     1584.36  1584.49  1587.00  1592.59  1593.37  1599.23
eigval :     1601.90  3042.73  3064.89  3067.42  3068.28  3068.65
eigval :     3069.15  3069.72  3071.72  3072.07  3073.28  3073.80
eigval :     3074.36  3075.25  3076.36  3078.91  3079.11  3079.61
eigval :     3079.70  3080.21  3080.95  3081.04  3082.72  3083.96
eigval :     3084.49  3084.88  3086.50  3087.11  3088.63  3089.67
eigval :     3089.89  3090.31  3091.23  3094.12  3094.42  3094.69
eigval :     3094.97  3096.13  3097.16  3099.15  3101.14  3101.50
eigval :     3102.10  3106.16  3108.69

   temp. (K)  partition function   enthalpy   heat capacity  entropy
                                   cal/mol     cal/K/mol   cal/K/mol   J/K/mol
 298.15  VIB  0.259E+29            34279.985    213.277    215.935
         ROT  0.520E+09              888.752      2.981     42.865
         INT  0.135E+38            35168.738    216.258    258.801
         TR   0.273E+29             1481.254      4.968     46.331
         TOT                       36649.9917   221.2262   305.1321  1276.6728

       T/K    H(0)-H(T)+PV         H(T)/Eh          T*S/Eh         G(T)/Eh
   ------------------------------------------------------------------------
    298.15    0.584055E-01    0.933163E+00    0.144978E+00    0.788185E+00
   ------------------------------------------------------------------------

         :::::::::::::::::::::::::::::::::::::::::::::::::::::
         ::                  THERMODYNAMIC                  ::
         :::::::::::::::::::::::::::::::::::::::::::::::::::::
         :: total free energy        -178.783014065110 Eh   ::
         ::.................................................::
         :: total energy             -179.571199206965 Eh   ::
         :: zero point energy           0.874757782902 Eh   ::
         :: G(RRHO) w/o ZPVE           -0.086572641046 Eh   ::
         :: G(RRHO) contrib.            0.788185141855 Eh   ::
         :::::::::::::::::::::::::::::::::::::::::::::::::::::

           -------------------------------------------------
          | TOTAL ENERGY             -179.571199206965 Eh   |
          | TOTAL ENTHALPY           -178.638035944558 Eh   |
          | TOTAL FREE ENERGY        -178.783014065110 Eh   |
          | GRADIENT NORM               0.000060316028 Eh/α |
          | HOMO-LUMO GAP               0.104114716244 eV   |
           -------------------------------------------------

 * finished run on 2025/07/17 at 13:19:00.902
