   * xtb version 6.7.1 (edcfbbe) compiled by 'albert@albert-system' on 2024-07-22

   ID    Z sym.   atoms
    1    8 O      1, 21
    2   15 P      2
    3    6 C      3-20, 22-38, 40-71
    4    7 N      39
    5    1 H      72-115

          program call               : xtb data2507/toluene/9PhCzFDBFSPO/9PhCzFDBFSPO_toluene_S0_crest.xyz --gfn 2 --gbsa toluene --ohess vtight --parallel 40 --molden --ceasefiles --namespace data2507/toluene/9PhCzFDBFSPO/9PhCzFDBFSPO_toluene_S0_finalOpt
      * Solvation model:               GBSA
        Solvent                        toluene
        Solvent mass                       9.2140E+01 g/mol
          :  Hamiltonian                  GFN2-xTB          :
 * total energy  :  -179.6731366 Eh     change       -0.3179736E-08 Eh
 * total energy  :  -179.6732413 Eh     change       -0.1046549E-03 Eh
 * total energy  :  -179.6732875 Eh     change       -0.4619671E-04 Eh
 * total energy  :  -179.6733010 Eh     change       -0.1347527E-04 Eh
 * total energy  :  -179.6733133 Eh     change       -0.1236692E-04 Eh
 * total energy  :  -179.6733276 Eh     change       -0.1430349E-04 Eh
 * total energy  :  -179.6733328 Eh     change       -0.5144983E-05 Eh
 * total energy  :  -179.6733414 Eh     change       -0.8653268E-05 Eh
 * total energy  :  -179.6733464 Eh     change       -0.4989723E-05 Eh
 * total energy  :  -179.6733529 Eh     change       -0.6487815E-05 Eh
 * total energy  :  -179.6734063 Eh     change       -0.4507748E-06 Eh
 * total energy  :  -179.6734067 Eh     change       -0.4412361E-06 Eh
 * total energy  :  -179.6734071 Eh     change       -0.4235355E-06 Eh
 * total energy  :  -179.6734075 Eh     change       -0.3809112E-06 Eh
 * total energy  :  -179.6734079 Eh     change       -0.4248873E-06 Eh
 * total energy  :  -179.6734085 Eh     change       -0.5440543E-06 Eh
 * total energy  :  -179.6734092 Eh     change       -0.7063839E-06 Eh
 * total energy  :  -179.6734099 Eh     change       -0.7252200E-06 Eh
 * total energy  :  -179.6734099 Eh     change       -0.1811350E-07 Eh
   *** GEOMETRY OPTIMIZATION CONVERGED AFTER 44 ITERATIONS ***

 final structure:
================
115
 xtb: 6.7.1 (edcfbbe)
O          -11.23058570719353       -1.89605498135175        1.16549557830405
P           -9.93644974297037       -1.94263086010624        0.45675233149734
C           -9.40763181069440       -3.62925326360181        0.03369260266092
C          -10.22109949113235       -4.67879259304467        0.43779156243001
C           -9.85535160124181       -5.98444705278059        0.15946484381078
C           -8.67448560620322       -6.23903557421844       -0.51908909867673
C           -7.85980042196902       -5.19059983667274       -0.92072259124913
C           -8.22161641934163       -3.88462997715873       -0.64550909210204
C           -9.93219313386265       -0.95889565555379       -1.07823701577717
C           -9.95187539155663        0.42315632978431       -0.94218506069088
C           -9.99024388486114        1.22852254752867       -2.06535540883140
C          -10.01724645118749        0.65216162730627       -3.32606421538001
C          -10.01566183939171       -0.72633520261749       -3.46136766296068
C           -9.97494280974058       -1.53529780589735       -2.33807356204119
C           -8.58490765437720       -1.24144989443092        1.45290780143865
C           -8.73876740298677       -1.13911290722135        2.82909818904652
C           -7.74307592086328       -0.59771614660109        3.63461959475979
C           -6.56039712314332       -0.13055890854487        3.09042003635479
C           -6.38371359014818       -0.21604088561298        1.71502045573057
C           -7.39484656538959       -0.77946729307087        0.91247064183086
O           -7.05607166497958       -0.78313935563852       -0.40254677389064
C           -5.81961908208516       -0.20623485558039       -0.47830594357320
C           -5.08043715151520        0.01290590674252       -1.62624231229013
C           -3.84389699491180        0.61231578164981       -1.47810407983979
C           -3.34446432147416        0.99250354172791       -0.22500270239950
C           -2.02443977420641        1.63596039972679       -0.12539796431819
C           -0.94433758992521        1.17722053421663       -0.87588519536370
C            0.29301291627933        1.78251868876986       -0.77792296217099
C            0.49115884401180        2.86475298256034        0.07305673108637
C            1.83319854571837        3.56777450442273        0.11674365052482
C            3.00143645199203        2.60606649054018        0.02662975025614
C            4.16262866466284        2.94842442102579       -0.65470595867443
C            5.24555462181227        2.09050299803149       -0.67985404086306
C            5.20642419157936        0.86960630475367       -0.01108008562878
C            6.36019330843311       -0.04032060504880       -0.03524877092041
C            6.75730796122159       -0.71989682105172        1.11517589880018
C            7.84780520330478       -1.56628194072646        1.09895262510602
C            8.55964631257106       -1.76683452413249       -0.08045119501131
N            9.66388763458035       -2.63299272473675       -0.10313280614782
C            9.67851374368674       -3.93512022859088        0.35487185941520
C            8.64709130971459       -4.69748962435563        0.88589861770893
C            8.92739085225809       -6.00154880870271        1.24682037525948
C           10.19929617000337       -6.54604502446268        1.07846783532308
C           11.22356821390014       -5.80012927843566        0.52979662131225
C           10.96651379842866       -4.48610764445341        0.15923104961403
C           11.76413404626403       -3.45402249476399       -0.44203629990647
C           13.09141194135298       -3.38397490377028       -0.84638691538753
C           13.55947633445589       -2.19979421912872       -1.38036166292019
C           12.72593567854553       -1.08911986654130       -1.50021893783290
C           11.40247537620897       -1.13413120796721       -1.10547786861948
C           10.91962513540000       -2.32877490777144       -0.58899286649922
C            8.16565018569885       -1.10026706653253       -1.23737515218442
C            7.08423276712687       -0.24264903452323       -1.20909455523176
C            4.04574976703440        0.53562727702354        0.68346032516884
C            2.96162357676823        1.39047110802845        0.70167918842322
C            1.83164947836580        4.62637931080851       -0.97121366509061
C            1.66143549326558        4.46507265748013       -2.32994499331875
C            1.67797191769018        5.59114161361903       -3.14252337080505
C            1.85698227097750        6.85549505047760       -2.60143763128647
C            2.02054253716883        7.02481497291918       -1.23578192545983
C            2.00459917945321        5.90450642218321       -0.42072292653768
C            2.14206128598704        5.77353237251964        1.02116229227545
C            2.34255758247584        6.72923815564157        2.00409805637817
C            2.43533228381662        6.31594106486501        3.32360984283458
C            2.33487579925270        4.97282607360109        3.65456848382086
C            2.13490388449502        4.01108562495801        2.67292612065100
C            2.03361622845922        4.41689996180099        1.35909562927524
C           -0.58792360512086        3.33394496338338        0.81142404453244
C           -1.82468058744704        2.72432752977265        0.71979672650856
C           -4.10065769500271        0.76782122526824        0.91947922872227
C           -5.34294218940693        0.16443007644982        0.79360362486454
H          -11.13696884687325       -4.45020066552494        0.96520396122962
H          -10.49000415742241       -6.80082091034674        0.47169635294376
H           -8.38729891405299       -7.25717062619712       -0.73702029294626
H           -6.94035017025413       -5.39302202333103       -1.45051575362930
H           -7.59847224185341       -3.06102286266063       -0.96039570091586
H           -9.93553132418026        0.85408442572220        0.05154552636633
H           -9.99775017750239        2.30359710368538       -1.95909123709046
H          -10.04408237564966        1.28030193999534       -4.20434613526949
H          -10.04540513658892       -1.17431760929683       -4.44395860181379
H           -9.97329260633990       -2.61212944008884       -2.43610343344438
H           -9.66935882877593       -1.48296927573467        3.25824637167913
H           -7.90336122455513       -0.53729489857881        4.70054880455882
H           -5.79155639402747        0.29665974090184        3.71520557785679
H           -5.46358593428085       -0.26912220116062       -2.59414710228031
H           -3.25091178240604        0.81371822217519       -2.35724347366789
H           -1.06991693761653        0.32468695565986       -1.52740104881405
H            1.11883924489165        1.40174328239064       -1.36141878172258
H            4.22268113106475        3.89522432473683       -1.17150019495417
H            6.14258379387196        2.38282132934366       -1.20621003699061
H            6.22318730065519       -0.55968402615018        2.04010553125379
H            8.16391143085507       -2.06598633304413        2.00277320854088
H            7.65439303879492       -4.29023462632279        1.00512323791589
H            8.14200555724635       -6.61424397861063        1.66542728615116
H           10.37925861792652       -7.56887651433062        1.37586686941114
H           12.20510534344415       -6.22694675422255        0.38560618509064
H           13.74179501446576       -4.23945044194784       -0.73907327707807
H           14.58810838916780       -2.12515820885640       -1.70190201945377
H           13.12466661229846       -0.17136127403585       -1.90786590024076
H           10.76956217804482       -0.26327533037786       -1.18706502260608
H            8.70319080609704       -1.27003061068296       -2.15865273265891
H            6.77846710850295        0.25697403224312       -2.11653049175388
H            3.98491498356166       -0.41262496469666        1.19765562621001
H            2.06795338336643        1.10425276133681        1.23727480530287
H            1.52121430778367        3.48410454077010       -2.75896641599766
H            1.54957102496766        5.48021747003549       -4.20956249376082
H            1.86697411656766        7.71790945512836       -3.25252832436519
H            2.15620102765256        8.01083625112888       -0.81643953186815
H            2.42438103125442        7.77545136952397        1.74865293649619
H            2.59026066611190        7.04726714945526        4.10395823782008
H            2.41210014191719        4.67059464439273        4.68904587658816
H            2.05698660511623        2.96739094227031        2.93878037061514
H           -0.46164519489496        4.18528374209739        1.46442724227429
H           -2.65272310183466        3.11307151195287        1.29445137784202
H           -3.72215819211562        1.04129365995716        1.89206146172812

          :  Hamiltonian                  GFN2-xTB          :
         :: gradient norm              0.000106335286 Eh/a0 ::
         :: HOMO-LUMO gap              2.515405512324 eV    ::
         :: SCC energy              -183.012278407806 Eh    ::
         :: -> dispersion             -0.169241658801 Eh    ::
         :: -> Gsolv                  -0.078577660522 Eh    ::
         :: repulsion energy           3.338868479298 Eh    ::

    * Orbital Energies and Occupations

         #    Occupation            Energy/Eh            Energy/eV
      -------------------------------------------------------------
         1        2.0000           -0.7475418             -20.3416
       ...           ...                  ...                  ...
       155        2.0000           -0.4069893             -11.0747
       156        2.0000           -0.4066264             -11.0649
       157        2.0000           -0.4054009             -11.0315
       158        2.0000           -0.4048948             -11.0177
       159        2.0000           -0.4043716             -11.0035
       160        2.0000           -0.4009349             -10.9100
       161        2.0000           -0.3975709             -10.8185
       162        2.0000           -0.3960202             -10.7763
       163        2.0000           -0.3879828             -10.5575
       164        2.0000           -0.3822332             -10.4011
       165        2.0000           -0.3788814             -10.3099
       166        2.0000           -0.3777976             -10.2804
       167        2.0000           -0.3604962              -9.8096 (HOMO)
       168                         -0.2680567              -7.2942 (LUMO)
       169                         -0.2546099              -6.9283
       170                         -0.2536684              -6.9027
       171                         -0.2508933              -6.8272
       172                         -0.2478561              -6.7445
       173                         -0.2446222              -6.6565
       174                         -0.2429562              -6.6112
       175                         -0.2362641              -6.4291
       176                         -0.2347750              -6.3886
       177                         -0.2344633              -6.3801
       178                         -0.2296365              -6.2487
       ...                                ...                  ...
       333                          1.1892860              32.3621
      -------------------------------------------------------------
                  HL-Gap            0.0924395 Eh            2.5154 eV

     #   Z          covCN         q      C6AA      α(0)
     1   8 O        0.808    -0.402    21.738     6.250
     2  15 P        4.053     0.070   157.170    22.520
     3   6 C        2.921     0.011    27.775     8.642
     4   6 C        3.021    -0.020    28.473     8.753
     5   6 C        2.919    -0.026    28.664     8.780
     6   6 C        2.920    -0.023    28.588     8.768
     7   6 C        2.919    -0.027    28.665     8.780
     8   6 C        2.980    -0.026    28.635     8.778
     9   6 C        2.921     0.017    27.623     8.619
    10   6 C        3.024    -0.017    28.405     8.742
    11   6 C        2.919    -0.026    28.649     8.777
    12   6 C        2.920    -0.024    28.609     8.771
    13   6 C        2.920    -0.026    28.644     8.777
    14   6 C        2.976    -0.022    28.548     8.764
    15   6 C        2.908    -0.017    28.444     8.745
    16   6 C        3.010    -0.025    28.613     8.775
    17   6 C        2.919    -0.037    28.931     8.820
    18   6 C        2.913    -0.030    28.753     8.793
    19   6 C        3.053    -0.020    28.448     8.747
    20   6 C        3.155     0.132    24.844     8.151
    21   8 O        1.714    -0.231    17.831     5.701
    22   6 C        3.101     0.125    25.135     8.216
    23   6 C        2.907    -0.051    29.277     8.872
    24   6 C        2.932    -0.035    28.874     8.812
    25   6 C        2.976     0.007    27.863     8.659
    26   6 C        2.977     0.008    27.840     8.655
    27   6 C        2.924    -0.036    28.887     8.814
    28   6 C        2.922    -0.034    28.853     8.809
    29   6 C        2.979     0.016    27.641     8.624
    30   6 C        3.946     0.008    20.376     6.414
    31   6 C        2.979     0.016    27.652     8.626
    32   6 C        2.922    -0.036    28.904     8.816
    33   6 C        2.924    -0.035    28.881     8.813
    34   6 C        2.976     0.007    27.862     8.658
    35   6 C        2.976     0.008    27.831     8.654
    36   6 C        2.925    -0.033    28.834     8.806
    37   6 C        2.920    -0.043    29.070     8.842
    38   6 C        2.913     0.062    26.619     8.460
    39   7 N        2.802    -0.047    22.142     6.989
    40   6 C        3.076     0.048    26.854     8.496
    41   6 C        2.909    -0.052    29.292     8.875
    42   6 C        2.924    -0.035    28.880     8.813
    43   6 C        2.919    -0.043    29.070     8.842
    44   6 C        2.912    -0.035    28.875     8.811
    45   6 C        3.067    -0.019    28.414     8.741
    46   6 C        3.067    -0.019    28.415     8.741
    47   6 C        2.912    -0.035    28.875     8.811
    48   6 C        2.919    -0.043    29.069     8.842
    49   6 C        2.924    -0.035    28.880     8.813
    50   6 C        2.909    -0.052    29.290     8.874
    51   6 C        3.076     0.048    26.854     8.496
    52   6 C        2.920    -0.043    29.071     8.842
    53   6 C        2.925    -0.034    28.835     8.806
    54   6 C        2.924    -0.036    28.887     8.814
    55   6 C        2.922    -0.035    28.862     8.810
    56   6 C        3.057     0.004    27.882     8.660
    57   6 C        2.914    -0.034    28.857     8.809
    58   6 C        2.922    -0.033    28.830     8.805
    59   6 C        2.921    -0.034    28.839     8.806
    60   6 C        2.914    -0.035    28.872     8.811
    61   6 C        3.034     0.000    27.995     8.679
    62   6 C        3.034    -0.000    27.996     8.679
    63   6 C        2.914    -0.035    28.872     8.811
    64   6 C        2.921    -0.034    28.839     8.806
    65   6 C        2.922    -0.033    28.830     8.805
    66   6 C        2.914    -0.034    28.857     8.809
    67   6 C        3.057     0.004    27.883     8.660
    68   6 C        2.922    -0.036    28.895     8.815
    69   6 C        2.924    -0.035    28.877     8.812
    70   6 C        2.918    -0.038    28.936     8.821
    71   6 C        3.054    -0.019    28.421     8.743
    72   1 H        0.925     0.050     2.319     2.381
    73   1 H        0.926     0.045     2.381     2.413
    74   1 H        0.926     0.048     2.348     2.396
    75   1 H        0.926     0.046     2.368     2.407
    76   1 H        0.926     0.050     2.315     2.379
    77   1 H        0.925     0.033     2.542     2.493
    78   1 H        0.926     0.044     2.397     2.421
    79   1 H        0.926     0.048     2.347     2.396
    80   1 H        0.926     0.047     2.363     2.404
    81   1 H        0.925     0.039     2.459     2.452
    82   1 H        0.926     0.055     2.254     2.348
    83   1 H        0.926     0.051     2.302     2.373
    84   1 H        0.926     0.055     2.258     2.350
    85   1 H        0.926     0.050     2.320     2.382
    86   1 H        0.926     0.051     2.306     2.375
    87   1 H        0.926     0.036     2.496     2.471
    88   1 H        0.926     0.035     2.522     2.483
    89   1 H        0.926     0.030     2.581     2.512
    90   1 H        0.926     0.034     2.537     2.491
    91   1 H        0.926     0.041     2.435     2.440
    92   1 H        0.926     0.041     2.438     2.442
    93   1 H        0.926     0.030     2.589     2.516
    94   1 H        0.926     0.029     2.595     2.519
    95   1 H        0.926     0.027     2.629     2.536
    96   1 H        0.926     0.029     2.597     2.520
    97   1 H        0.926     0.029     2.597     2.520
    98   1 H        0.926     0.027     2.629     2.536
    99   1 H        0.926     0.029     2.596     2.520
   100   1 H        0.926     0.030     2.592     2.518
   101   1 H        0.926     0.041     2.439     2.442
   102   1 H        0.926     0.041     2.436     2.441
   103   1 H        0.926     0.035     2.518     2.482
   104   1 H        0.926     0.034     2.536     2.490
   105   1 H        0.926     0.032     2.562     2.503
   106   1 H        0.926     0.032     2.561     2.503
   107   1 H        0.926     0.031     2.570     2.507
   108   1 H        0.926     0.032     2.558     2.501
   109   1 H        0.926     0.032     2.558     2.501
   110   1 H        0.926     0.031     2.571     2.507
   111   1 H        0.926     0.032     2.563     2.503
   112   1 H        0.926     0.032     2.564     2.504
   113   1 H        0.926     0.031     2.568     2.506
   114   1 H        0.926     0.034     2.524     2.484
   115   1 H        0.926     0.048     2.340     2.392

molecular dipole:
                 x           y           z       tot (Debye)
 q only:        1.655       0.542      -0.838
   full:        1.682       0.580      -0.876       5.040

 projected vibrational frequencies (cm⁻¹)
eigval :       -0.00    -0.00    -0.00     0.00     0.00     0.00
eigval :        3.98     9.55    11.96    13.50    17.25    21.11
eigval :       23.66    28.09    29.76    34.97    36.09    39.61
eigval :       42.73    51.44    58.66    59.58    64.93    71.02
eigval :       76.49    80.59    87.65    90.88    97.85   101.25
eigval :      108.59   117.10   118.33   138.81   144.18   151.23
eigval :      155.74   157.44   168.71   177.82   199.97   210.29
eigval :      218.81   221.19   229.35   232.33   236.86   246.52
eigval :      253.49   265.51   269.15   271.69   272.68   289.69
eigval :      294.13   303.15   324.75   337.99   355.18   360.75
eigval :      364.91   369.57   375.00   381.10   386.99   388.38
eigval :      392.03   393.90   403.65   410.75   411.42   413.25
eigval :      415.76   417.89   423.19   431.41   440.66   451.84
eigval :      460.51   467.06   474.12   490.75   498.79   503.20
eigval :      515.08   518.27   522.03   530.01   533.44   538.14
eigval :      540.48   541.11   544.43   549.32   577.99   581.98
eigval :      585.76   586.03   588.32   595.66   596.47   601.27
eigval :      606.44   610.10   617.86   618.16   625.18   649.34
eigval :      659.12   661.60   665.58   672.75   681.46   685.04
eigval :      687.76   693.44   698.63   701.95   705.15   708.73
eigval :      712.99   720.89   730.60   740.53   743.09   747.02
eigval :      752.67   755.78   766.60   772.60   775.70   783.38
eigval :      784.05   797.51   803.28   807.95   828.67   830.80
eigval :      835.59   844.52   866.11   870.19   873.07   873.23
eigval :      875.73   876.47   876.96   878.85   880.13   881.08
eigval :      882.93   889.75   897.41   900.71   903.24   903.40
eigval :      904.16   907.00   907.74   908.33   910.23   917.57
eigval :      917.62   918.31   920.10   923.80   924.88   925.34
eigval :      926.86   927.40   928.05   930.56   931.40   932.13
eigval :      932.59   934.26   934.68   934.95   938.32   971.34
eigval :      975.70   995.92  1006.85  1010.99  1011.03  1022.93
eigval :     1035.36  1068.40  1071.79  1073.38  1075.13  1076.74
eigval :     1077.22  1080.13  1082.38  1093.35  1107.73  1112.03
eigval :     1113.52  1116.42  1120.87  1129.23  1134.18  1134.96
eigval :     1142.40  1146.27  1148.69  1150.73  1162.48  1174.21
eigval :     1174.50  1175.03  1177.43  1177.61  1177.91  1180.01
eigval :     1182.68  1182.99  1189.37  1190.57  1199.81  1202.48
eigval :     1203.23  1205.66  1208.96  1218.94  1223.34  1226.89
eigval :     1235.24  1236.74  1240.23  1242.59  1242.75  1254.70
eigval :     1261.54  1266.62  1269.56  1271.68  1276.19  1277.40
eigval :     1284.36  1295.44  1301.64  1303.78  1305.88  1313.82
eigval :     1314.25  1318.67  1320.75  1320.85  1325.38  1337.49
eigval :     1351.80  1355.65  1360.51  1364.23  1366.81  1384.99
eigval :     1391.81  1399.88  1412.18  1416.32  1421.01  1423.74
eigval :     1427.16  1427.41  1429.32  1430.32  1450.44  1453.94
eigval :     1454.60  1460.67  1470.85  1471.29  1474.33  1477.00
eigval :     1487.26  1499.54  1507.19  1557.15  1561.97  1567.40
eigval :     1570.66  1573.47  1580.46  1584.04  1584.23  1584.60
eigval :     1585.03  1586.74  1587.06  1588.66  1591.41  1592.91
eigval :     1596.87  1597.87  1600.32  1602.87  1604.39  1611.90
eigval :     1613.01  3042.69  3066.45  3068.44  3069.46  3069.57
eigval :     3069.77  3070.45  3071.04  3072.33  3074.24  3074.70
eigval :     3074.77  3075.08  3075.46  3075.49  3075.96  3076.24
eigval :     3076.75  3078.50  3080.21  3080.53  3080.60  3082.66
eigval :     3083.26  3083.72  3083.93  3084.30  3084.55  3086.97
eigval :     3087.86  3088.70  3089.56  3089.81  3089.89  3090.39
eigval :     3091.18  3091.34  3091.92  3092.24  3093.21  3095.70
eigval :     3097.29  3100.60  3103.41

   temp. (K)  partition function   enthalpy   heat capacity  entropy
                                   cal/mol     cal/K/mol   cal/K/mol   J/K/mol
 298.15  VIB  0.110E+29            33920.421    211.124    213.760
         ROT  0.520E+09              888.752      2.981     42.865
         INT  0.573E+37            34809.174    214.105    256.625
         TR   0.273E+29             1481.254      4.968     46.331
         TOT                       36290.4274   219.0731   302.9561  1267.5685

       T/K    H(0)-H(T)+PV         H(T)/Eh          T*S/Eh         G(T)/Eh
   ------------------------------------------------------------------------
    298.15    0.578325E-01    0.937332E+00    0.143944E+00    0.793388E+00
   ------------------------------------------------------------------------

         :::::::::::::::::::::::::::::::::::::::::::::::::::::
         ::                  THERMODYNAMIC                  ::
         :::::::::::::::::::::::::::::::::::::::::::::::::::::
         :: total free energy        -178.880021696297 Eh   ::
         ::.................................................::
         :: total energy             -179.673409932127 Eh   ::
         :: zero point energy           0.879499994737 Eh   ::
         :: G(RRHO) w/o ZPVE           -0.086111758907 Eh   ::
         :: G(RRHO) contrib.            0.793388235830 Eh   ::
         :::::::::::::::::::::::::::::::::::::::::::::::::::::

           -------------------------------------------------
          | TOTAL ENERGY             -179.673409932127 Eh   |
          | TOTAL ENTHALPY           -178.736077460082 Eh   |
          | TOTAL FREE ENERGY        -178.880021696297 Eh   |
          | GRADIENT NORM               0.000105947464 Eh/α |
          | HOMO-LUMO GAP               2.515405839469 eV   |
           -------------------------------------------------

 * finished run on 2025/07/17 at 13:18:32.437
