   * xtb version 6.7.1 (edcfbbe) compiled by 'albert@albert-system' on 2024-07-22

   ID    Z sym.   atoms
    1    6 C      1-9, 11-15, 17-20, 22-46
    2    7 N      10, 21
    3    8 O      16
    4    1 H      47-82

          program call               : xtb data2507/toluene/DMAC-BP/DMAC-BP_toluene_S0_finalOpt.xtbopt.xyz --gfn 2 --uhf 2 --gbsa toluene --ohess vtight --parallel 40 --molden --ceasefiles --namespace data2507/toluene/DMAC-BP/DMAC-BP_toluene_T1_preOpt
      * Solvation model:               GBSA
        Solvent                        toluene
        Solvent mass                       9.2140E+01 g/mol
          :  Hamiltonian                  GFN2-xTB          :
 * total energy  :  -120.3615685 Eh     change       -0.1032015E-07 Eh
 * total energy  :  -120.3649552 Eh     change       -0.3386756E-02 Eh
 * total energy  :  -120.3658882 Eh     change       -0.9329718E-03 Eh
 * total energy  :  -120.3660903 Eh     change       -0.2020694E-03 Eh
 * total energy  :  -120.3662883 Eh     change       -0.1979733E-03 Eh
 * total energy  :  -120.3664584 Eh     change       -0.1701172E-03 Eh
 * total energy  :  -120.3666041 Eh     change       -0.1457553E-03 Eh
 * total energy  :  -120.3666931 Eh     change       -0.8893377E-04 Eh
 * total energy  :  -120.3667488 Eh     change       -0.5570887E-04 Eh
 * total energy  :  -120.3668031 Eh     change       -0.5431846E-04 Eh
 * total energy  :  -120.3677798 Eh     change       -0.4028214E-06 Eh
 * total energy  :  -120.3677803 Eh     change       -0.4400762E-06 Eh
 * total energy  :  -120.3677808 Eh     change       -0.4937880E-06 Eh
 * total energy  :  -120.3677813 Eh     change       -0.5571408E-06 Eh
 * total energy  :  -120.3677819 Eh     change       -0.6106391E-06 Eh
 * total energy  :  -120.3677826 Eh     change       -0.6594975E-06 Eh
 * total energy  :  -120.3677833 Eh     change       -0.6865737E-06 Eh
 * total energy  :  -120.3677840 Eh     change       -0.7415184E-06 Eh
 * total energy  :  -120.3677840 Eh     change       -0.3188788E-08 Eh
   *** GEOMETRY OPTIMIZATION CONVERGED AFTER 94 ITERATIONS ***

 final structure:
================
82
 xtb: 6.7.1 (edcfbbe)
C           -8.55931158218807        1.62765980187172        1.07346280132619
C           -7.20429818163248        0.98967609770616        0.76533540990657
C           -6.49246191737072        0.70924362909547        2.10586546903276
C           -7.33450087230282       -0.31076041885185       -0.00718118162269
C           -8.51700848484669       -1.01382253996619       -0.16886350318885
C           -8.55298626919817       -2.19074210585044       -0.90022039743070
C           -7.40451167402374       -2.66750650255992       -1.50985373321842
C           -6.21401405935001       -1.98202726030489       -1.36539442818105
C           -6.16784958461679       -0.82594764424341       -0.59021890584396
N           -4.98396792742013       -0.08155409044969       -0.46262118278808
C           -3.77475585387385       -0.62419677674508       -0.06133405100721
C           -3.65217064236312       -1.99221993105232        0.25195358961956
C           -2.45235087733590       -2.51817165663658        0.65185877427679
C           -1.29000696673223       -1.72546253927351        0.75783049043817
C           -0.04839551020074       -2.33583352561872        1.20473087175079
O           -0.09863078757923       -3.41439936136579        1.88577297184869
C            1.22423182534366       -1.71941535555095        0.90520768229778
C            2.34647319501220       -2.05913726214633        1.69406915680173
C            3.58302509045077       -1.52165614022022        1.44718774875568
C            3.76101625630526       -0.63813570325177        0.37814208995228
N            5.03960002704680       -0.06564871810676        0.11898157133038
C            6.00467647262731       -0.83024144080556       -0.50201001451737
C            5.70068006243240       -2.14413295090540       -0.88951399542288
C            6.64665410105247       -2.93865407690646       -1.49633378543598
C            7.91687515789131       -2.43669319650996       -1.73821263405534
C            8.21511453589894       -1.13523963956009       -1.37761014868054
C            7.28237074269030       -0.30949412129191       -0.76473033126830
C            7.65810608961649        1.11405154845680       -0.41232127047900
C            8.04345229225297        1.85561269438934       -1.70780537040373
C            8.85539087474260        1.08691125853047        0.55856359173239
C            6.51519584360514        1.85196932145874        0.25145731110158
C            6.68524096816396        3.17265750958981        0.64475067364216
C            5.68132248926505        3.88441578394664        1.27569235976623
C            4.46834626636838        3.26602581293278        1.54057187379382
C            4.26919213899675        1.95843663072666        1.15996468005269
C            5.27683122745094        1.23835143443209        0.50059670035771
C            2.67748947828574       -0.33200210444591       -0.44913543158747
C            1.43651857973187       -0.86359793263986       -0.19563522945428
C           -1.45306351716707       -0.33761641162147        0.57361010343457
C           -2.65320918969713        0.19475157475915        0.17870644066967
C           -5.18928416974793        1.29245535823409       -0.66851120663241
C           -4.36062546331741        2.02841312136237       -1.51190836601960
C           -4.61546567640911        3.36804342764602       -1.73139279518513
C           -5.70693763289498        3.97007242719850       -1.12752274146694
C           -6.55787632671151        3.22657447355951       -0.32500204448718
C           -6.32126004628083        1.88228888121990       -0.08793780562503
H           -9.15401925330389        0.95987561238051        1.69115099749002
H           -8.41910002877458        2.54743687887325        1.63523012021453
H           -9.10504894897373        1.84779316848385        0.15882209665059
H           -5.51867515890544        0.24938376882426        1.95931648033922
H           -7.09812427371705        0.03809102522400        2.71110316427451
H           -6.35183448097551        1.64040182286772        2.65063682290635
H           -9.42927585213543       -0.65170205083555        0.27572675268438
H           -9.48463062421282       -2.72540333515408       -1.00794009937676
H           -7.43627161717363       -3.56490067156321       -2.10935709600244
H           -5.32303831230771       -2.31997847475351       -1.87280080035532
H           -4.51470666767493       -2.63785456493401        0.20763003884786
H           -2.36861320664591       -3.56783315944648        0.89448824371910
H            2.19158635243341       -2.74776504840527        2.51255212507158
H            4.42688750920524       -1.77148548285245        2.07471061564291
H            4.71034976240118       -2.53137292325113       -0.70835884630805
H            6.39238039723746       -3.94790361745457       -1.78319902749157
H            8.66674428857175       -3.05261146090231       -2.21065235300087
H            9.20423637379612       -0.75735262113490       -1.58429593793428
H            8.34194680799470        2.87722261313215       -1.49237907296227
H            7.19459464769983        1.88018167666915       -2.38862601678590
H            8.86885982388638        1.35612428408217       -2.20615509727569
H            9.15818167294548        2.09504340188753        0.82536986720439
H            8.58348385020855        0.55661258704220        1.46945770912544
H            9.70535173229965        0.58320881692450        0.10808253517477
H            7.62679782378952        3.66503825693700        0.45804509902938
H            5.84616025749250        4.91053431809114        1.56675087729338
H            3.67891495071259        3.80222389050816        2.04534829382956
H            3.32973591010837        1.47336122939385        1.37298875452748
H            2.83033367529405        0.31870399467863       -1.29888615811066
H            0.62153424640635       -0.65483856990675       -0.87229414785331
H           -0.62974975991632        0.32655104796596        0.78980060012212
H           -2.74205587321264        1.26626699350978        0.09380710647828
H           -3.53879245890298        1.53827072383597       -2.01171741702404
H           -3.96998742506052        3.93625264054176       -2.38416220722786
H           -5.90791703317711        5.01760618875407       -1.29401674837930
H           -7.41249707826845        3.71298705326551        0.11545562507074

          :  Hamiltonian                  GFN2-xTB          :
         :: gradient norm              0.000045742578 Eh/a0 ::
         :: HOMO-LUMO gap              0.881718398044 eV    ::
         :: SCC energy              -122.493943557651 Eh    ::
         :: -> dispersion             -0.112374817081 Eh    ::
         :: -> Gsolv                  -0.062418585923 Eh    ::
         :: repulsion energy           2.126159538897 Eh    ::

    * Orbital Energies and Occupations

         #    Occupation            Energy/Eh            Energy/eV
      -------------------------------------------------------------
         1        2.0000           -0.6798288             -18.4991
       ...           ...                  ...                  ...
       101        2.0000           -0.4102758             -11.1642
       102        2.0000           -0.4076384             -11.0924
       103        2.0000           -0.4066213             -11.0647
       104        2.0000           -0.4043393             -11.0026
       105        2.0000           -0.4041419             -10.9973
       106        2.0000           -0.4038650             -10.9897
       107        2.0000           -0.4034231             -10.9777
       108        2.0000           -0.4017339             -10.9317
       109        2.0000           -0.3915509             -10.6546
       110        1.9456           -0.3611961              -9.8286
       111        1.5901           -0.3588294              -9.7642
       112        1.4643           -0.3583474              -9.7511
       113        1.0000           -0.2709168              -7.3720 (HOMO)
       114                         -0.2385141              -6.4903 (LUMO)
       115                         -0.2362577              -6.4289
       116                         -0.2336837              -6.3589
       117                         -0.2305912              -6.2747
       118                         -0.2301946              -6.2639
       119                         -0.2299738              -6.2579
       120                         -0.2258398              -6.1454
       121                         -0.2185358              -5.9467
       122                         -0.2163858              -5.8882
       123                         -0.2140191              -5.8238
       124                         -0.2026296              -5.5138
       ...                                ...                  ...
       220                          0.6778529              18.4453
      -------------------------------------------------------------
                  HL-Gap            0.0324026 Eh            0.8817 eV

     #   Z          covCN         q      C6AA      α(0)
     1   6 C        3.759    -0.111    22.665     6.787
     2   6 C        3.911     0.024    20.120     6.376
     3   6 C        3.761    -0.100    22.451     6.755
     4   6 C        2.987    -0.003    28.094     8.695
     5   6 C        2.922    -0.037    28.915     8.818
     6   6 C        2.919    -0.034    28.855     8.809
     7   6 C        2.919    -0.032    28.800     8.800
     8   6 C        2.919    -0.043    29.069     8.841
     9   6 C        2.953     0.054    26.783     8.488
    10   7 N        2.753    -0.033    21.884     6.948
    11   6 C        2.909     0.053    26.814     8.491
    12   6 C        2.916    -0.052    29.280     8.873
    13   6 C        2.922    -0.031    28.767     8.796
    14   6 C        2.966    -0.016    28.414     8.744
    15   6 C        2.832     0.158    24.573     8.123
    16   8 O        0.858    -0.544    24.791     6.676
    17   6 C        2.967    -0.025    28.631     8.777
    18   6 C        2.924    -0.033    28.834     8.806
    19   6 C        2.914    -0.043    29.072     8.842
    20   6 C        2.928     0.035    27.212     8.555
    21   7 N        2.754    -0.024    21.715     6.921
    22   6 C        2.929     0.062    26.612     8.460
    23   6 C        2.923    -0.048    29.187     8.859
    24   6 C        2.918    -0.029    28.719     8.788
    25   6 C        2.917    -0.034    28.836     8.806
    26   6 C        2.925    -0.034    28.845     8.808
    27   6 C        2.978    -0.003    28.104     8.696
    28   6 C        3.909     0.024    20.117     6.375
    29   6 C        3.761    -0.107    22.591     6.776
    30   6 C        3.761    -0.107    22.589     6.775
    31   6 C        2.978    -0.003    28.103     8.696
    32   6 C        2.925    -0.034    28.843     8.807
    33   6 C        2.917    -0.034    28.840     8.806
    34   6 C        2.918    -0.029    28.722     8.788
    35   6 C        2.923    -0.048    29.193     8.860
    36   6 C        2.930     0.062    26.616     8.461
    37   6 C        2.915    -0.043    29.072     8.842
    38   6 C        2.918    -0.046    29.147     8.853
    39   6 C        2.918    -0.042    29.037     8.836
    40   6 C        2.917    -0.052    29.284     8.874
    41   6 C        2.953     0.054    26.787     8.489
    42   6 C        2.919    -0.043    29.072     8.842
    43   6 C        2.919    -0.032    28.803     8.801
    44   6 C        2.919    -0.034    28.859     8.809
    45   6 C        2.922    -0.037    28.911     8.818
    46   6 C        2.987    -0.003    28.095     8.695
    47   1 H        0.925     0.048     2.351     2.398
    48   1 H        0.925     0.048     2.345     2.394
    49   1 H        0.925     0.044     2.397     2.421
    50   1 H        0.925     0.033     2.538     2.492
    51   1 H        0.925     0.044     2.399     2.422
    52   1 H        0.925     0.045     2.389     2.417
    53   1 H        0.926     0.052     2.299     2.371
    54   1 H        0.926     0.041     2.438     2.442
    55   1 H        0.926     0.040     2.451     2.448
    56   1 H        0.926     0.042     2.421     2.433
    57   1 H        0.926     0.038     2.473     2.459
    58   1 H        0.926     0.029     2.595     2.519
    59   1 H        0.926     0.027     2.627     2.535
    60   1 H        0.926     0.029     2.597     2.520
    61   1 H        0.926     0.038     2.472     2.459
    62   1 H        0.926     0.038     2.471     2.458
    63   1 H        0.926     0.041     2.430     2.438
    64   1 H        0.926     0.048     2.344     2.394
    65   1 H        0.925     0.051     2.309     2.376
    66   1 H        0.925     0.036     2.504     2.475
    67   1 H        0.925     0.050     2.315     2.379
    68   1 H        0.925     0.051     2.313     2.378
    69   1 H        0.925     0.035     2.514     2.480
    70   1 H        0.925     0.051     2.313     2.379
    71   1 H        0.926     0.048     2.347     2.396
    72   1 H        0.926     0.042     2.427     2.436
    73   1 H        0.926     0.039     2.457     2.451
    74   1 H        0.926     0.039     2.463     2.454
    75   1 H        0.926     0.032     2.561     2.502
    76   1 H        0.926     0.030     2.587     2.515
    77   1 H        0.926     0.032     2.565     2.505
    78   1 H        0.926     0.042     2.429     2.437
    79   1 H        0.926     0.043     2.410     2.428
    80   1 H        0.926     0.041     2.438     2.442
    81   1 H        0.926     0.041     2.434     2.440
    82   1 H        0.926     0.052     2.300     2.372

molecular dipole:
                 x           y           z       tot (Debye)
 q only:        0.243       3.829      -1.837
   full:        0.243       3.691      -1.841      10.502

 projected vibrational frequencies (cm⁻¹)
eigval :       -0.00    -0.00    -0.00     0.00     0.00     0.00
eigval :       -7.58     7.95    13.40    21.74    30.20    33.02
eigval :       52.45    58.11    61.83    65.59    84.41    97.12
eigval :      100.43   111.42   118.81   133.98   134.85   144.67
eigval :      156.14   172.72   185.41   186.36   191.15   191.88
eigval :      213.86   217.74   231.57   236.00   255.70   280.22
eigval :      282.76   297.45   303.92   311.34   324.71   325.80
eigval :      333.15   340.10   341.92   358.74   364.01   372.18
eigval :      374.89   382.72   390.49   397.34   399.17   409.06
eigval :      418.98   441.22   448.90   455.63   461.29   468.56
eigval :      496.09   503.41   504.61   515.35   524.94   542.72
eigval :      547.83   551.40   559.56   567.14   571.32   580.96
eigval :      586.35   592.59   600.79   610.61   616.42   644.48
eigval :      660.12   666.32   676.36   687.69   689.77   701.93
eigval :      703.04   722.42   726.86   755.98   773.50   776.32
eigval :      778.05   780.30   794.03   804.60   809.39   824.26
eigval :      833.98   847.90   871.50   872.83   879.68   881.81
eigval :      883.85   894.00   902.96   905.90   909.13   910.03
eigval :      911.81   915.33   915.68   916.14   916.69   924.83
eigval :      926.95   927.48   932.39   936.10   937.73   942.66
eigval :      944.40   957.38   967.44   996.70  1004.31  1008.44
eigval :     1009.69  1072.02  1072.63  1076.46  1083.07  1097.11
eigval :     1103.66  1105.23  1111.40  1126.98  1134.74  1136.73
eigval :     1147.05  1148.86  1149.87  1156.72  1166.59  1170.68
eigval :     1171.31  1179.94  1181.81  1183.20  1185.48  1189.50
eigval :     1199.43  1220.44  1228.34  1237.28  1240.65  1250.51
eigval :     1256.13  1257.10  1262.45  1262.91  1266.58  1269.90
eigval :     1283.97  1292.07  1306.12  1309.40  1317.26  1321.96
eigval :     1325.28  1327.11  1328.00  1333.94  1334.26  1395.07
eigval :     1395.65  1398.94  1411.93  1412.76  1414.31  1416.67
eigval :     1422.22  1427.10  1428.92  1433.16  1439.46  1445.10
eigval :     1451.00  1453.97  1465.69  1466.64  1473.89  1475.95
eigval :     1480.89  1482.18  1488.41  1491.05  1491.49  1496.46
eigval :     1502.53  1517.55  1534.35  1551.11  1559.86  1563.94
eigval :     1566.57  1573.72  1576.94  1580.47  1587.37  1589.44
eigval :     3026.01  3027.94  3028.53  3030.25  3034.75  3035.17
eigval :     3046.75  3048.65  3048.73  3049.37  3053.68  3057.26
eigval :     3065.51  3067.48  3079.01  3079.98  3080.14  3080.52
eigval :     3081.23  3082.30  3082.88  3085.68  3086.69  3088.03
eigval :     3089.53  3089.90  3095.51  3096.49  3099.22  3100.17
eigval :     3100.63  3102.75  3107.71  3108.25  3114.87  3115.23

   temp. (K)  partition function   enthalpy   heat capacity  entropy
                                   cal/mol     cal/K/mol   cal/K/mol   J/K/mol
 298.15  VIB  0.371E+18            22988.090    147.098    141.960
         ROT  0.918E+08              888.752      2.981     39.417
         INT  0.340E+26            23876.842    150.079    181.378
         TR   0.141E+29             1481.254      4.968     45.022
         TOT                       25358.0958   155.0472   226.3999   947.2572

       T/K    H(0)-H(T)+PV         H(T)/Eh          T*S/Eh         G(T)/Eh
   ------------------------------------------------------------------------
    298.15    0.404107E-01    0.691843E+00    0.107570E+00    0.584273E+00
   ------------------------------------------------------------------------

         :::::::::::::::::::::::::::::::::::::::::::::::::::::
         ::                  THERMODYNAMIC                  ::
         :::::::::::::::::::::::::::::::::::::::::::::::::::::
         :: total free energy        -119.783511165049 Eh   ::
         ::.................................................::
         :: total energy             -120.367784022043 Eh   ::
         :: zero point energy           0.651432055369 Eh   ::
         :: G(RRHO) w/o ZPVE           -0.067159198375 Eh   ::
         :: G(RRHO) contrib.            0.584272856994 Eh   ::
         :::::::::::::::::::::::::::::::::::::::::::::::::::::

           -------------------------------------------------
          | TOTAL ENERGY             -120.367784022043 Eh   |
          | TOTAL ENTHALPY           -119.675941268742 Eh   |
          | TOTAL FREE ENERGY        -119.783511165049 Eh   |
          | GRADIENT NORM               0.000045754036 Eh/α |
          | HOMO-LUMO GAP               0.881720920431 eV   |
           -------------------------------------------------

 * finished run on 2025/09/14 at 06:46:37.362
