   * xtb version 6.7.1 (edcfbbe) compiled by 'albert@albert-system' on 2024-07-22

   ID    Z sym.   atoms
    1    6 C      1-9, 11-15, 17-20, 22-46
    2    7 N      10, 21
    3    8 O      16
    4    1 H      47-82

          program call               : xtb data2507/toluene/DMAC-BP/DMAC-BP_toluene_S0_crest.xyz --gfn 2 --gbsa toluene --ohess vtight --parallel 40 --molden --ceasefiles --namespace data2507/toluene/DMAC-BP/DMAC-BP_toluene_S0_finalOpt
      * Solvation model:               GBSA
        Solvent                        toluene
        Solvent mass                       9.2140E+01 g/mol
          :  Hamiltonian                  GFN2-xTB          :
 * total energy  :  -120.4473953 Eh     change       -0.5912824E-08 Eh
 * total energy  :  -120.4474993 Eh     change       -0.1039812E-03 Eh
 * total energy  :  -120.4475302 Eh     change       -0.3091067E-04 Eh
 * total energy  :  -120.4475400 Eh     change       -0.9836210E-05 Eh
 * total energy  :  -120.4475510 Eh     change       -0.1099398E-04 Eh
 * total energy  :  -120.4475607 Eh     change       -0.9667399E-05 Eh
 * total energy  :  -120.4475670 Eh     change       -0.6317604E-05 Eh
 * total energy  :  -120.4475719 Eh     change       -0.4904098E-05 Eh
 * total energy  :  -120.4475759 Eh     change       -0.4046540E-05 Eh
 * total energy  :  -120.4475784 Eh     change       -0.2497279E-05 Eh
 * total energy  :  -120.4475981 Eh     change       -0.8561264E-06 Eh
 * total energy  :  -120.4475991 Eh     change       -0.1016964E-05 Eh
 * total energy  :  -120.4476002 Eh     change       -0.1082504E-05 Eh
 * total energy  :  -120.4476012 Eh     change       -0.1025844E-05 Eh
 * total energy  :  -120.4476021 Eh     change       -0.8930113E-06 Eh
 * total energy  :  -120.4476029 Eh     change       -0.7349479E-06 Eh
 * total energy  :  -120.4476035 Eh     change       -0.5790887E-06 Eh
 * total energy  :  -120.4476039 Eh     change       -0.4619693E-06 Eh
 * total energy  :  -120.4476039 Eh     change       -0.4519009E-08 Eh
   *** GEOMETRY OPTIMIZATION CONVERGED AFTER 44 ITERATIONS ***

 final structure:
================
82
 xtb: 6.7.1 (edcfbbe)
C           -8.44179871135809        1.45409584793311        1.29155797734765
C           -7.09058566736207        0.86123627602745        0.89102384381336
C           -6.39868375035847        0.34330667334266        2.16892980685937
C           -7.23000193346971       -0.28553259479669       -0.09639614276116
C           -8.42328813530387       -0.92606645543085       -0.39412228001036
C           -8.46676278834410       -1.95409156786328       -1.32149472181341
C           -7.31847284395263       -2.33801672945251       -1.99162907807266
C           -6.11998566104594       -1.70540534384322       -1.71762503884652
C           -6.06964171137928       -0.70713794005285       -0.75263916699325
N           -4.86891052762679       -0.01171900519991       -0.48663091411817
C           -3.70270004346786       -0.62975351962796       -0.11231942519493
C           -3.62904896376096       -2.02867908545273        0.01117343134603
C           -2.45868043958507       -2.64263954028420        0.38065554715226
C           -1.29618220203818       -1.90601681618010        0.63382954809376
C           -0.06698813112675       -2.60903861879430        1.00774598156735
O           -0.07577751978371       -3.74253640809776        1.47895432679955
C            1.22158069725886       -1.89904217491054        0.78160711746533
C            2.24875569999549       -2.03786843556721        1.71240748600720
C            3.47038892047658       -1.42783749532308        1.50637975123520
C            3.69234211461153       -0.69316037244795        0.34552747361896
N            4.95297595107578       -0.08122082682206        0.11514825467383
C            6.02767748883624       -0.87164994859880       -0.26791756672551
C            5.85516282965433       -2.25085588104235       -0.42151558263432
C            6.90668890105710       -3.06271311481581       -0.79238908039354
C            8.15289679820077       -2.51082440556410       -1.02882396046429
C            8.32008541307700       -1.14408657490361       -0.90155474562261
C            7.27980072695540       -0.30361317835009       -0.52787039026989
C            7.52754667309939        1.19049542048986       -0.43289439874634
C            7.97451958031291        1.70258343730233       -1.81517500393938
C            8.62981549737629        1.44579072324161        0.61243602551541
C            6.27979233176358        1.94414059024054       -0.01232897405363
C            6.33256061533659        3.32407345364557        0.13298272826475
C            5.23652722678054        4.06397070081734        0.53734188553001
C            4.05065525538873        3.41202158640867        0.82410544779888
C            3.97032540449279        2.04189970189994        0.68742998057369
C            5.06940934467376        1.29441363449930        0.25284224588282
C            2.67717749196336       -0.56906167527711       -0.59810786406847
C            1.44874387895074       -1.16179727603524       -0.37916902748170
C           -1.38749701658682       -0.51109457074482        0.59057698923824
C           -2.56288669045217        0.11135312252684        0.24526344448508
C           -5.06292180853144        1.38751340898933       -0.46053394022575
C           -4.22849897587218        2.24366522129576       -1.16830997417024
C           -4.46902039774005        3.60545937520366       -1.15748113763729
C           -5.55684158087615        4.10541896177980       -0.46392678202535
C           -6.41634624427778        3.24538569796624        0.19979271142165
C           -6.18822887817610        1.87764344120949        0.21063370299867
H           -9.05090872655068        0.69798326157764        1.78032147965327
H           -8.29934710954331        2.26280478036941        2.00373769087022
H           -8.97520033070503        1.83413163528563        0.42307612732485
H           -5.42604010875336       -0.09172480536322        1.95620684227399
H           -7.01722665209324       -0.41854170737046        2.63893716901831
H           -6.25982134328984        1.16244180882283        2.87140147925662
H           -9.33667934889665       -0.63100916935457        0.09571664398462
H           -9.40526029679630       -2.44522434564574       -1.53149298367538
H           -7.35526424663564       -3.11945986900862       -2.73590680692123
H           -5.22434107640962       -1.97146488984505       -2.25915261189578
H           -4.50637450447977       -2.63153239157106       -0.15945508684640
H           -2.41294014440397       -3.71847392864770        0.47162273030549
H            2.06889302181326       -2.62304183538727        2.60253057517574
H            4.26299980433042       -1.52583612127558        2.23346102785312
H            4.88439175159499       -2.69061997955991       -0.25157255985675
H            6.74713100024488       -4.12582618853952       -0.89924194201767
H            8.98477740649753       -3.13545718199062       -1.31797673089495
H            9.29415285450376       -0.72468388785494       -1.10311083650059
H            8.16425496492315        2.77206539143444       -1.78939093901453
H            7.19611985308233        1.50936276550797       -2.55161217304723
H            8.88358525010050        1.20311072611625       -2.13829191438222
H            8.85543038765220        2.50586884608841        0.68770860047676
H            8.30192510258137        1.09404389024522        1.58939102999337
H            9.54399561349828        0.92148633396702        0.34843130373973
H            7.25602991903909        3.84366757886701       -0.07350959988166
H            5.31208858535320        5.13648312140681        0.63634349583159
H            3.18606770813268        3.96707633472999        1.15778631796574
H            3.04535599604894        1.53952906670225        0.92533770699205
H            2.86040065699177       -0.00578605223773       -1.50131271113701
H            0.67012666951899       -1.07781771339684       -1.12244642008035
H           -0.53492692964345        0.09106579517603        0.86743333476345
H           -2.61082617341997        1.18789219136617        0.27528857141187
H           -3.40720501179520        1.83926261576489       -1.74072657940697
H           -3.81502526074220        4.27027220691904       -1.70177233989097
H           -5.74926439640873        5.16788546197431       -0.45163310312931
H           -7.27023198200476        3.65854337668968        0.71109350906068

          :  Hamiltonian                  GFN2-xTB          :
         :: gradient norm              0.000037403277 Eh/a0 ::
         :: HOMO-LUMO gap              1.662796179202 eV    ::
         :: SCC energy              -122.589960391341 Eh    ::
         :: -> dispersion             -0.112737780050 Eh    ::
         :: -> Gsolv                  -0.051024958799 Eh    ::
         :: repulsion energy           2.142356469890 Eh    ::

    * Orbital Energies and Occupations

         #    Occupation            Energy/Eh            Energy/eV
      -------------------------------------------------------------
         1        2.0000           -0.7014089             -19.0863
       ...           ...                  ...                  ...
       100        2.0000           -0.4135125             -11.2522
       101        2.0000           -0.4121360             -11.2148
       102        2.0000           -0.4067833             -11.0691
       103        2.0000           -0.4062242             -11.0539
       104        2.0000           -0.4053030             -11.0289
       105        2.0000           -0.4025664             -10.9544
       106        2.0000           -0.4024040             -10.9500
       107        2.0000           -0.4016034             -10.9282
       108        2.0000           -0.3970196             -10.8035
       109        2.0000           -0.3916607             -10.6576
       110        2.0000           -0.3894312             -10.5970
       111        2.0000           -0.3611652              -9.8278
       112        2.0000           -0.3459663              -9.4142 (HOMO)
       113                         -0.2848597              -7.7514 (LUMO)
       114                         -0.2414816              -6.5710
       115                         -0.2395681              -6.5190
       116                         -0.2317649              -6.3066
       117                         -0.2292001              -6.2369
       118                         -0.2253176              -6.1312
       119                         -0.2235105              -6.0820
       120                         -0.2232821              -6.0758
       121                         -0.2228602              -6.0643
       122                         -0.2182887              -5.9399
       123                         -0.2172678              -5.9122
       ...                                ...                  ...
       220                          0.6791486              18.4806
      -------------------------------------------------------------
                  HL-Gap            0.0611066 Eh            1.6628 eV

     #   Z          covCN         q      C6AA      α(0)
     1   6 C        3.759    -0.109    22.639     6.783
     2   6 C        3.910     0.023    20.128     6.377
     3   6 C        3.761    -0.099    22.444     6.753
     4   6 C        2.987    -0.005    28.141     8.702
     5   6 C        2.923    -0.038    28.943     8.822
     6   6 C        2.919    -0.036    28.902     8.816
     7   6 C        2.920    -0.033    28.832     8.805
     8   6 C        2.920    -0.046    29.131     8.851
     9   6 C        2.952     0.054    26.787     8.489
    10   7 N        2.754    -0.059    22.378     7.026
    11   6 C        2.911     0.076    26.302     8.410
    12   6 C        2.920    -0.057    29.417     8.894
    13   6 C        2.923    -0.018    28.465     8.749
    14   6 C        2.970    -0.034    28.831     8.807
    15   6 C        2.829     0.222    23.336     7.916
    16   8 O        0.858    -0.445    22.591     6.373
    17   6 C        2.972    -0.013    28.343     8.733
    18   6 C        2.923    -0.019    28.473     8.750
    19   6 C        2.919    -0.037    28.916     8.818
    20   6 C        2.927     0.075    26.335     8.416
    21   7 N        2.754    -0.073    22.657     7.069
    22   6 C        2.927     0.058    26.689     8.472
    23   6 C        2.924    -0.060    29.490     8.905
    24   6 C        2.919    -0.035    28.866     8.810
    25   6 C        2.917    -0.046    29.151     8.854
    26   6 C        2.928    -0.038    28.939     8.822
    27   6 C        2.979    -0.014    28.354     8.735
    28   6 C        3.909     0.021    20.165     6.383
    29   6 C        3.761    -0.103    22.522     6.765
    30   6 C        3.761    -0.103    22.523     6.765
    31   6 C        2.979    -0.014    28.352     8.734
    32   6 C        2.928    -0.038    28.936     8.822
    33   6 C        2.917    -0.046    29.154     8.854
    34   6 C        2.919    -0.035    28.870     8.811
    35   6 C        2.924    -0.060    29.490     8.906
    36   6 C        2.927     0.058    26.691     8.472
    37   6 C        2.920    -0.037    28.926     8.820
    38   6 C        2.921    -0.026    28.663     8.780
    39   6 C        2.919    -0.027    28.686     8.783
    40   6 C        2.921    -0.058    29.442     8.898
    41   6 C        2.951     0.054    26.789     8.489
    42   6 C        2.920    -0.046    29.143     8.853
    43   6 C        2.919    -0.033    28.833     8.805
    44   6 C        2.919    -0.036    28.900     8.816
    45   6 C        2.923    -0.038    28.941     8.822
    46   6 C        2.987    -0.005    28.138     8.701
    47   1 H        0.925     0.045     2.380     2.412
    48   1 H        0.925     0.045     2.378     2.412
    49   1 H        0.925     0.041     2.431     2.438
    50   1 H        0.925     0.033     2.539     2.492
    51   1 H        0.925     0.042     2.423     2.434
    52   1 H        0.925     0.042     2.418     2.432
    53   1 H        0.926     0.047     2.353     2.399
    54   1 H        0.926     0.037     2.489     2.467
    55   1 H        0.926     0.037     2.492     2.468
    56   1 H        0.926     0.039     2.457     2.451
    57   1 H        0.926     0.043     2.406     2.425
    58   1 H        0.926     0.041     2.429     2.437
    59   1 H        0.926     0.047     2.357     2.401
    60   1 H        0.926     0.049     2.328     2.386
    61   1 H        0.926     0.023     2.692     2.566
    62   1 H        0.926     0.026     2.649     2.545
    63   1 H        0.926     0.026     2.649     2.545
    64   1 H        0.926     0.033     2.546     2.495
    65   1 H        0.925     0.042     2.424     2.435
    66   1 H        0.925     0.030     2.588     2.516
    67   1 H        0.925     0.041     2.429     2.437
    68   1 H        0.925     0.042     2.425     2.435
    69   1 H        0.925     0.030     2.591     2.517
    70   1 H        0.925     0.042     2.429     2.437
    71   1 H        0.926     0.033     2.550     2.497
    72   1 H        0.926     0.026     2.644     2.543
    73   1 H        0.926     0.027     2.628     2.535
    74   1 H        0.926     0.023     2.685     2.562
    75   1 H        0.926     0.051     2.309     2.376
    76   1 H        0.926     0.049     2.337     2.391
    77   1 H        0.926     0.038     2.474     2.460
    78   1 H        0.926     0.046     2.374     2.409
    79   1 H        0.926     0.041     2.437     2.441
    80   1 H        0.926     0.037     2.483     2.464
    81   1 H        0.926     0.037     2.487     2.466
    82   1 H        0.926     0.047     2.353     2.399

molecular dipole:
                 x           y           z       tot (Debye)
 q only:       -1.915       2.166      -0.666
   full:       -1.866       2.110      -0.691       7.372

 projected vibrational frequencies (cm⁻¹)
eigval :       -0.00    -0.00    -0.00     0.00     0.00     0.00
eigval :        5.71    11.23    15.50    25.48    32.47    36.21
eigval :       47.70    57.11    62.20    65.69    82.24    96.86
eigval :      100.59   103.40   132.04   133.11   135.82   147.49
eigval :      153.28   169.96   181.08   190.78   193.12   194.32
eigval :      212.56   219.03   229.57   238.18   261.05   271.96
eigval :      286.42   295.78   307.07   313.03   325.48   330.64
eigval :      335.42   343.52   345.64   361.96   373.77   375.06
eigval :      379.87   390.21   393.96   404.15   407.88   409.71
eigval :      431.79   448.19   450.35   456.57   477.78   481.01
eigval :      491.11   501.00   514.61   516.51   541.88   546.76
eigval :      554.19   560.03   571.37   574.51   582.21   590.42
eigval :      594.43   604.57   614.53   620.48   647.61   650.53
eigval :      673.67   681.96   690.17   693.24   694.03   707.06
eigval :      726.06   728.67   733.19   763.50   772.13   776.81
eigval :      777.22   784.70   809.92   816.72   821.10   828.12
eigval :      857.63   865.05   867.70   874.99   884.27   887.69
eigval :      891.15   906.59   906.70   912.46   913.07   914.39
eigval :      916.70   918.94   919.05   920.79   922.84   923.06
eigval :      925.18   932.24   937.75   939.38   943.49   944.70
eigval :      955.16   956.71   967.50  1010.20  1010.58  1013.37
eigval :     1028.56  1072.95  1075.96  1078.72  1085.17  1099.19
eigval :     1105.65  1111.97  1117.66  1131.02  1137.05  1139.07
eigval :     1151.41  1152.71  1158.41  1168.55  1173.63  1178.85
eigval :     1182.12  1182.29  1184.69  1185.39  1189.10  1195.19
eigval :     1203.92  1217.06  1229.38  1243.98  1247.85  1256.58
eigval :     1261.82  1263.66  1266.30  1270.33  1272.36  1276.46
eigval :     1290.46  1292.87  1308.13  1315.32  1318.47  1323.65
eigval :     1324.89  1332.84  1335.62  1338.43  1349.06  1396.81
eigval :     1397.95  1399.39  1414.51  1417.95  1423.48  1434.50
eigval :     1437.58  1438.97  1442.08  1452.31  1470.75  1473.47
eigval :     1476.08  1486.69  1487.55  1489.52  1491.58  1493.20
eigval :     1494.90  1496.91  1502.39  1504.17  1520.10  1535.74
eigval :     1558.27  1572.52  1573.28  1574.87  1581.84  1583.61
eigval :     1587.48  1589.16  1590.19  1597.29  1600.43  1634.31
eigval :     3020.59  3023.07  3026.98  3029.22  3032.73  3032.96
eigval :     3039.17  3041.14  3047.57  3048.01  3051.56  3051.61
eigval :     3071.33  3071.42  3077.98  3078.25  3078.74  3079.10
eigval :     3081.31  3081.73  3083.43  3084.78  3084.85  3085.51
eigval :     3089.62  3090.08  3091.94  3093.96  3094.73  3095.50
eigval :     3097.55  3098.71  3109.15  3111.21  3112.79  3113.93

   temp. (K)  partition function   enthalpy   heat capacity  entropy
                                   cal/mol     cal/K/mol   cal/K/mol   J/K/mol
 298.15  VIB  0.204E+18            22770.438    145.670    140.562
         ROT  0.895E+08              888.752      2.981     39.368
         INT  0.183E+26            23659.191    148.651    179.930
         TR   0.141E+29             1481.254      4.968     45.022
         TOT                       25140.4446   153.6195   224.9520   941.1992

       T/K    H(0)-H(T)+PV         H(T)/Eh          T*S/Eh         G(T)/Eh
   ------------------------------------------------------------------------
    298.15    0.400638E-01    0.694978E+00    0.106882E+00    0.588096E+00
   ------------------------------------------------------------------------

         :::::::::::::::::::::::::::::::::::::::::::::::::::::
         ::                  THERMODYNAMIC                  ::
         :::::::::::::::::::::::::::::::::::::::::::::::::::::
         :: total free energy        -119.859507896292 Eh   ::
         ::.................................................::
         :: total energy             -120.447603916745 Eh   ::
         :: zero point energy           0.654914133668 Eh   ::
         :: G(RRHO) w/o ZPVE           -0.066818113214 Eh   ::
         :: G(RRHO) contrib.            0.588096020453 Eh   ::
         :::::::::::::::::::::::::::::::::::::::::::::::::::::

           -------------------------------------------------
          | TOTAL ENERGY             -120.447603916745 Eh   |
          | TOTAL ENTHALPY           -119.752625934466 Eh   |
          | TOTAL FREE ENERGY        -119.859507896292 Eh   |
          | GRADIENT NORM               0.000037408837 Eh/α |
          | HOMO-LUMO GAP               1.662796008564 eV   |
           -------------------------------------------------

 * finished run on 2025/09/14 at 06:46:24.168
