   * xtb version 6.7.1 (edcfbbe) compiled by 'albert@albert-system' on 2024-07-22

   ID    Z sym.   atoms
    1    6 C      1-9, 11-15, 17-20, 22-46
    2    7 N      10, 21
    3    8 O      16
    4    1 H      47-82

          program call               : xtb data2507/toluene/DMAC-BP/DMAC-BP_toluene_T1_crest.xyz --gfn 2 --uhf 2 --gbsa toluene --ohess vtight --parallel 40 --molden --ceasefiles --namespace data2507/toluene/DMAC-BP/DMAC-BP_toluene_T1_finalOpt
      * Solvation model:               GBSA
        Solvent                        toluene
        Solvent mass                       9.2140E+01 g/mol
          :  Hamiltonian                  GFN2-xTB          :
 * total energy  :  -120.3756784 Eh     change       -0.8685134E-08 Eh
 * total energy  :  -120.3758181 Eh     change       -0.1396822E-03 Eh
 * total energy  :  -120.3758563 Eh     change       -0.3821437E-04 Eh
 * total energy  :  -120.3758682 Eh     change       -0.1185383E-04 Eh
 * total energy  :  -120.3758781 Eh     change       -0.9957034E-05 Eh
 * total energy  :  -120.3758861 Eh     change       -0.8018970E-05 Eh
 * total energy  :  -120.3758908 Eh     change       -0.4687381E-05 Eh
 * total energy  :  -120.3758959 Eh     change       -0.5068807E-05 Eh
 * total energy  :  -120.3759018 Eh     change       -0.5889435E-05 Eh
 * total energy  :  -120.3759086 Eh     change       -0.6771441E-05 Eh
 * total energy  :  -120.3759940 Eh     change       -0.4412089E-06 Eh
 * total energy  :  -120.3759944 Eh     change       -0.4504756E-06 Eh
 * total energy  :  -120.3759948 Eh     change       -0.3221855E-06 Eh
 * total energy  :  -120.3759950 Eh     change       -0.2302495E-06 Eh
 * total energy  :  -120.3759952 Eh     change       -0.2402535E-06 Eh
 * total energy  :  -120.3759955 Eh     change       -0.2804908E-06 Eh
 * total energy  :  -120.3759959 Eh     change       -0.3704920E-06 Eh
 * total energy  :  -120.3759963 Eh     change       -0.3686909E-06 Eh
 * total energy  :  -120.3759963 Eh     change       -0.2391261E-09 Eh
   *** GEOMETRY OPTIMIZATION CONVERGED AFTER 68 ITERATIONS ***

 final structure:
================
82
 xtb: 6.7.1 (edcfbbe)
C           -8.02035196456530       -2.02245543145406        1.70651712869654
C           -7.67614128590929       -0.67246062379353        1.04643414648878
C           -8.92612856658898        0.22840562606986        0.99891315244912
C           -6.61315949075309        0.01697947772954        1.87521123462688
C           -6.87004209546077        0.32963874875652        3.20332857888861
C           -5.93618667944952        0.96734041613523        3.99959654652083
C           -4.70428469997393        1.31436925692260        3.46486203460409
C           -4.42086425125928        1.01826652027958        2.15088576765010
C           -5.36177658716156        0.36454761804608        1.34137440758346
N           -5.04471084984262        0.07991220210116        0.03039164282008
C           -3.77013574294042        0.47383875772158       -0.47350496161360
C           -3.62912048115597        1.67705039103404       -1.16891682406785
C           -2.39978124755084        2.05097703141427       -1.64894267714604
C           -1.25379999215167        1.25407752398115       -1.43822112744679
C            0.00526820198465        1.68767081476448       -2.01214559958756
O            0.00446523180495        2.50202358094635       -2.99441878567640
C            1.26659460824536        1.20334116025243       -1.48413390784463
C            2.40596693240381        1.24664375198486       -2.31598785604958
C            3.63444833592298        0.83192846412141       -1.86819830378075
C            3.78148774493365        0.37749830128320       -0.55553276117916
N            5.05221255336130       -0.06645786042683       -0.08535274147196
C            5.33041165992838       -1.41681451095498       -0.08993592683600
C            4.36117502084472       -2.31840262101577       -0.55431432417053
C            4.60543620841301       -3.67288087980930       -0.56861953593640
C            5.82581754899730       -4.15825127934520       -0.12255930737658
C            6.78813963925567       -3.27267679990499        0.32735397638382
C            6.57124718873489       -1.90160234224740        0.35375148206156
C            7.66530195488337       -0.97750179752363        0.84474702936131
C            8.90716678432488       -1.16424031503277       -0.04920186147080
C            8.00270966894494       -1.34153808920366        2.30435468526868
C            7.24297547451971        0.47556498737284        0.79408713607313
C            8.12630272198017        1.46410697351719        1.20619418316506
C            7.78518736200655        2.80431653754516        1.18999225057708
C            6.52289383490709        3.18355425034649        0.75780257801930
C            5.62560529692653        2.22628399491747        0.34176251021614
C            5.97116929751612        0.86663663488506        0.34488375482058
C            2.67959668211003        0.37774991194899        0.30125473471793
C            1.44742187993647        0.78770179427857       -0.15056253784545
C           -1.42724495712401        0.02488466960568       -0.77240333866633
C           -2.65986655937233       -0.35304794585474       -0.29484619292782
C           -5.92950103934847       -0.55771316389994       -0.81273135121612
C           -5.54167225684505       -0.84269586265581       -2.13048029239906
C           -6.40422077518395       -1.47093357302768       -2.99988869587719
C           -7.67353126412002       -1.83132847625828       -2.57210396815366
C           -8.05667693684033       -1.56200424612741       -1.27076399049176
C           -7.20862150909364       -0.93198465121080       -0.37005231011343
H           -8.37403840712022       -1.87512363313681        2.72252663605022
H           -8.79458483298274       -2.53854746771492        1.14677004496143
H           -7.13628764437152       -2.65668694914274        1.73737380660443
H           -8.68080151542035        1.17996629847003        0.53068063832847
H           -9.29868337161128        0.42375133714773        2.00005966781485
H           -9.71889773716326       -0.24263334037732        0.42542925752687
H           -7.82480216068103        0.07205949270726        3.63448143317747
H           -6.16839880173328        1.19513376357040        5.02870203676462
H           -3.96609945047277        1.81727802588963        4.07122501696491
H           -3.46605446667131        1.29236547614149        1.73053392013861
H           -4.49443793180170        2.30607167688400       -1.32297378710362
H           -2.27349740095737        2.97451397182368       -2.19580521723424
H            2.27478511262445        1.60750221763589       -3.32618968260057
H            4.49398330253675        0.85041189991239       -2.52317325337774
H            3.41549677312312       -1.93811269332838       -0.90711518251646
H            3.84549419253524       -4.34945160495564       -0.92960248113865
H            6.02726440329559       -5.21858195184364       -0.12923420223811
H            7.73377912701359       -3.66708668223701        0.66499484745503
H            8.66736962254834       -0.90103577653314       -1.07782343960554
H            9.24569551355393       -2.19580162935313       -0.02836406481833
H            9.72237840108191       -0.53044533932509        0.28671097962398
H            8.79653086687876       -0.70632834895648        2.68584363801112
H            7.12371675603312       -1.20949728764236        2.93267359385908
H            8.32674307039179       -2.37535387599889        2.37824655009949
H            9.11004342049373        1.18693969186624        1.55163094237781
H            8.49664325967557        3.54773135013698        1.51558525833816
H            6.23775257231863        4.22471956436730        0.74573012702854
H            4.64219245449212        2.51936424651799        0.00897036670474
H            2.80877916646630        0.06496948105606        1.32798858699487
H            0.61838926699824        0.83029158679418        0.53950384417186
H           -0.59162340131083       -0.65113536128286       -0.67228991337979
H           -2.78306568369207       -1.30123797874202        0.20960320983505
H           -4.55342254958107       -0.56344883175601       -2.46079701337081
H           -6.08655505360227       -1.67969855769785       -4.01035130736426
H           -8.35807246019304       -2.32191261589620       -3.24707497044062
H           -9.04562166170786       -1.85440549465580       -0.95390152168252

          :  Hamiltonian                  GFN2-xTB          :
         :: gradient norm              0.000033786170 Eh/a0 ::
         :: HOMO-LUMO gap              0.949980576155 eV    ::
         :: SCC energy              -122.504402558433 Eh    ::
         :: -> dispersion             -0.111821380121 Eh    ::
         :: -> Gsolv                  -0.062960561391 Eh    ::
         :: repulsion energy           2.128406298060 Eh    ::

    * Orbital Energies and Occupations

         #    Occupation            Energy/Eh            Energy/eV
      -------------------------------------------------------------
         1        2.0000           -0.6799328             -18.5019
       ...           ...                  ...                  ...
       101        2.0000           -0.4152468             -11.2994
       102        2.0000           -0.4102462             -11.1634
       103        2.0000           -0.4102128             -11.1625
       104        2.0000           -0.4047745             -11.0145
       105        2.0000           -0.4042974             -11.0015
       106        2.0000           -0.4042403             -10.9999
       107        2.0000           -0.4025065             -10.9528
       108        2.0000           -0.3936135             -10.7108
       109        2.0000           -0.3920628             -10.6686
       110        1.9316           -0.3611175              -9.8265
       111        1.6413           -0.3591892              -9.7740
       112        1.4272           -0.3583584              -9.7514
       113        1.0000           -0.2732717              -7.4361 (HOMO)
       114                         -0.2383609              -6.4861 (LUMO)
       115                         -0.2383467              -6.4857
       116                         -0.2306035              -6.2750
       117                         -0.2305148              -6.2726
       118                         -0.2299399              -6.2570
       119                         -0.2298964              -6.2558
       120                         -0.2279038              -6.2016
       121                         -0.2196263              -5.9763
       122                         -0.2180284              -5.9329
       123                         -0.2030067              -5.5241
       124                         -0.2028124              -5.5188
       ...                                ...                  ...
       220                          0.6763620              18.4047
      -------------------------------------------------------------
                  HL-Gap            0.0349108 Eh            0.9500 eV

     #   Z          covCN         q      C6AA      α(0)
     1   6 C        3.761    -0.107    22.592     6.776
     2   6 C        3.909     0.024    20.118     6.375
     3   6 C        3.761    -0.107    22.586     6.775
     4   6 C        2.978    -0.004    28.107     8.696
     5   6 C        2.925    -0.034    28.843     8.807
     6   6 C        2.917    -0.034    28.844     8.807
     7   6 C        2.918    -0.029    28.722     8.788
     8   6 C        2.923    -0.048    29.199     8.861
     9   6 C        2.930     0.062    26.612     8.460
    10   7 N        2.754    -0.026    21.746     6.926
    11   6 C        2.928     0.038    27.159     8.546
    12   6 C        2.914    -0.043    29.061     8.840
    13   6 C        2.925    -0.032    28.807     8.802
    14   6 C        2.967    -0.022    28.557     8.765
    15   6 C        2.834     0.159    24.562     8.122
    16   8 O        0.858    -0.544    24.781     6.674
    17   6 C        2.967    -0.022    28.546     8.764
    18   6 C        2.925    -0.032    28.804     8.801
    19   6 C        2.914    -0.043    29.060     8.840
    20   6 C        2.928     0.038    27.154     8.546
    21   7 N        2.754    -0.026    21.744     6.926
    22   6 C        2.930     0.062    26.613     8.460
    23   6 C        2.923    -0.048    29.200     8.862
    24   6 C        2.918    -0.029    28.722     8.788
    25   6 C        2.917    -0.034    28.844     8.807
    26   6 C        2.925    -0.034    28.843     8.807
    27   6 C        2.978    -0.004    28.107     8.696
    28   6 C        3.909     0.024    20.118     6.375
    29   6 C        3.761    -0.107    22.589     6.775
    30   6 C        3.761    -0.107    22.590     6.776
    31   6 C        2.978    -0.004    28.108     8.697
    32   6 C        2.925    -0.034    28.844     8.807
    33   6 C        2.917    -0.034    28.841     8.807
    34   6 C        2.918    -0.029    28.719     8.788
    35   6 C        2.923    -0.048    29.192     8.860
    36   6 C        2.930     0.062    26.611     8.460
    37   6 C        2.915    -0.043    29.067     8.841
    38   6 C        2.919    -0.045    29.116     8.849
    39   6 C        2.919    -0.045    29.122     8.849
    40   6 C        2.915    -0.043    29.069     8.841
    41   6 C        2.930     0.062    26.610     8.460
    42   6 C        2.923    -0.048    29.191     8.860
    43   6 C        2.918    -0.029    28.719     8.788
    44   6 C        2.917    -0.034    28.841     8.807
    45   6 C        2.925    -0.034    28.844     8.807
    46   6 C        2.978    -0.004    28.108     8.697
    47   1 H        0.925     0.051     2.310     2.377
    48   1 H        0.925     0.050     2.314     2.379
    49   1 H        0.925     0.036     2.504     2.474
    50   1 H        0.925     0.035     2.516     2.481
    51   1 H        0.925     0.050     2.314     2.379
    52   1 H        0.925     0.050     2.316     2.380
    53   1 H        0.926     0.048     2.348     2.396
    54   1 H        0.926     0.041     2.430     2.438
    55   1 H        0.926     0.039     2.461     2.453
    56   1 H        0.926     0.038     2.473     2.459
    57   1 H        0.926     0.030     2.582     2.513
    58   1 H        0.926     0.029     2.608     2.525
    59   1 H        0.926     0.029     2.606     2.525
    60   1 H        0.926     0.031     2.578     2.511
    61   1 H        0.926     0.038     2.474     2.460
    62   1 H        0.926     0.039     2.461     2.453
    63   1 H        0.926     0.041     2.430     2.438
    64   1 H        0.926     0.048     2.348     2.396
    65   1 H        0.925     0.035     2.515     2.480
    66   1 H        0.925     0.050     2.314     2.379
    67   1 H        0.925     0.050     2.315     2.379
    68   1 H        0.925     0.050     2.315     2.379
    69   1 H        0.925     0.036     2.505     2.475
    70   1 H        0.925     0.051     2.311     2.377
    71   1 H        0.926     0.048     2.346     2.395
    72   1 H        0.926     0.041     2.431     2.438
    73   1 H        0.926     0.038     2.471     2.458
    74   1 H        0.926     0.037     2.483     2.464
    75   1 H        0.926     0.033     2.539     2.492
    76   1 H        0.926     0.032     2.561     2.502
    77   1 H        0.926     0.032     2.563     2.503
    78   1 H        0.926     0.033     2.540     2.492
    79   1 H        0.926     0.037     2.484     2.465
    80   1 H        0.926     0.038     2.471     2.458
    81   1 H        0.926     0.041     2.431     2.438
    82   1 H        0.926     0.048     2.345     2.395

molecular dipole:
                 x           y           z       tot (Debye)
 q only:       -0.001      -2.850       3.377
   full:       -0.000      -2.759       3.270      10.875

 projected vibrational frequencies (cm⁻¹)
eigval :       -0.00     0.00     0.00     0.00     0.00     0.00
eigval :       -2.68     6.49    12.28    22.13    24.51    28.10
eigval :       37.71    50.83    60.25    65.66    82.40    92.59
eigval :       96.56   101.31   102.48   122.68   129.99   134.38
eigval :      137.63   167.10   170.71   182.17   198.50   202.59
eigval :      215.28   216.51   220.36   233.33   234.15   236.58
eigval :      279.51   300.13   305.84   306.20   324.67   327.04
eigval :      333.85   337.04   340.94   341.71   372.45   377.76
eigval :      378.98   384.43   393.76   396.30   405.74   409.33
eigval :      424.39   427.38   448.56   448.83   464.61   475.30
eigval :      504.11   504.66   511.46   514.79   531.94   542.25
eigval :      542.36   546.25   563.45   564.11   580.68   584.22
eigval :      592.25   594.66   605.89   609.99   618.50   650.42
eigval :      663.63   670.13   681.97   687.78   687.81   701.25
eigval :      701.56   702.24   730.59   759.45   771.22   773.15
eigval :      773.98   776.23   793.01   804.53   825.27   826.04
eigval :      841.73   857.24   864.22   868.83   871.68   873.05
eigval :      883.24   893.83   900.33   907.41   908.73   911.19
eigval :      911.78   911.93   912.77   914.21   917.88   920.05
eigval :      923.58   923.84   924.24   932.73   936.13   936.68
eigval :      944.46   957.57   958.01   999.76  1007.02  1012.54
eigval :     1014.34  1073.71  1074.30  1083.21  1083.83  1103.92
eigval :     1105.08  1110.72  1111.04  1125.33  1130.81  1136.70
eigval :     1136.81  1147.70  1147.82  1157.30  1163.02  1167.34
eigval :     1171.55  1181.29  1181.49  1181.69  1182.35  1186.61
eigval :     1199.75  1214.43  1235.00  1239.28  1240.42  1240.53
eigval :     1254.40  1254.70  1256.52  1257.61  1263.11  1291.93
eigval :     1291.97  1305.89  1308.37  1312.16  1312.53  1321.96
eigval :     1325.73  1327.68  1327.74  1333.86  1334.00  1397.22
eigval :     1397.53  1404.30  1405.36  1415.88  1416.09  1417.25
eigval :     1417.34  1426.45  1427.26  1430.85  1442.90  1454.12
eigval :     1454.16  1455.52  1473.66  1477.55  1479.89  1481.54
eigval :     1481.98  1483.52  1483.70  1484.02  1492.04  1493.44
eigval :     1496.79  1497.98  1548.34  1551.52  1551.58  1563.79
eigval :     1565.64  1577.18  1577.19  1587.36  1588.72  1593.95
eigval :     3026.15  3026.35  3028.13  3028.29  3047.17  3048.06
eigval :     3049.19  3049.87  3054.23  3054.99  3057.96  3058.59
eigval :     3066.34  3067.34  3068.73  3069.27  3080.69  3081.20
eigval :     3082.22  3082.50  3082.98  3083.08  3086.03  3088.43
eigval :     3088.88  3089.31  3089.49  3089.51  3098.79  3099.10
eigval :     3099.25  3099.48  3106.33  3106.82  3107.14  3108.71

   temp. (K)  partition function   enthalpy   heat capacity  entropy
                                   cal/mol     cal/K/mol   cal/K/mol   J/K/mol
 298.15  VIB  0.588E+19            23203.580    146.592    145.371
         ROT  0.944E+08              888.752      2.981     39.474
         INT  0.556E+27            24092.332    149.573    184.845
         TR   0.141E+29             1481.254      4.968     45.022
         TOT                       25573.5859   154.5415   229.8671   961.7641

       T/K    H(0)-H(T)+PV         H(T)/Eh          T*S/Eh         G(T)/Eh
   ------------------------------------------------------------------------
    298.15    0.407541E-01    0.691770E+00    0.109217E+00    0.582553E+00
   ------------------------------------------------------------------------

         :::::::::::::::::::::::::::::::::::::::::::::::::::::
         ::                  THERMODYNAMIC                  ::
         :::::::::::::::::::::::::::::::::::::::::::::::::::::
         :: total free energy        -119.793443743160 Eh   ::
         ::.................................................::
         :: total energy             -120.375996264150 Eh   ::
         :: zero point energy           0.651015707915 Eh   ::
         :: G(RRHO) w/o ZPVE           -0.068463186925 Eh   ::
         :: G(RRHO) contrib.            0.582552520990 Eh   ::
         :::::::::::::::::::::::::::::::::::::::::::::::::::::

           -------------------------------------------------
          | TOTAL ENERGY             -120.375996264150 Eh   |
          | TOTAL ENTHALPY           -119.684226452924 Eh   |
          | TOTAL FREE ENERGY        -119.793443743160 Eh   |
          | GRADIENT NORM               0.000035973095 Eh/α |
          | HOMO-LUMO GAP               0.949971896489 eV   |
           -------------------------------------------------

 * finished run on 2025/09/14 at 06:53:08.849
