   * xtb version 6.7.1 (edcfbbe) compiled by 'albert@albert-system' on 2024-07-22

   ID    Z sym.   atoms
    1    6 C      1-9, 11-15, 17-20, 22-46
    2    7 N      10, 21
    3    8 O      16
    4    1 H      47-82

          program call               : xtb data2507/toluene/DMAC-BP/DMAC-BP.xyz --gfn 2 --gbsa toluene --ohess vtight --parallel 40 --molden --ceasefiles --namespace data2507/toluene/DMAC-BP/DMAC-BP_toluene_S0_preOpt
      * Solvation model:               GBSA
        Solvent                        toluene
        Solvent mass                       9.2140E+01 g/mol
          :  Hamiltonian                  GFN2-xTB          :
 * total energy  :  -120.4211252 Eh     change       -0.1146276E-08 Eh
 * total energy  :  -120.4385943 Eh     change       -0.1746912E-01 Eh
 * total energy  :  -120.4442581 Eh     change       -0.5663746E-02 Eh
 * total energy  :  -120.4452625 Eh     change       -0.1004457E-02 Eh
 * total energy  :  -120.4459576 Eh     change       -0.6950948E-03 Eh
 * total energy  :  -120.4462321 Eh     change       -0.2745367E-03 Eh
 * total energy  :  -120.4463828 Eh     change       -0.1506743E-03 Eh
 * total energy  :  -120.4464737 Eh     change       -0.9088983E-04 Eh
 * total energy  :  -120.4465669 Eh     change       -0.9319720E-04 Eh
 * total energy  :  -120.4466447 Eh     change       -0.7782771E-04 Eh
 * total energy  :  -120.4469989 Eh     change       -0.9278053E-06 Eh
 * total energy  :  -120.4469995 Eh     change       -0.6600833E-06 Eh
 * total energy  :  -120.4470000 Eh     change       -0.4945744E-06 Eh
 * total energy  :  -120.4470006 Eh     change       -0.5460448E-06 Eh
 * total energy  :  -120.4470012 Eh     change       -0.6735264E-06 Eh
 * total energy  :  -120.4470020 Eh     change       -0.7839512E-06 Eh
 * total energy  :  -120.4470028 Eh     change       -0.7705017E-06 Eh
 * total energy  :  -120.4470035 Eh     change       -0.7296875E-06 Eh
 * total energy  :  -120.4470035 Eh     change       -0.4923052E-08 Eh
   *** GEOMETRY OPTIMIZATION CONVERGED AFTER 94 ITERATIONS ***

 final structure:
================
82
 xtb: 6.7.1 (edcfbbe)
C           -7.85019194182116        2.41677362242522        0.31683506467672
C           -7.47908526639173        1.07834383979611       -0.34920895607497
C           -8.64435920019585        0.57552994158286       -1.22220877264981
C           -6.26795895585010        1.29359597688027       -1.23721071396735
C           -6.34859303669307        2.19134323928961       -2.29363601524731
C           -5.29047135603500        2.40989714412365       -3.15646987174665
C           -4.11503151648461        1.70362333635644       -2.97511109543822
C           -4.00718107273063        0.80722075633088       -1.93238765553095
C           -5.06711624112693        0.60256997269547       -1.04361815660352
N           -4.92613009038078       -0.30332345755831       -0.00047290921598
C           -3.69349984278349       -0.98687786899307        0.15616970176619
C           -2.58655360056182       -0.32168836711306        0.67716944178463
C           -1.38041071783430       -0.97996468987988        0.81574732117498
C           -1.26402528639309       -2.31835783893884        0.43903183266154
C            0.00109865602548       -3.07361708019421        0.59592613831515
O            0.00154924171926       -4.27328191771061        0.82537070808496
C            1.26933594461138       -2.31508524079618        0.46238768000994
C            2.37677771693429       -2.72761678163890        1.20313124744009
C            3.57976722304764       -2.05893966607950        1.09762453525738
C            3.69704156241452       -0.97824828696142        0.22891475220399
N            4.93271748028138       -0.28358866409834        0.11985843080192
C            5.90256777190816       -0.76446729973910       -0.74628474475614
C            5.64099451539075       -1.90569258895383       -1.51030230659198
C            6.58444094640490       -2.40700389529764       -2.38284650062064
C            7.80818626933963       -1.77465537788703       -2.51050598082285
C            8.06622074485424       -0.64246166676171       -1.75910771836016
C            7.13558840491667       -0.11590981298628       -0.87360855400055
C            7.47947094552290        1.13201737280568       -0.08093562255951
C            7.77892286319769        2.27727987140170       -1.06645482816170
C            8.71868984281514        0.83855265018522        0.78577347576785
C            6.34066315015193        1.55642420977848        0.82823367634837
C            6.48628649916535        2.68116384957337        1.62911013263048
C            5.48712085242602        3.11048965106570        2.48378403618081
C            4.30298571484753        2.39863863501489        2.55140262473933
C            4.13103914357580        1.27757969775798        1.76634248905092
C            5.13727827144493        0.84630376855656        0.89682424508086
C            2.60490309974761       -0.58030679930284       -0.53578263592181
C            1.39732139024467       -1.24139950849868       -0.41844441378411
C           -2.38486131948156       -2.98763458743773       -0.05427098407908
C           -3.58676337830534       -2.32764730880656       -0.20551209862607
C           -5.96740789398165       -0.57652160947128        0.87682395292048
C           -5.76697940665974       -1.47059400899728        1.93311027446901
C           -6.78274493292100       -1.76482885300163        2.81868568504768
C           -8.01949174088697       -1.16266004009556        2.67238648873156
C           -8.21230755766185       -0.25902449031715        1.64371504808584
C           -7.20758976587540        0.05573908812689        0.73826131322709
H           -8.05818930170072        3.17713921490686       -0.43081094565379
H           -8.73018617193098        2.30707715756708        0.94443018810540
H           -7.02596664831441        2.76259288485746        0.93861600590794
H           -8.37532237805716       -0.36967731109629       -1.69109181905949
H           -8.88029915593395        1.29100084312745       -2.00493495023365
H           -9.53763709252005        0.41928554216172       -0.62392421152213
H           -7.26499534893057        2.73851893790788       -2.45514544869901
H           -5.38795587431652        3.11685661503113       -3.96669496241284
H           -3.28116748760930        1.84459144139537       -3.64711225884968
H           -3.09120605119992        0.25087514649683       -1.80783716233037
H           -2.68199266184253        0.71317537099844        0.97071597817108
H           -0.53450708491791       -0.46342569734690        1.24302351739437
H            2.27073623131696       -3.57152030960370        1.86888234611776
H            4.43468250966013       -2.36796591786658        1.68035751815331
H            4.68715703688106       -2.40259932496661       -1.41740098097128
H            6.36016320693536       -3.29093644417736       -2.96199783730461
H            8.55580619374532       -2.15697819614864       -3.18924907294786
H            9.02465736282207       -0.15849875770267       -1.87130920379288
H            8.04753747166998        3.18573284104554       -0.53450101064310
H            6.90002089963949        2.48283838132624       -1.67534373138659
H            8.60007928146702        2.01502238627881       -1.72769144486742
H            9.00375319256059        1.71310757708681        1.36396086946845
H            8.50392068584127        0.02511272869011        1.47703457897467
H            9.56386648489119        0.54868422904325        0.16764005277170
H            7.40669090428088        3.24403896954886        1.59058736185205
H            5.63495094870079        3.99020891143330        3.09214680678752
H            3.51095934453379        2.71269831572956        3.21553815352640
H            3.20677314475894        0.72354642746980        1.82729620870339
H            2.71176312237373        0.24853361975824       -1.21963992018069
H            0.55948442051022       -0.94116457060588       -1.02912500791879
H           -2.28755363842809       -4.02749619003874       -0.32977804338047
H           -4.45064254307385       -2.84199029327729       -0.59935236593472
H           -4.80238526279239       -1.93655856533315        2.06410532802658
H           -6.60316121878236       -2.46217219493956        3.62393370775025
H           -8.82425783998498       -1.38582299942389        3.35674452719011
H           -9.17779481220145        0.21447331442338        1.54968446753634

          :  Hamiltonian                  GFN2-xTB          :
         :: gradient norm              0.000052680271 Eh/a0 ::
         :: HOMO-LUMO gap              1.297409606009 eV    ::
         :: SCC energy              -122.589881124620 Eh    ::
         :: -> dispersion             -0.112181465600 Eh    ::
         :: -> Gsolv                  -0.049213786168 Eh    ::
         :: repulsion energy           2.142877611036 Eh    ::

    * Orbital Energies and Occupations

         #    Occupation            Energy/Eh            Energy/eV
      -------------------------------------------------------------
         1        2.0000           -0.7159976             -19.4833
       ...           ...                  ...                  ...
       100        2.0000           -0.4090843             -11.1318
       101        2.0000           -0.4084329             -11.1140
       102        2.0000           -0.4081654             -11.1067
       103        2.0000           -0.4073304             -11.0840
       104        2.0000           -0.4041587             -10.9977
       105        2.0000           -0.4033643             -10.9761
       106        2.0000           -0.4012805             -10.9194
       107        2.0000           -0.3983552             -10.8398
       108        2.0000           -0.3978582             -10.8263
       109        2.0000           -0.3930321             -10.6949
       110        2.0000           -0.3925088             -10.6807
       111        2.0000           -0.3480709              -9.4715
       112        2.0000           -0.3468561              -9.4384 (HOMO)
       113                         -0.2991771              -8.1410 (LUMO)
       114                         -0.2500582              -6.8044
       115                         -0.2462630              -6.7012
       116                         -0.2433079              -6.6207
       117                         -0.2249819              -6.1221
       118                         -0.2241674              -6.0999
       119                         -0.2198506              -5.9824
       120                         -0.2191261              -5.9627
       121                         -0.2187588              -5.9527
       122                         -0.2181108              -5.9351
       123                         -0.2033510              -5.5335
       ...                                ...                  ...
       220                          0.6780443              18.4505
      -------------------------------------------------------------
                  HL-Gap            0.0476789 Eh            1.2974 eV

     #   Z          covCN         q      C6AA      α(0)
     1   6 C        3.761    -0.104    22.526     6.766
     2   6 C        3.909     0.021    20.162     6.382
     3   6 C        3.761    -0.104    22.525     6.766
     4   6 C        2.979    -0.013    28.335     8.732
     5   6 C        2.928    -0.037    28.925     8.820
     6   6 C        2.917    -0.046    29.136     8.852
     7   6 C        2.919    -0.035    28.862     8.810
     8   6 C        2.924    -0.060    29.494     8.906
     9   6 C        2.927     0.058    26.704     8.475
    10   7 N        2.753    -0.071    22.611     7.062
    11   6 C        2.927     0.078    26.257     8.403
    12   6 C        2.920    -0.036    28.893     8.815
    13   6 C        2.920    -0.025    28.620     8.773
    14   6 C        2.971    -0.014    28.364     8.736
    15   6 C        2.829     0.229    23.204     7.893
    16   8 O        0.858    -0.413    21.934     6.279
    17   6 C        2.972    -0.013    28.330     8.731
    18   6 C        2.924    -0.016    28.402     8.740
    19   6 C        2.919    -0.034    28.858     8.809
    20   6 C        2.927     0.079    26.243     8.401
    21   7 N        2.754    -0.074    22.668     7.071
    22   6 C        2.928     0.058    26.694     8.473
    23   6 C        2.924    -0.060    29.497     8.906
    24   6 C        2.919    -0.035    28.862     8.810
    25   6 C        2.917    -0.046    29.152     8.854
    26   6 C        2.928    -0.037    28.931     8.821
    27   6 C        2.979    -0.014    28.355     8.735
    28   6 C        3.908     0.021    20.164     6.383
    29   6 C        3.761    -0.103    22.523     6.766
    30   6 C        3.761    -0.103    22.520     6.765
    31   6 C        2.979    -0.014    28.352     8.734
    32   6 C        2.928    -0.037    28.928     8.820
    33   6 C        2.917    -0.046    29.153     8.854
    34   6 C        2.919    -0.035    28.865     8.810
    35   6 C        2.924    -0.060    29.504     8.908
    36   6 C        2.928     0.058    26.695     8.473
    37   6 C        2.920    -0.035    28.876     8.812
    38   6 C        2.920    -0.024    28.613     8.772
    39   6 C        2.924    -0.016    28.404     8.740
    40   6 C        2.919    -0.035    28.877     8.812
    41   6 C        2.927     0.058    26.703     8.474
    42   6 C        2.924    -0.060    29.485     8.905
    43   6 C        2.919    -0.034    28.858     8.809
    44   6 C        2.917    -0.046    29.134     8.851
    45   6 C        2.928    -0.037    28.928     8.820
    46   6 C        2.979    -0.013    28.337     8.732
    47   1 H        0.925     0.042     2.423     2.434
    48   1 H        0.925     0.042     2.427     2.436
    49   1 H        0.925     0.030     2.580     2.512
    50   1 H        0.925     0.030     2.586     2.515
    51   1 H        0.925     0.042     2.425     2.435
    52   1 H        0.925     0.042     2.426     2.436
    53   1 H        0.926     0.033     2.543     2.494
    54   1 H        0.926     0.026     2.640     2.541
    55   1 H        0.926     0.028     2.619     2.531
    56   1 H        0.926     0.025     2.665     2.553
    57   1 H        0.926     0.056     2.250     2.346
    58   1 H        0.926     0.054     2.273     2.358
    59   1 H        0.926     0.055     2.256     2.349
    60   1 H        0.926     0.054     2.275     2.359
    61   1 H        0.926     0.022     2.698     2.568
    62   1 H        0.926     0.026     2.643     2.542
    63   1 H        0.926     0.025     2.652     2.547
    64   1 H        0.926     0.033     2.551     2.498
    65   1 H        0.925     0.042     2.428     2.437
    66   1 H        0.925     0.030     2.583     2.513
    67   1 H        0.925     0.041     2.431     2.438
    68   1 H        0.925     0.041     2.429     2.437
    69   1 H        0.925     0.030     2.590     2.517
    70   1 H        0.925     0.041     2.431     2.438
    71   1 H        0.926     0.032     2.554     2.499
    72   1 H        0.926     0.026     2.651     2.546
    73   1 H        0.926     0.027     2.631     2.536
    74   1 H        0.926     0.023     2.691     2.565
    75   1 H        0.926     0.056     2.249     2.345
    76   1 H        0.926     0.054     2.268     2.355
    77   1 H        0.926     0.055     2.256     2.349
    78   1 H        0.926     0.053     2.278     2.360
    79   1 H        0.926     0.024     2.673     2.557
    80   1 H        0.926     0.027     2.633     2.537
    81   1 H        0.926     0.026     2.641     2.542
    82   1 H        0.926     0.033     2.540     2.492

molecular dipole:
                 x           y           z       tot (Debye)
 q only:       -0.156       1.433      -0.277
   full:       -0.154       1.400      -0.271       3.645

 projected vibrational frequencies (cm⁻¹)
eigval :       -0.00    -0.00    -0.00     0.00     0.00     0.00
eigval :       -9.06     7.58    11.66    19.25    22.47    23.11
eigval :       38.16    43.50    55.56    59.27    72.26    96.82
eigval :       98.24   102.35   105.01   118.45   129.44   135.04
eigval :      135.43   164.19   166.59   181.92   192.13   196.40
eigval :      211.36   219.68   220.70   223.26   233.33   236.52
eigval :      280.07   285.72   304.44   307.04   326.39   329.76
eigval :      331.35   340.94   344.75   345.64   368.24   377.12
eigval :      377.44   378.61   390.57   391.42   408.55   409.17
eigval :      425.11   439.32   449.25   452.02   484.38   486.92
eigval :      488.97   495.07   515.03   516.12   540.53   546.99
eigval :      548.24   551.98   568.08   576.43   583.29   590.44
eigval :      596.75   602.28   611.67   625.77   650.57   658.38
eigval :      673.28   682.04   683.59   693.41   694.67   695.05
eigval :      709.36   735.59   739.32   765.55   776.95   778.16
eigval :      778.41   779.19   814.60   820.31   826.99   830.22
eigval :      864.53   866.03   867.20   868.52   868.92   875.06
eigval :      890.82   911.89   911.93   913.27   913.73   914.90
eigval :      915.27   919.84   920.49   921.21   922.32   922.86
eigval :      923.88   924.28   927.05   935.26   937.47   938.18
eigval :      955.96   956.31   957.62  1011.17  1012.59  1012.75
eigval :     1026.89  1075.53  1075.79  1084.45  1085.35  1111.65
eigval :     1112.78  1118.01  1118.07  1126.31  1128.99  1138.99
eigval :     1139.95  1158.10  1158.34  1165.86  1169.56  1174.72
eigval :     1177.96  1183.09  1185.26  1185.52  1187.19  1187.53
eigval :     1201.28  1211.08  1241.30  1244.55  1247.85  1248.17
eigval :     1256.23  1258.95  1261.90  1266.90  1267.15  1292.93
eigval :     1293.39  1307.62  1311.28  1314.39  1317.06  1323.85
eigval :     1323.92  1332.78  1333.45  1334.36  1338.74  1396.81
eigval :     1398.59  1398.84  1399.60  1417.33  1417.52  1434.78
eigval :     1435.67  1438.93  1440.35  1469.39  1471.04  1476.03
eigval :     1477.50  1486.68  1486.92  1487.22  1488.68  1494.45
eigval :     1495.76  1496.74  1497.54  1502.14  1503.76  1554.10
eigval :     1557.09  1573.93  1573.94  1576.94  1580.94  1589.58
eigval :     1589.91  1590.35  1590.40  1600.34  1600.75  1654.04
eigval :     3020.71  3020.74  3023.16  3023.42  3038.27  3038.87
eigval :     3040.28  3040.78  3046.95  3047.44  3050.95  3051.43
eigval :     3071.80  3072.32  3072.62  3072.69  3078.22  3078.63
eigval :     3079.31  3079.48  3084.79  3085.25  3086.45  3087.53
eigval :     3088.65  3089.11  3090.20  3090.84  3095.27  3095.64
eigval :     3096.08  3096.93  3097.54  3098.09  3098.71  3101.78

   temp. (K)  partition function   enthalpy   heat capacity  entropy
                                   cal/mol     cal/K/mol   cal/K/mol   J/K/mol
 298.15  VIB  0.348E+19            23154.839    145.142    144.368
         ROT  0.919E+08              888.752      2.981     39.419
         INT  0.319E+27            24043.591    148.123    183.788
         TR   0.141E+29             1481.254      4.968     45.022
         TOT                       25524.8454   153.0912   228.8098   957.3402

       T/K    H(0)-H(T)+PV         H(T)/Eh          T*S/Eh         G(T)/Eh
   ------------------------------------------------------------------------
    298.15    0.406764E-01    0.694438E+00    0.108715E+00    0.585723E+00
   ------------------------------------------------------------------------

         :::::::::::::::::::::::::::::::::::::::::::::::::::::
         ::                  THERMODYNAMIC                  ::
         :::::::::::::::::::::::::::::::::::::::::::::::::::::
         :: total free energy        -119.861280537668 Eh   ::
         ::.................................................::
         :: total energy             -120.447003512394 Eh   ::
         :: zero point energy           0.653761458550 Eh   ::
         :: G(RRHO) w/o ZPVE           -0.068038483824 Eh   ::
         :: G(RRHO) contrib.            0.585722974726 Eh   ::
         :::::::::::::::::::::::::::::::::::::::::::::::::::::

           -------------------------------------------------
          | TOTAL ENERGY             -120.447003512394 Eh   |
          | TOTAL ENTHALPY           -119.752565623604 Eh   |
          | TOTAL FREE ENERGY        -119.861280537668 Eh   |
          | GRADIENT NORM               0.000052684852 Eh/α |
          | HOMO-LUMO GAP               1.297409479756 eV   |
           -------------------------------------------------

 * finished run on 2025/09/14 at 06:39:51.787
