   * xtb version 6.7.1 (edcfbbe) compiled by 'albert@albert-system' on 2024-07-22

   ID    Z sym.   atoms
    1    6 C      1, 2, 4-15, 17-23, 26, 29
    2   16 S      3, 16
    3    9 F      24, 25, 27, 28, 30, 31
    4    1 H      32-45

          program call               : xtb data2507/toluene/benzoxazole/benzoxazole_toluene_S0_crest.xyz --gfn 2 --gbsa toluene --ohess vtight --parallel 40 --molden --ceasefiles --namespace data2507/toluene/benzoxazole/benzoxazole_toluene_S0_finalOpt
      * Solvation model:               GBSA
        Solvent                        toluene
        Solvent mass                       9.2140E+01 g/mol
          :  Hamiltonian                  GFN2-xTB          :
 * total energy  :   -91.3217642 Eh     change       -0.4394280E-09 Eh
 * total energy  :   -91.3218640 Eh     change       -0.9980712E-04 Eh
 * total energy  :   -91.3219149 Eh     change       -0.5090388E-04 Eh
 * total energy  :   -91.3219444 Eh     change       -0.2952708E-04 Eh
 * total energy  :   -91.3219687 Eh     change       -0.2430134E-04 Eh
 * total energy  :   -91.3220107 Eh     change       -0.4200187E-04 Eh
 * total energy  :   -91.3220575 Eh     change       -0.4673171E-04 Eh
 * total energy  :   -91.3220986 Eh     change       -0.4118106E-04 Eh
 * total energy  :   -91.3221310 Eh     change       -0.3231053E-04 Eh
 * total energy  :   -91.3221604 Eh     change       -0.2943236E-04 Eh
 * total energy  :   -91.3222505 Eh     change       -0.7825302E-06 Eh
 * total energy  :   -91.3222512 Eh     change       -0.6790882E-06 Eh
 * total energy  :   -91.3222521 Eh     change       -0.8787020E-06 Eh
 * total energy  :   -91.3222531 Eh     change       -0.1011238E-05 Eh
 * total energy  :   -91.3222536 Eh     change       -0.5297729E-06 Eh
 * total energy  :   -91.3222539 Eh     change       -0.2648555E-06 Eh
 * total energy  :   -91.3222541 Eh     change       -0.1781316E-06 Eh
 * total energy  :   -91.3222542 Eh     change       -0.1378875E-06 Eh
 * total energy  :   -91.3222543 Eh     change       -0.9158376E-07 Eh
   *** GEOMETRY OPTIMIZATION CONVERGED AFTER 32 ITERATIONS ***

 final structure:
================
45
 xtb: 6.7.1 (edcfbbe)
C            0.23439375674705        3.25757686354581       -1.67249093864513
C           -0.50546238194097        2.62702111403073       -0.54802870830052
S           -2.05548504657018        3.28855767794752       -0.12594336439510
C           -2.29439111078934        2.08530427809144        1.10849967540758
C           -3.38630500104643        1.96637511862313        1.95489964194625
C           -3.37902533994880        0.95433001031408        2.89265868778853
C           -2.28588748280290        0.09639463177440        3.00260216934432
C           -1.19971255124178        0.22057735271945        2.16407072350098
C           -1.20174322005977        1.20674324695403        1.17794563191981
C           -0.18718831212071        1.52967097235171        0.20338811089913
C            0.99973111752985        0.69880721838818        0.06444420871523
C            1.01883717814786       -0.65613018647344       -0.02234006338077
C           -0.11921529136480       -1.52945966409572       -0.23100344315377
C           -0.36030925078452       -2.69465049446980        0.45169992511323
C            0.46076590174074       -3.36536990707729        1.49318827183484
S           -1.88936617543792       -3.39740099484833        0.04056883085955
C           -2.21736151224682       -2.14246263803935       -1.12019628680954
C           -3.33220096002097       -2.04091018648991       -1.93820412725303
C           -3.38563640735633       -1.00041681888361       -2.84264037078004
C           -2.32503848890701       -0.10291094908544       -2.95202243116077
C           -1.21932232901283       -0.20582246898641       -2.13602399609281
C           -1.16622836680436       -1.21301797814172       -1.17255320935292
C            2.43392637694732       -1.17044651401203        0.07574595018617
F            2.69867258116506       -2.24073798551540       -0.70650451735682
F            2.78695398639023       -1.55028945480435        1.33900835151249
C            3.28010816932666        0.06951324131413       -0.30446614949046
F            4.53218804351023        0.05303075685165        0.18941162900363
F            3.39501261570324        0.15631262330288       -1.65148398585111
C            2.40301259641666        1.23471842163429        0.21505386306570
F            2.70606544680655        1.47755967275327        1.52677337092966
F            2.67920629318679        2.39329864180303       -0.42103900035108
H            0.84156913479824        4.08644403053498       -1.30631650448677
H           -0.46674962146534        3.65308730626060       -2.40410523416212
H            0.89953635846353        2.54817725940081       -2.15948261226433
H           -4.21273362641631        2.65527997589499        1.87864097894936
H           -4.21986888227986        0.83618556995162        3.55868524385029
H           -2.28800808880136       -0.67237097159415        3.76037281040873
H           -0.34302072441283       -0.42498526486694        2.27440014286328
H            1.36833721289794       -3.78157078692159        1.05421163703574
H           -0.10277569478392       -4.17652099638867        1.94683910931375
H            0.76120129741495       -2.66671645320274        2.27310880010658
H           -4.12720505966119       -2.76653318180842       -1.86821275958416
H           -4.24473682785788       -0.89510201048073       -3.48714306931091
H           -2.36768432823866        0.68078544534591       -3.69299086598487
H           -0.38723394271738        0.46815057289879       -2.25229653768654

          :  Hamiltonian                  GFN2-xTB          :
         :: gradient norm              0.000040800215 Eh/a0 ::
         :: HOMO-LUMO gap              2.197193075935 eV    ::
         :: SCC energy               -92.384401150608 Eh    ::
         :: -> dispersion             -0.068427719964 Eh    ::
         :: -> Gsolv                  -0.029874193017 Eh    ::
         :: repulsion energy           1.062146868242 Eh    ::

    * Orbital Energies and Occupations

         #    Occupation            Energy/Eh            Energy/eV
      -------------------------------------------------------------
         1        2.0000           -0.9022828             -24.5524
       ...           ...                  ...                  ...
        68        2.0000           -0.4642097             -12.6318
        69        2.0000           -0.4564186             -12.4198
        70        2.0000           -0.4522951             -12.3076
        71        2.0000           -0.4454031             -12.1200
        72        2.0000           -0.4433691             -12.0647
        73        2.0000           -0.4395743             -11.9614
        74        2.0000           -0.4379060             -11.9160
        75        2.0000           -0.4370130             -11.8917
        76        2.0000           -0.4296615             -11.6917
        77        2.0000           -0.4046611             -11.0114
        78        2.0000           -0.4027949             -10.9606
        79        2.0000           -0.3907373             -10.6325
        80        2.0000           -0.3868467             -10.5266 (HOMO)
        81                         -0.3061014              -8.3294 (LUMO)
        82                         -0.2640415              -7.1849
        83                         -0.2576503              -7.0110
        84                         -0.2395312              -6.5180
        85                         -0.2387779              -6.4975
        86                         -0.2198319              -5.9819
        87                         -0.2182223              -5.9381
        88                         -0.2008911              -5.4665
        89                         -0.1896999              -5.1620
        90                         -0.1329959              -3.6190
        91                         -0.1324528              -3.6042
       ...                                ...                  ...
       148                          0.6946198              18.9016
      -------------------------------------------------------------
                  HL-Gap            0.0807454 Eh            2.1972 eV

     #   Z          covCN         q      C6AA      α(0)
     1   6 C        3.787    -0.113    22.675     6.782
     2   6 C        2.974     0.038    27.153     8.547
     3  16 S        2.292    -0.020   141.889    20.048
     4   6 C        3.004     0.030    27.315     8.573
     5   6 C        2.934    -0.036    28.888     8.815
     6   6 C        2.923    -0.029    28.730     8.790
     7   6 C        2.919    -0.030    28.761     8.794
     8   6 C        2.917    -0.034    28.853     8.808
     9   6 C        3.141    -0.003    27.864     8.638
    10   6 C        3.123    -0.019    28.295     8.711
    11   6 C        2.993    -0.032    28.778     8.800
    12   6 C        2.994    -0.028    28.694     8.787
    13   6 C        3.122    -0.019    28.299     8.712
    14   6 C        2.974     0.038    27.138     8.545
    15   6 C        3.787    -0.112    22.653     6.779
    16  16 S        2.291    -0.011   141.501    20.021
    17   6 C        3.005     0.030    27.323     8.575
    18   6 C        2.934    -0.035    28.880     8.814
    19   6 C        2.923    -0.029    28.718     8.788
    20   6 C        2.919    -0.030    28.743     8.792
    21   6 C        2.918    -0.035    28.882     8.813
    22   6 C        3.139    -0.004    27.877     8.641
    23   6 C        3.561     0.321    16.523     5.926
    24   9 F        0.787    -0.209    11.324     3.975
    25   9 F        0.788    -0.220    11.448     3.997
    26   6 C        3.553     0.314    16.677     5.966
    27   9 F        0.787    -0.197    11.205     3.954
    28   9 F        0.788    -0.206    11.294     3.970
    29   6 C        3.562     0.320    16.527     5.926
    30   9 F        0.788    -0.224    11.489     4.004
    31   9 F        0.787    -0.205    11.285     3.968
    32   1 H        0.924     0.077     2.011     2.218
    33   1 H        0.925     0.076     2.026     2.226
    34   1 H        0.925     0.056     2.247     2.344
    35   1 H        0.926     0.053     2.281     2.362
    36   1 H        0.926     0.051     2.310     2.377
    37   1 H        0.926     0.047     2.352     2.398
    38   1 H        0.926     0.031     2.567     2.505
    39   1 H        0.924     0.070     2.087     2.259
    40   1 H        0.925     0.072     2.066     2.248
    41   1 H        0.925     0.066     2.129     2.282
    42   1 H        0.926     0.053     2.277     2.360
    43   1 H        0.926     0.051     2.302     2.372
    44   1 H        0.926     0.049     2.331     2.387
    45   1 H        0.926     0.037     2.492     2.468

molecular dipole:
                 x           y           z       tot (Debye)
 q only:       -3.445      -0.099      -0.270
   full:       -2.749      -0.100      -0.235       7.018

 projected vibrational frequencies (cm⁻¹)
eigval :       -0.00    -0.00    -0.00    -0.00     0.00     0.00
eigval :       24.03    28.70    35.17    42.09    54.81    72.62
eigval :       79.62   113.16   121.36   127.83   148.81   155.45
eigval :      158.02   172.70   186.71   190.09   198.31   208.51
eigval :      210.58   226.40   232.47   236.06   259.05   269.19
eigval :      289.24   308.66   327.43   329.95   340.92   372.91
eigval :      392.59   402.61   410.78   415.21   440.09   455.63
eigval :      457.56   468.06   474.37   484.19   488.58   506.91
eigval :      535.45   553.91   573.63   576.65   590.86   622.72
eigval :      632.23   655.46   672.10   685.19   700.77   709.92
eigval :      711.93   736.00   762.07   774.06   777.01   820.77
eigval :      847.55   877.00   877.15   908.35   909.95   913.61
eigval :      922.25   925.96   951.62   987.95   997.08  1003.00
eigval :     1014.24  1019.02  1026.19  1055.63  1056.28  1073.24
eigval :     1075.72  1077.24  1082.39  1102.87  1149.45  1153.95
eigval :     1158.00  1163.34  1173.75  1176.47  1180.51  1209.11
eigval :     1218.13  1222.03  1243.43  1257.00  1324.35  1342.34
eigval :     1342.75  1350.27  1400.28  1400.69  1407.41  1409.57
eigval :     1448.78  1451.17  1460.47  1462.76  1468.47  1471.55
eigval :     1524.25  1541.27  1562.10  1562.48  1585.17  1587.05
eigval :     1596.95  2995.66  2997.13  3016.19  3036.45  3038.06
eigval :     3049.53  3086.50  3087.77  3093.50  3094.83  3102.39
eigval :     3104.15  3106.80  3120.82

   temp. (K)  partition function   enthalpy   heat capacity  entropy
                                   cal/mol     cal/K/mol   cal/K/mol   J/K/mol
 298.15  VIB  0.573E+11            15579.796     96.422     94.875
         ROT  0.168E+08              888.752      2.981     36.040
         INT  0.960E+18            16468.548     99.403    130.915
         TR   0.981E+28             1481.254      4.968     44.301
         TOT                       17949.8022   104.3709   175.2164   733.1052

       T/K    H(0)-H(T)+PV         H(T)/Eh          T*S/Eh         G(T)/Eh
   ------------------------------------------------------------------------
    298.15    0.286048E-01    0.330798E+00    0.832509E-01    0.247547E+00
   ------------------------------------------------------------------------

         :::::::::::::::::::::::::::::::::::::::::::::::::::::
         ::                  THERMODYNAMIC                  ::
         :::::::::::::::::::::::::::::::::::::::::::::::::::::
         :: total free energy         -91.074707055386 Eh   ::
         ::.................................................::
         :: total energy              -91.322254286009 Eh   ::
         :: zero point energy           0.302193344834 Eh   ::
         :: G(RRHO) w/o ZPVE           -0.054646114212 Eh   ::
         :: G(RRHO) contrib.            0.247547230622 Eh   ::
         :::::::::::::::::::::::::::::::::::::::::::::::::::::

           -------------------------------------------------
          | TOTAL ENERGY              -91.322254286009 Eh   |
          | TOTAL ENTHALPY            -90.991456110576 Eh   |
          | TOTAL FREE ENERGY         -91.074707055386 Eh   |
          | GRADIENT NORM               0.000040750907 Eh/α |
          | HOMO-LUMO GAP               2.197192963984 eV   |
           -------------------------------------------------

 * finished run on 2025/09/14 at 03:35:21.278
