   * xtb version 6.7.1 (edcfbbe) compiled by 'albert@albert-system' on 2024-07-22

   ID    Z sym.   atoms
    1    6 C      1, 2, 4-15, 17-23, 26, 29
    2   16 S      3, 16
    3    9 F      24, 25, 27, 28, 30, 31
    4    1 H      32-45

          program call               : xtb data2507/toluene/benzoxazole/benzoxazole.xyz --gfn 2 --gbsa toluene --ohess vtight --parallel 40 --molden --ceasefiles --namespace data2507/toluene/benzoxazole/benzoxazole_toluene_S0_preOpt
      * Solvation model:               GBSA
        Solvent                        toluene
        Solvent mass                       9.2140E+01 g/mol
          :  Hamiltonian                  GFN2-xTB          :
 * total energy  :   -91.3047085 Eh     change       -0.3920633E-09 Eh
 * total energy  :   -91.3148377 Eh     change       -0.1012916E-01 Eh
 * total energy  :   -91.3171392 Eh     change       -0.2301510E-02 Eh
 * total energy  :   -91.3176431 Eh     change       -0.5039667E-03 Eh
 * total energy  :   -91.3181879 Eh     change       -0.5447790E-03 Eh
 * total energy  :   -91.3185678 Eh     change       -0.3798667E-03 Eh
 * total energy  :   -91.3189369 Eh     change       -0.3690635E-03 Eh
 * total energy  :   -91.3192899 Eh     change       -0.3530396E-03 Eh
 * total energy  :   -91.3195925 Eh     change       -0.3026248E-03 Eh
 * total energy  :   -91.3198662 Eh     change       -0.2736439E-03 Eh
 * total energy  :   -91.3222059 Eh     change       -0.8670047E-06 Eh
 * total energy  :   -91.3222068 Eh     change       -0.9073817E-06 Eh
 * total energy  :   -91.3222076 Eh     change       -0.8645800E-06 Eh
 * total energy  :   -91.3222084 Eh     change       -0.7455230E-06 Eh
 * total energy  :   -91.3222090 Eh     change       -0.5847001E-06 Eh
 * total energy  :   -91.3222094 Eh     change       -0.4310780E-06 Eh
 * total energy  :   -91.3222097 Eh     change       -0.3231524E-06 Eh
 * total energy  :   -91.3222100 Eh     change       -0.2585822E-06 Eh
 * total energy  :   -91.3222100 Eh     change       -0.3213472E-08 Eh
   *** GEOMETRY OPTIMIZATION CONVERGED AFTER 68 ITERATIONS ***

 final structure:
================
45
 xtb: 6.7.1 (edcfbbe)
C           -0.15018733087823       -1.13252259447531        3.54836805074849
C           -0.88525292991581       -0.35595273606274        2.51591396453017
S           -1.77342049621891        1.04480704208932        3.03335611348187
C           -2.25106012799793        1.41252502142399        1.40077080672093
C           -3.05295458282422        2.46479268571740        0.98556865471935
C           -3.34315017437929        2.57423422315825       -0.35886170876305
C           -2.86415748563880        1.63178123540997       -1.26742489392844
C           -2.07171419040965        0.58424349879484       -0.85138292774303
C           -1.72909044269554        0.47451634339685        0.49604170450409
C           -0.93400292552714       -0.53015558072351        1.16059999869504
C           -0.25617092801382       -1.56725055694166        0.39666104373377
C            0.50940897584883       -1.37577571042048       -0.70786773181342
C            1.00748227240311       -0.11146921534808       -1.21309107380802
C            0.99205947069869        0.27830069122169       -2.52812919232119
C            0.52752549111785       -0.46644351633556       -3.72741950911176
S            1.54531912727157        1.90597505055929       -2.74176730191012
C            1.86658021005009        2.07945517607859       -1.03971928950615
C            2.40469408431134        3.18945523394246       -0.40670649953509
C            2.64475924957142        3.11481027152981        0.94988088972223
C            2.38474298792177        1.93874305904162        1.65101235101703
C            1.84834531707885        0.83794618701392        1.01896061207512
C            1.54384547070100        0.90527474712136       -0.34052525031552
C            0.84713488803079       -2.69886882367603       -1.35020871069408
F            2.08919101659992       -2.76611557349870       -1.87952584901377
F            0.00220469957439       -3.03950884664436       -2.36736830468974
C            0.63592985635762       -3.70817748133573       -0.19482613411797
F            0.36674749883064       -4.96240516995797       -0.60247423561251
F            1.75315047070134       -3.77889929767018        0.56816366444244
C           -0.50110968164893       -3.04063456046716        0.61635832268169
F           -1.70896847717277       -3.42656031412338        0.10304983392794
F           -0.52118382394224       -3.46523624857966        1.89793737599664
H            0.20316177607905       -0.46715769801558        4.33314671142218
H            0.69634823219159       -1.66382300687973        3.11964630353759
H           -0.81032872959843       -1.87071750500732        4.00557465199741
H           -3.43988804251719        3.17131858955893        1.70291905452555
H           -3.96003193196177        3.38786332190055       -0.70818872526309
H           -3.12359362592454        1.72083438720527       -2.31148186878779
H           -1.72909333027091       -0.15875281049443       -1.55377892075614
H            1.21417055106621       -1.28160721141654       -3.95943778633439
H            0.48430821465079        0.19845697032178       -4.58609862417495
H           -0.45874832366038       -0.90054291886292       -3.56827263380868
H            2.63649783186206        4.07947429794829       -0.97025516284126
H            3.05940961927477        3.96591953392612        1.46766434607754
H            2.61535622675824        1.88746399132204        2.70422457999691
H            1.68573504223918       -0.07961518172549        1.55899330029878

          :  Hamiltonian                  GFN2-xTB          :
         :: gradient norm              0.000039864916 Eh/a0 ::
         :: HOMO-LUMO gap              2.199380015043 eV    ::
         :: SCC energy               -92.384472933667 Eh    ::
         :: -> dispersion             -0.068179113196 Eh    ::
         :: -> Gsolv                  -0.029895147762 Eh    ::
         :: repulsion energy           1.062262964268 Eh    ::

    * Orbital Energies and Occupations

         #    Occupation            Energy/Eh            Energy/eV
      -------------------------------------------------------------
         1        2.0000           -0.9023561             -24.5544
       ...           ...                  ...                  ...
        68        2.0000           -0.4642309             -12.6324
        69        2.0000           -0.4563530             -12.4180
        70        2.0000           -0.4522646             -12.3067
        71        2.0000           -0.4454362             -12.1209
        72        2.0000           -0.4433511             -12.0642
        73        2.0000           -0.4394808             -11.9589
        74        2.0000           -0.4378785             -11.9153
        75        2.0000           -0.4369972             -11.8913
        76        2.0000           -0.4298804             -11.6976
        77        2.0000           -0.4046134             -11.0101
        78        2.0000           -0.4028110             -10.9610
        79        2.0000           -0.3907694             -10.6334
        80        2.0000           -0.3868572             -10.5269 (HOMO)
        81                         -0.3060315              -8.3275 (LUMO)
        82                         -0.2640073              -7.1840
        83                         -0.2576256              -7.0103
        84                         -0.2395337              -6.5180
        85                         -0.2388035              -6.4982
        86                         -0.2198193              -5.9816
        87                         -0.2181716              -5.9368
        88                         -0.2009342              -5.4677
        89                         -0.1899108              -5.1677
        90                         -0.1330237              -3.6198
        91                         -0.1324565              -3.6043
       ...                                ...                  ...
       148                          0.6946635              18.9028
      -------------------------------------------------------------
                  HL-Gap            0.0808257 Eh            2.1994 eV

     #   Z          covCN         q      C6AA      α(0)
     1   6 C        3.786    -0.113    22.673     6.782
     2   6 C        2.974     0.038    27.154     8.548
     3  16 S        2.291    -0.021   141.904    20.049
     4   6 C        3.005     0.030    27.313     8.573
     5   6 C        2.934    -0.036    28.888     8.815
     6   6 C        2.923    -0.029    28.730     8.790
     7   6 C        2.919    -0.030    28.760     8.794
     8   6 C        2.917    -0.034    28.852     8.808
     9   6 C        3.140    -0.003    27.864     8.638
    10   6 C        3.123    -0.019    28.295     8.711
    11   6 C        2.993    -0.031    28.773     8.799
    12   6 C        2.994    -0.028    28.689     8.786
    13   6 C        3.122    -0.019    28.300     8.712
    14   6 C        2.974     0.038    27.139     8.545
    15   6 C        3.787    -0.112    22.652     6.779
    16  16 S        2.291    -0.011   141.510    20.021
    17   6 C        3.005     0.030    27.322     8.574
    18   6 C        2.934    -0.035    28.880     8.813
    19   6 C        2.923    -0.029    28.719     8.788
    20   6 C        2.919    -0.030    28.743     8.792
    21   6 C        2.917    -0.036    28.884     8.813
    22   6 C        3.139    -0.004    27.876     8.641
    23   6 C        3.562     0.321    16.521     5.925
    24   9 F        0.787    -0.208    11.323     3.975
    25   9 F        0.788    -0.220    11.447     3.997
    26   6 C        3.553     0.314    16.676     5.965
    27   9 F        0.787    -0.197    11.204     3.954
    28   9 F        0.788    -0.206    11.294     3.970
    29   6 C        3.562     0.320    16.524     5.925
    30   9 F        0.788    -0.224    11.488     4.004
    31   9 F        0.787    -0.205    11.284     3.968
    32   1 H        0.925     0.076     2.024     2.225
    33   1 H        0.925     0.056     2.251     2.346
    34   1 H        0.924     0.077     2.011     2.218
    35   1 H        0.926     0.053     2.282     2.362
    36   1 H        0.926     0.051     2.311     2.377
    37   1 H        0.926     0.047     2.353     2.399
    38   1 H        0.926     0.031     2.567     2.505
    39   1 H        0.924     0.070     2.086     2.259
    40   1 H        0.925     0.072     2.066     2.248
    41   1 H        0.925     0.066     2.132     2.283
    42   1 H        0.926     0.053     2.278     2.360
    43   1 H        0.926     0.051     2.302     2.373
    44   1 H        0.926     0.049     2.331     2.388
    45   1 H        0.926     0.037     2.490     2.467

molecular dipole:
                 x           y           z       tot (Debye)
 q only:       -0.103       3.415       0.437
   full:       -0.054       2.728       0.340       6.988

 projected vibrational frequencies (cm⁻¹)
eigval :       -0.00    -0.00    -0.00     0.00     0.00     0.00
eigval :       24.62    29.94    34.57    42.36    55.69    72.08
eigval :       77.65   109.23   116.66   124.89   146.63   154.25
eigval :      155.15   163.36   173.33   188.40   190.90   207.24
eigval :      209.85   225.28   233.13   235.12   258.29   268.59
eigval :      288.46   308.29   326.40   329.44   340.99   372.33
eigval :      392.42   402.82   407.97   411.57   440.04   455.48
eigval :      457.19   467.83   474.11   484.06   488.64   506.80
eigval :      535.40   553.79   573.49   576.44   590.40   622.82
eigval :      632.17   655.52   671.34   684.28   700.66   709.70
eigval :      711.88   735.65   761.80   774.06   776.66   820.43
eigval :      847.00   873.43   875.64   907.70   909.00   913.47
eigval :      922.72   924.12   951.53   987.53   997.03  1002.94
eigval :     1014.70  1018.19  1024.64  1055.56  1056.37  1072.72
eigval :     1075.42  1076.77  1082.29  1102.45  1149.02  1153.46
eigval :     1157.38  1163.57  1174.03  1177.50  1180.40  1209.27
eigval :     1217.73  1221.71  1243.12  1256.66  1324.14  1342.34
eigval :     1342.79  1350.14  1399.02  1399.20  1407.59  1409.41
eigval :     1449.08  1451.09  1457.75  1462.38  1465.25  1469.87
eigval :     1524.55  1541.82  1562.15  1562.76  1585.26  1587.09
eigval :     1598.69  2995.60  2995.67  3016.84  3035.91  3036.97
eigval :     3048.68  3086.29  3087.96  3093.34  3094.94  3101.86
eigval :     3104.52  3106.39  3121.35

   temp. (K)  partition function   enthalpy   heat capacity  entropy
                                   cal/mol     cal/K/mol   cal/K/mol   J/K/mol
 298.15  VIB  0.696E+11            15646.583     96.537     95.562
         ROT  0.169E+08              888.752      2.981     36.049
         INT  0.117E+19            16535.336     99.518    131.611
         TR   0.981E+28             1481.254      4.968     44.301
         TOT                       18016.5894   104.4857   175.9122   736.0167

       T/K    H(0)-H(T)+PV         H(T)/Eh          T*S/Eh         G(T)/Eh
   ------------------------------------------------------------------------
    298.15    0.287113E-01    0.330688E+00    0.835816E-01    0.247106E+00
   ------------------------------------------------------------------------

         :::::::::::::::::::::::::::::::::::::::::::::::::::::
         ::                  THERMODYNAMIC                  ::
         :::::::::::::::::::::::::::::::::::::::::::::::::::::
         :: total free energy         -91.075103973800 Eh   ::
         ::.................................................::
         :: total energy              -91.322209972295 Eh   ::
         :: zero point energy           0.301976306847 Eh   ::
         :: G(RRHO) w/o ZPVE           -0.054870308352 Eh   ::
         :: G(RRHO) contrib.            0.247105998495 Eh   ::
         :::::::::::::::::::::::::::::::::::::::::::::::::::::

           -------------------------------------------------
          | TOTAL ENERGY              -91.322209972295 Eh   |
          | TOTAL ENTHALPY            -90.991522402638 Eh   |
          | TOTAL FREE ENERGY         -91.075103973800 Eh   |
          | GRADIENT NORM               0.000039864403 Eh/α |
          | HOMO-LUMO GAP               2.199380120497 eV   |
           -------------------------------------------------

 * finished run on 2025/09/14 at 03:33:14.571
