   * xtb version 6.7.1 (edcfbbe) compiled by 'albert@albert-system' on 2024-07-22

   ID    Z sym.   atoms
    1    6 C      1, 2, 4-15, 17-23, 26, 29
    2   16 S      3, 16
    3    9 F      24, 25, 27, 28, 30, 31
    4    1 H      32-45

          program call               : xtb data2507/toluene/benzoxazole/benzoxazole_toluene_T1_crest.xyz --gfn 2 --uhf 2 --gbsa toluene --ohess vtight --parallel 40 --molden --ceasefiles --namespace data2507/toluene/benzoxazole/benzoxazole_toluene_T1_finalOpt
      * Solvation model:               GBSA
        Solvent                        toluene
        Solvent mass                       9.2140E+01 g/mol
          :  Hamiltonian                  GFN2-xTB          :
 * total energy  :   -91.2495354 Eh     change       -0.1077083E-08 Eh
 * total energy  :   -91.2497033 Eh     change       -0.1679549E-03 Eh
 * total energy  :   -91.2497747 Eh     change       -0.7140856E-04 Eh
 * total energy  :   -91.2497952 Eh     change       -0.2051683E-04 Eh
 * total energy  :   -91.2498165 Eh     change       -0.2124842E-04 Eh
 * total energy  :   -91.2498297 Eh     change       -0.1316540E-04 Eh
 * total energy  :   -91.2498540 Eh     change       -0.2437560E-04 Eh
 * total energy  :   -91.2499028 Eh     change       -0.4882249E-04 Eh
 * total energy  :   -91.2499318 Eh     change       -0.2895654E-04 Eh
 * total energy  :   -91.2499665 Eh     change       -0.3473953E-04 Eh
 * total energy  :   -91.2500870 Eh     change       -0.3316928E-06 Eh
 * total energy  :   -91.2500879 Eh     change       -0.8980036E-06 Eh
 * total energy  :   -91.2500886 Eh     change       -0.6951209E-06 Eh
 * total energy  :   -91.2500889 Eh     change       -0.3578868E-06 Eh
 * total energy  :   -91.2500892 Eh     change       -0.2603239E-06 Eh
 * total energy  :   -91.2500894 Eh     change       -0.2124055E-06 Eh
 * total energy  :   -91.2500895 Eh     change       -0.1549555E-06 Eh
 * total energy  :   -91.2500897 Eh     change       -0.1170421E-06 Eh
 * total energy  :   -91.2500898 Eh     change       -0.9223984E-07 Eh
   *** GEOMETRY OPTIMIZATION CONVERGED AFTER 30 ITERATIONS ***

 final structure:
================
45
 xtb: 6.7.1 (edcfbbe)
C            0.51804756939936        3.66606398504014       -1.15321953423102
C           -0.31639081204261        2.87872384599895       -0.21239662872222
S           -1.84132866166180        3.53881932672442        0.23777841718278
C           -2.23778565116110        2.13684084471567        1.20418065401423
C           -3.37585309355642        1.97582176272005        1.97255703384337
C           -3.48049946540630        0.84044906353321        2.75798781883291
C           -2.44085690748036       -0.08004768864681        2.79656632624546
C           -1.31054507837347        0.08798833796620        2.01798545161314
C           -1.20979456427910        1.18315075819425        1.16357461451303
C           -0.11113221638043        1.58017959236924        0.29475428150350
C            0.95071810196003        0.72494663993816       -0.04207187968845
C            0.94095306773162       -0.72720532526765        0.06747764822588
C           -0.12632370014050       -1.57301537927613       -0.27232737372760
C           -0.36083085478277       -2.85642216734047        0.25797905590851
C            0.43813832035084       -3.62755457857425        1.24199688650853
S           -1.87537442106644       -3.51456465188348       -0.22962691564425
C           -2.23184405724340       -2.12502824284127       -1.22971456264775
C           -3.34689396192702       -1.96576450215819       -2.03148563503769
C           -3.42415458893278       -0.83668146897560       -2.82911609215850
C           -2.38153651985015        0.08125260398283       -2.84394519730572
C           -1.27339566177765       -0.08566873822209       -2.03390551954844
C           -1.19952328817996       -1.17712005829272       -1.17211059908221
C            2.30838179035993       -1.17643179853834        0.43626786700276
F            2.69740978460797       -2.36322671609765       -0.09671557209305
F            2.51184627710177       -1.33126848251976        1.79612476532298
C            3.24916828996499       -0.04210281622682       -0.05967140324523
F            4.19027126953186        0.27877657777843        0.85568166485255
F            3.91975751947695       -0.44617946533880       -1.16346041289234
C            2.32914401453068        1.17200002346250       -0.37557799820406
F            2.75469756369070        2.26329394312267        0.32143666902768
F            2.52531800468796        1.52229194297547       -1.69550299879272
H           -0.01475919880264        4.56392217773273       -1.45675460989786
H            0.76206234079507        3.08658916995362       -2.04417786703945
H            1.45888207628698        3.96697480151576       -0.69078489649057
H           -4.15029161969599        2.72628500284321        1.96534597709461
H           -4.36080198533475        0.68654525453245        3.36252521499753
H           -2.50951526225432       -0.93754445065291        3.44832167408224
H           -0.49752286890745       -0.61448478727130        2.08952367236448
H            1.29419393954195       -4.10609880631179        0.76244332503174
H           -0.17614582940113       -4.40540988007668        1.68974419283090
H            0.82266721683252       -2.98386742959403        2.03208511977596
H           -4.12531009717752       -2.71208828329661       -2.03896678176182
H           -4.28624868334148       -0.68459153404448       -3.45980580205044
H           -2.43047429412557        0.93550069534631       -3.50172063492128
H           -0.45710361057124        0.61526814030203       -2.08410765519170

          :  Hamiltonian                  GFN2-xTB          :
         :: gradient norm              0.000079768241 Eh/a0 ::
         :: HOMO-LUMO gap              1.264124597236 eV    ::
         :: SCC energy               -92.290913568328 Eh    ::
         :: -> dispersion             -0.067945103868 Eh    ::
         :: -> Gsolv                  -0.035009583803 Eh    ::
         :: repulsion energy           1.040823813383 Eh    ::

    * Orbital Energies and Occupations

         #    Occupation            Energy/Eh            Energy/eV
      -------------------------------------------------------------
         1        2.0000           -0.8905776             -24.2339
       ...           ...                  ...                  ...
        69        2.0000           -0.4618023             -12.5663
        70        2.0000           -0.4504858             -12.2583
        71        2.0000           -0.4490421             -12.2191
        72        2.0000           -0.4477724             -12.1845
        73        2.0000           -0.4450770             -12.1112
        74        2.0000           -0.4416701             -12.0185
        75        2.0000           -0.4389674             -11.9449
        76        2.0000           -0.4248240             -11.5601
        77        2.0000           -0.4087392             -11.1224
        78        2.0000           -0.4071764             -11.0798
        79        2.0000           -0.3993900             -10.8680
        80        1.0000           -0.3720482             -10.1239
        81        1.0000           -0.3148125              -8.5665 (HOMO)
        82                         -0.2683567              -7.3024 (LUMO)
        83                         -0.2571767              -6.9981
        84                         -0.2442336              -6.6459
        85                         -0.2440293              -6.6404
        86                         -0.2224166              -6.0523
        87                         -0.2208120              -6.0086
        88                         -0.2022268              -5.5029
        89                         -0.1827581              -4.9731
        90                         -0.1361381              -3.7045
        91                         -0.1354273              -3.6852
        92                         -0.1132451              -3.0816
       ...                                ...                  ...
       148                          0.6888096              18.7435
      -------------------------------------------------------------
                  HL-Gap            0.0464557 Eh            1.2641 eV

     #   Z          covCN         q      C6AA      α(0)
     1   6 C        3.794    -0.112    22.638     6.775
     2   6 C        2.968     0.020    27.564     8.612
     3  16 S        2.268     0.023   140.135    19.924
     4   6 C        3.001     0.030    27.307     8.572
     5   6 C        2.936    -0.032    28.805     8.802
     6   6 C        2.923    -0.024    28.601     8.770
     7   6 C        2.918    -0.029    28.722     8.788
     8   6 C        2.920    -0.028    28.701     8.785
     9   6 C        3.124    -0.003    27.902     8.650
    10   6 C        3.090     0.007    27.753     8.635
    11   6 C        2.979    -0.081    30.029     8.989
    12   6 C        2.979    -0.081    30.025     8.988
    13   6 C        3.090     0.007    27.766     8.637
    14   6 C        2.968     0.020    27.559     8.611
    15   6 C        3.793    -0.111    22.637     6.775
    16  16 S        2.266     0.022   140.150    19.925
    17   6 C        3.001     0.031    27.306     8.572
    18   6 C        2.936    -0.032    28.803     8.802
    19   6 C        2.923    -0.024    28.602     8.770
    20   6 C        2.918    -0.029    28.719     8.788
    21   6 C        2.920    -0.028    28.701     8.785
    22   6 C        3.123    -0.003    27.906     8.651
    23   6 C        3.543     0.318    16.704     5.985
    24   9 F        0.787    -0.221    11.456     3.998
    25   9 F        0.786    -0.242    11.679     4.037
    26   6 C        3.541     0.312    16.790     6.004
    27   9 F        0.787    -0.208    11.314     3.973
    28   9 F        0.787    -0.209    11.326     3.975
    29   6 C        3.541     0.317    16.735     5.995
    30   9 F        0.787    -0.226    11.512     4.008
    31   9 F        0.786    -0.237    11.625     4.027
    32   1 H        0.925     0.069     2.098     2.265
    33   1 H        0.924     0.070     2.083     2.257
    34   1 H        0.924     0.071     2.072     2.251
    35   1 H        0.926     0.061     2.189     2.314
    36   1 H        0.926     0.058     2.218     2.329
    37   1 H        0.926     0.054     2.268     2.355
    38   1 H        0.926     0.044     2.400     2.423
    39   1 H        0.924     0.075     2.036     2.231
    40   1 H        0.925     0.070     2.088     2.260
    41   1 H        0.925     0.065     2.136     2.285
    42   1 H        0.926     0.061     2.188     2.313
    43   1 H        0.926     0.058     2.217     2.329
    44   1 H        0.926     0.054     2.270     2.356
    45   1 H        0.926     0.043     2.409     2.427

molecular dipole:
                 x           y           z       tot (Debye)
 q only:       -4.814      -0.012      -0.038
   full:       -4.089      -0.017      -0.034      10.393

 projected vibrational frequencies (cm⁻¹)
eigval :       -0.00    -0.00    -0.00     0.00     0.00     0.00
eigval :       16.39    22.62    32.18    44.99    45.50    60.39
eigval :       69.02    92.80   111.70   140.45   146.96   159.32
eigval :      166.84   181.75   194.63   202.41   205.48   216.50
eigval :      225.93   233.55   245.64   250.10   272.34   278.27
eigval :      288.65   305.75   306.92   318.10   334.00   375.44
eigval :      392.17   398.09   400.76   404.00   418.51   444.76
eigval :      458.05   460.99   467.66   479.47   486.15   501.50
eigval :      504.63   539.84   555.24   566.94   582.01   589.56
eigval :      610.76   634.50   673.20   680.43   688.31   702.44
eigval :      703.85   743.09   754.37   771.99   772.97   819.27
eigval :      853.67   871.02   871.83   881.74   902.11   909.78
eigval :      910.80   920.79   921.92   939.10   958.73   984.29
eigval :     1000.81  1006.25  1016.11  1044.72  1045.02  1070.22
eigval :     1072.68  1077.53  1080.48  1081.81  1139.53  1149.14
eigval :     1150.76  1159.55  1162.71  1168.95  1174.19  1182.96
eigval :     1203.91  1220.97  1231.26  1251.95  1271.68  1331.58
eigval :     1332.95  1352.97  1364.29  1396.65  1399.20  1405.02
eigval :     1407.98  1428.64  1440.24  1447.91  1460.06  1460.21
eigval :     1473.99  1477.70  1493.23  1558.87  1560.30  1571.84
eigval :     1572.03  2980.08  2988.24  3005.99  3019.26  3039.35
eigval :     3043.58  3090.47  3090.55  3098.18  3098.32  3107.31
eigval :     3107.75  3121.38  3124.33

   temp. (K)  partition function   enthalpy   heat capacity  entropy
                                   cal/mol     cal/K/mol   cal/K/mol   J/K/mol
 298.15  VIB  0.162E+12            15725.637     96.965     95.982
         ROT  0.171E+08              888.752      2.981     36.080
         INT  0.278E+19            16614.389     99.946    132.062
         TR   0.981E+28             1481.254      4.968     44.301
         TOT                       18095.6428   104.9137   176.3631   737.9031

       T/K    H(0)-H(T)+PV         H(T)/Eh          T*S/Eh         G(T)/Eh
   ------------------------------------------------------------------------
    298.15    0.288372E-01    0.328392E+00    0.837958E-01    0.244597E+00
   ------------------------------------------------------------------------

         :::::::::::::::::::::::::::::::::::::::::::::::::::::
         ::                  THERMODYNAMIC                  ::
         :::::::::::::::::::::::::::::::::::::::::::::::::::::
         :: total free energy         -91.005493188259 Eh   ::
         ::.................................................::
         :: total energy              -91.250089758306 Eh   ::
         :: zero point energy           0.299555114917 Eh   ::
         :: G(RRHO) w/o ZPVE           -0.054958544870 Eh   ::
         :: G(RRHO) contrib.            0.244596570047 Eh   ::
         :::::::::::::::::::::::::::::::::::::::::::::::::::::

           -------------------------------------------------
          | TOTAL ENERGY              -91.250089758306 Eh   |
          | TOTAL ENTHALPY            -90.921697400964 Eh   |
          | TOTAL FREE ENERGY         -91.005493188259 Eh   |
          | GRADIENT NORM               0.000079838622 Eh/α |
          | HOMO-LUMO GAP               1.264124777188 eV   |
           -------------------------------------------------

 * finished run on 2025/09/14 at 03:37:36.543
