   * xtb version 6.7.1 (edcfbbe) compiled by 'albert@albert-system' on 2024-07-22

   ID    Z sym.   atoms
    1    6 C      1, 2, 4-15, 17-23, 26, 29
    2   16 S      3, 16
    3    9 F      24, 25, 27, 28, 30, 31
    4    1 H      32-45

          program call               : xtb data2507/toluene/benzoxazole/benzoxazole_toluene_S0_finalOpt.xtbopt.xyz --gfn 2 --uhf 2 --gbsa toluene --ohess vtight --parallel 40 --molden --ceasefiles --namespace data2507/toluene/benzoxazole/benzoxazole_toluene_T1_preOpt
      * Solvation model:               GBSA
        Solvent                        toluene
        Solvent mass                       9.2140E+01 g/mol
          :  Hamiltonian                  GFN2-xTB          :
 * total energy  :   -91.2308138 Eh     change       -0.2457361E-07 Eh
 * total energy  :   -91.2379071 Eh     change       -0.7093245E-02 Eh
 * total energy  :   -91.2413642 Eh     change       -0.3457148E-02 Eh
 * total energy  :   -91.2422401 Eh     change       -0.8758931E-03 Eh
 * total energy  :   -91.2431004 Eh     change       -0.8603202E-03 Eh
 * total energy  :   -91.2437479 Eh     change       -0.6475253E-03 Eh
 * total energy  :   -91.2443667 Eh     change       -0.6187847E-03 Eh
 * total energy  :   -91.2448540 Eh     change       -0.4872749E-03 Eh
 * total energy  :   -91.2453323 Eh     change       -0.4783323E-03 Eh
 * total energy  :   -91.2458015 Eh     change       -0.4691766E-03 Eh
 * total energy  :   -91.2501042 Eh     change        0.1678586E-09 Eh
 * total energy  :   -91.2501044 Eh     change       -0.2367152E-06 Eh
 * total energy  :   -91.2501047 Eh     change       -0.3019192E-06 Eh
 * total energy  :   -91.2501050 Eh     change       -0.2634902E-06 Eh
 * total energy  :   -91.2501052 Eh     change       -0.2217538E-06 Eh
 * total energy  :   -91.2501053 Eh     change       -0.1483575E-06 Eh
 * total energy  :   -91.2501055 Eh     change       -0.1065481E-06 Eh
 * total energy  :   -91.2501056 Eh     change       -0.1143842E-06 Eh
 * total energy  :   -91.2501057 Eh     change       -0.9090593E-07 Eh
   *** GEOMETRY OPTIMIZATION CONVERGED AFTER 59 ITERATIONS ***

 final structure:
================
45
 xtb: 6.7.1 (edcfbbe)
C            0.42470245590412        3.63002651435886       -1.33053865446194
C           -0.38052189347373        2.86067505297936       -0.35018559600069
S           -1.91610573348657        3.50273968938371        0.08984281361268
C           -2.26692643108034        2.13503132624940        1.12062964739136
C           -3.39078348190679        1.98198709320517        1.91124418905661
C           -3.45838793635151        0.88052489992748        2.74730997997110
C           -2.39673680903260       -0.01293110787437        2.81165837357016
C           -1.28123766956105        0.14626722802396        2.01021590590300
C           -1.21708555035079        1.20465575060958        1.10721722584900
C           -0.13914074956083        1.58875797781491        0.20676433168437
C            0.93640982850318        0.74318073875947       -0.11072004471482
C            0.96223409078332       -0.70237057495671        0.06595858092515
C           -0.09009725032066       -1.58819259550980       -0.21230878112836
C           -0.28342415978348       -2.84910554667923        0.38420969259885
C            0.54946229590221       -3.54915965410953        1.39299389922616
S           -1.78673477921568       -3.56923327295902       -0.04736162401605
C           -2.19603763475856       -2.23794029964901       -1.10473349183537
C           -3.32881403132400       -2.14449396732306       -1.89187332339300
C           -3.45046652740550       -1.05504126541137       -2.73761849289640
C           -2.43335985560278       -0.11181139911161       -2.81325335900657
C           -1.30691781782062       -0.21291240211580       -2.01769806058553
C           -1.18844913290784       -1.26210994474930       -1.10963959573675
C            2.34694802677772       -1.10074982965868        0.42873237642072
F            2.75018899233113       -2.31172025625313       -0.03282517370398
F            2.58566856983189       -1.15820000154088        1.79098742701153
C            3.24822006822997        0.01745246314285       -0.16535525813285
F            4.23689358924810        0.38603849100175        0.67877586490479
F            3.85858433903132       -0.43259070882958       -1.28664545717467
C            2.29860012154613        1.20625897735640       -0.48791171215589
F            2.71877005868842        2.32156685701991        0.17515172214693
F            2.45902974815152        1.53018501733084       -1.81863151762882
H            1.37476150473614        3.94801943113257       -0.89999798640675
H           -0.12200246827256        4.51662682793975       -1.64237017668007
H            0.64971768330510        3.03061809904056       -2.21347329185092
H           -4.18258115478272        2.71355808582745        1.88207922022739
H           -4.32651076326116        0.73374648393084        3.37091259080604
H           -2.43608310309755       -0.84142724810456        3.50211427824029
H           -0.45121141022195       -0.53350143354319        2.10181269679686
H            1.39384881425577       -4.05474189521725        0.92028476851539
H           -0.04560132856655       -4.29875570725826        1.90971951804917
H            0.95325982277579       -2.85266471300912        2.12637612077582
H           -4.08693868551119       -2.91039252434800       -1.85100855048838
H           -4.32745588775295       -0.95417400159471       -3.35794490989310
H           -2.51701254513133        0.71006410101480       -3.50773641663406
H           -0.51105682171962        0.50642868520562       -2.11435338223449

          :  Hamiltonian                  GFN2-xTB          :
         :: gradient norm              0.000056927011 Eh/a0 ::
         :: HOMO-LUMO gap              1.263450354202 eV    ::
         :: SCC energy               -92.290926220791 Eh    ::
         :: -> dispersion             -0.067968748949 Eh    ::
         :: -> Gsolv                  -0.035024748169 Eh    ::
         :: repulsion energy           1.040820560569 Eh    ::

    * Orbital Energies and Occupations

         #    Occupation            Energy/Eh            Energy/eV
      -------------------------------------------------------------
         1        2.0000           -0.8906219             -24.2351
       ...           ...                  ...                  ...
        69        2.0000           -0.4618496             -12.5676
        70        2.0000           -0.4504949             -12.2586
        71        2.0000           -0.4490342             -12.2188
        72        2.0000           -0.4477824             -12.1848
        73        2.0000           -0.4451107             -12.1121
        74        2.0000           -0.4416486             -12.0179
        75        2.0000           -0.4389625             -11.9448
        76        2.0000           -0.4247946             -11.5593
        77        2.0000           -0.4087403             -11.1224
        78        2.0000           -0.4071696             -11.0796
        79        2.0000           -0.3994221             -10.8688
        80        1.0000           -0.3720495             -10.1240
        81        1.0000           -0.3148315              -8.5670 (HOMO)
        82                         -0.2684006              -7.3036 (LUMO)
        83                         -0.2571323              -6.9969
        84                         -0.2442331              -6.6459
        85                         -0.2440042              -6.6397
        86                         -0.2224110              -6.0521
        87                         -0.2207921              -6.0081
        88                         -0.2021996              -5.5021
        89                         -0.1827269              -4.9723
        90                         -0.1361345              -3.7044
        91                         -0.1354007              -3.6844
        92                         -0.1132685              -3.0822
       ...                                ...                  ...
       148                          0.6888099              18.7435
      -------------------------------------------------------------
                  HL-Gap            0.0464309 Eh            1.2634 eV

     #   Z          covCN         q      C6AA      α(0)
     1   6 C        3.795    -0.112    22.638     6.775
     2   6 C        2.968     0.020    27.567     8.612
     3  16 S        2.268     0.023   140.133    19.924
     4   6 C        3.001     0.031    27.306     8.572
     5   6 C        2.936    -0.032    28.806     8.802
     6   6 C        2.923    -0.024    28.601     8.770
     7   6 C        2.918    -0.029    28.723     8.789
     8   6 C        2.920    -0.028    28.701     8.785
     9   6 C        3.124    -0.003    27.901     8.650
    10   6 C        3.089     0.007    27.750     8.635
    11   6 C        2.979    -0.081    30.028     8.989
    12   6 C        2.979    -0.081    30.024     8.988
    13   6 C        3.090     0.007    27.768     8.637
    14   6 C        2.968     0.020    27.559     8.611
    15   6 C        3.793    -0.111    22.636     6.775
    16  16 S        2.266     0.022   140.151    19.925
    17   6 C        3.001     0.031    27.306     8.572
    18   6 C        2.936    -0.032    28.803     8.802
    19   6 C        2.923    -0.024    28.602     8.770
    20   6 C        2.918    -0.029    28.719     8.788
    21   6 C        2.920    -0.028    28.702     8.785
    22   6 C        3.123    -0.003    27.906     8.651
    23   6 C        3.544     0.318    16.696     5.983
    24   9 F        0.787    -0.221    11.449     3.997
    25   9 F        0.786    -0.243    11.688     4.038
    26   6 C        3.542     0.313    16.782     6.001
    27   9 F        0.787    -0.208    11.314     3.973
    28   9 F        0.787    -0.209    11.329     3.976
    29   6 C        3.541     0.317    16.736     5.995
    30   9 F        0.787    -0.227    11.522     4.010
    31   9 F        0.786    -0.236    11.617     4.026
    32   1 H        0.924     0.071     2.077     2.254
    33   1 H        0.925     0.069     2.099     2.266
    34   1 H        0.924     0.071     2.076     2.253
    35   1 H        0.926     0.061     2.189     2.314
    36   1 H        0.926     0.058     2.218     2.329
    37   1 H        0.926     0.054     2.268     2.355
    38   1 H        0.926     0.044     2.398     2.422
    39   1 H        0.924     0.075     2.032     2.229
    40   1 H        0.925     0.070     2.085     2.258
    41   1 H        0.925     0.065     2.145     2.290
    42   1 H        0.926     0.061     2.188     2.313
    43   1 H        0.926     0.058     2.217     2.329
    44   1 H        0.926     0.054     2.271     2.356
    45   1 H        0.926     0.043     2.411     2.428

molecular dipole:
                 x           y           z       tot (Debye)
 q only:       -4.815      -0.133       0.057
   full:       -4.089      -0.120       0.048      10.399

 projected vibrational frequencies (cm⁻¹)
eigval :       -0.00    -0.00    -0.00    -0.00     0.00     0.00
eigval :       17.59    23.62    32.60    45.93    46.33    63.33
eigval :       69.45    96.59   113.30   140.60   147.63   159.79
eigval :      168.40   185.36   194.60   202.04   206.06   216.73
eigval :      225.04   233.95   244.54   250.02   272.40   278.16
eigval :      289.94   304.99   306.63   317.61   333.72   374.18
eigval :      391.98   398.79   401.18   404.13   418.28   444.49
eigval :      458.39   460.73   467.54   479.33   486.14   501.45
eigval :      505.12   540.11   554.40   567.02   582.24   589.13
eigval :      610.74   634.61   673.33   680.57   688.27   702.53
eigval :      703.96   742.87   754.27   774.06   777.04   818.81
eigval :      853.17   872.90   874.03   881.82   903.00   911.78
eigval :      912.33   923.66   929.37   939.28   958.55   983.64
eigval :      999.74  1005.43  1015.80  1044.40  1045.00  1069.59
eigval :     1072.63  1077.59  1080.42  1081.81  1139.09  1149.42
eigval :     1150.96  1159.30  1163.40  1170.11  1175.07  1183.68
eigval :     1203.90  1220.76  1230.94  1251.72  1271.19  1331.69
eigval :     1333.02  1352.69  1364.02  1395.96  1398.18  1404.63
eigval :     1407.74  1428.71  1440.35  1447.97  1459.88  1460.06
eigval :     1473.98  1478.49  1493.00  1558.92  1560.32  1571.93
eigval :     1572.10  2979.12  2987.65  3005.91  3022.00  3037.85
eigval :     3043.08  3091.00  3091.25  3098.36  3098.59  3107.24
eigval :     3107.72  3120.55  3125.80

   temp. (K)  partition function   enthalpy   heat capacity  entropy
                                   cal/mol     cal/K/mol   cal/K/mol   J/K/mol
 298.15  VIB  0.124E+12            15701.039     97.036     95.674
         ROT  0.171E+08              888.752      2.981     36.079
         INT  0.213E+19            16589.791    100.017    131.753
         TR   0.981E+28             1481.254      4.968     44.301
         TOT                       18071.0454   104.9855   176.0547   736.6128

       T/K    H(0)-H(T)+PV         H(T)/Eh          T*S/Eh         G(T)/Eh
   ------------------------------------------------------------------------
    298.15    0.287980E-01    0.328441E+00    0.836493E-01    0.244791E+00
   ------------------------------------------------------------------------

         :::::::::::::::::::::::::::::::::::::::::::::::::::::
         ::                  THERMODYNAMIC                  ::
         :::::::::::::::::::::::::::::::::::::::::::::::::::::
         :: total free energy         -91.005314255524 Eh   ::
         ::.................................................::
         :: total energy              -91.250105659313 Eh   ::
         :: zero point energy           0.299642620012 Eh   ::
         :: G(RRHO) w/o ZPVE           -0.054851216223 Eh   ::
         :: G(RRHO) contrib.            0.244791403789 Eh   ::
         :::::::::::::::::::::::::::::::::::::::::::::::::::::

           -------------------------------------------------
          | TOTAL ENERGY              -91.250105659313 Eh   |
          | TOTAL ENTHALPY            -90.921664995368 Eh   |
          | TOTAL FREE ENERGY         -91.005314255524 Eh   |
          | GRADIENT NORM               0.000057025006 Eh/α |
          | HOMO-LUMO GAP               1.263449506893 eV   |
           -------------------------------------------------

 * finished run on 2025/09/14 at 03:35:25.112
