   * xtb version 6.7.1 (edcfbbe) compiled by 'albert@albert-system' on 2024-07-22

   ID    Z sym.   atoms
    1    8 O      1, 3
    2   16 S      2
    3    6 C      4-12, 14-41
    4    7 N      13
    5    1 H      42-64

          program call               : xtb data2507/gas/DBT-SADF/DBT-SADF_gas_T1_crest.xyz --gfn 2 --spinpol --tblite --uhf 2 --ohess vtight --parallel 40 --molden --ceasefiles --namespace data2507/gas/DBT-SADF/DBT-SADF_gas_T1_finalOpt
 * total energy  :  -105.1872366 Eh     change       -0.5091550E-08 Eh
 * total energy  :  -105.1872999 Eh     change       -0.6335966E-04 Eh
 * total energy  :  -105.1873216 Eh     change       -0.2160766E-04 Eh
 * total energy  :  -105.1873257 Eh     change       -0.4132041E-05 Eh
 * total energy  :  -105.1873323 Eh     change       -0.6572103E-05 Eh
 * total energy  :  -105.1873366 Eh     change       -0.4301379E-05 Eh
 * total energy  :  -105.1873407 Eh     change       -0.4094248E-05 Eh
 * total energy  :  -105.1873441 Eh     change       -0.3417209E-05 Eh
 * total energy  :  -105.1873472 Eh     change       -0.3148514E-05 Eh
 * total energy  :  -105.1873500 Eh     change       -0.2826726E-05 Eh
 * total energy  :  -105.1873679 Eh     change       -0.1647756E-06 Eh
 * total energy  :  -105.1873681 Eh     change       -0.1701635E-06 Eh
 * total energy  :  -105.1873682 Eh     change       -0.1765027E-06 Eh
 * total energy  :  -105.1873684 Eh     change       -0.1529019E-06 Eh
 * total energy  :  -105.1873686 Eh     change       -0.1677004E-06 Eh
 * total energy  :  -105.1873687 Eh     change       -0.1671234E-06 Eh
 * total energy  :  -105.1873689 Eh     change       -0.1603295E-06 Eh
 * total energy  :  -105.1873690 Eh     change       -0.1248710E-06 Eh
 * total energy  :  -105.1873691 Eh     change       -0.9682873E-07 Eh
   *** GEOMETRY OPTIMIZATION CONVERGED AFTER 38 ITERATIONS ***

 final structure:
================
64
 xtb: 6.7.1 (edcfbbe)
O            6.19364458039183       -2.03281671699720       -0.94138695786569
S            5.71884884392688       -1.26205879462161        0.18195960885685
O            6.18949125338883       -1.67108509230121        1.48345480821611
C            5.93959466933991        0.48832716771269       -0.07430668008256
C            7.10942836885927        1.18533250738845       -0.15656758066646
C            7.06451039244096        2.56588595859200       -0.36289662594505
C            5.82187679600495        3.21468293946478       -0.47523771802135
C            4.64433728193793        2.52589952348956       -0.39046373993622
C            4.65978584820344        1.11824762262864       -0.17721332505123
C            3.57159776350231        0.25135218655561       -0.03513184906754
C            2.18843949001356        0.55001756146898       -0.10273331763835
C            1.26736973909337       -0.45425347909565       -0.00469856231634
N           -0.12233591058009       -0.18755634894691       -0.04307196494043
C           -0.72385913156084        0.56544560872585        0.95093952028921
C            0.03799120951017        1.12534927734514        1.98620265176743
C           -0.55647631366851        1.88584508382042        2.96808721508489
C           -1.92707373446671        2.10422045685682        2.95231720785959
C           -2.69317824885834        1.52210369653144        1.96133561191031
C           -2.11450725095202        0.74870359422210        0.96480111786746
C           -3.01382588356195        0.07466095323332       -0.03434665917928
C           -3.96001337731105       -0.87832365507547        0.68115750799467
C           -3.63959935292567       -1.99032716481248        1.42651067940576
C           -4.67326134126890       -2.72449873378698        1.99358980754699
C           -5.99461505990907       -2.34558522709422        1.81304594060590
C           -6.31895175208485       -1.22566212304178        1.06397931258727
C           -5.29313240269197       -0.48876005860465        0.49569701339364
C           -5.31565524880062        0.71212810530798       -0.32577451983772
C           -6.36988352289450        1.48275952302643       -0.78737387541692
C           -6.08744284492366        2.59410011833638       -1.56578843310867
C           -4.77963542863224        2.93154804882500       -1.87885722265001
C           -3.71767164584346        2.16311003453348       -1.41952091780868
C           -3.99573385268112        1.05907682506461       -0.64550035238224
C           -2.25212467424762       -0.65169037156222       -1.10709502589043
C           -2.95229936321429       -1.24034151558057       -2.14954223141312
C           -2.29393409643933       -1.90416091948916       -3.16810592258264
C           -0.90735375417084       -1.95687732781377       -3.16437875206983
C           -0.19261252250352       -1.37430200748450       -2.14105999803023
C           -0.85386739217512       -0.74231466468769       -1.07657893671590
C            1.65863071511900       -1.82353813629257        0.17931649417548
C            3.01496936231589       -2.13098555085359        0.27297901342065
C            3.94040655040051       -1.13721388968346        0.16229234374595
H            8.05180566214901        0.66691464541067       -0.06825399732677
H            7.97756768404584        3.13372691748239       -0.44019379336486
H            5.80641380571969        4.28375060230661       -0.63222080729437
H            3.69889700736020        3.03969010318672       -0.47576518535952
H            1.86412369562715        1.57007355191483       -0.24546686118654
H            1.10077508298586        0.94839022266086        2.02098253342620
H            0.05199156815645        2.30807970086946        3.75283012422318
H           -2.39382445638842        2.70722497241613        3.71518764442524
H           -3.76452498917390        1.65811576603662        1.95620674105644
H           -2.61032046318289       -2.28586233017196        1.56955214114199
H           -4.44406881412277       -3.60023182218359        2.58194917406724
H           -6.78176545768025       -2.93191799767764        2.26349024747584
H           -7.34941362495711       -0.93421590496014        0.92685401737436
H           -7.38989936971522        1.22375793114451       -0.54642409498997
H           -6.89711459079249        3.20639915527776       -1.93437700060063
H           -4.58350648829448        3.80169559005409       -2.48718144701471
H           -2.69893011174543        2.42601103420795       -1.66464275145317
H           -4.03003648001569       -1.17203488779569       -2.15664525161625
H           -2.85561470601698       -2.35979670024167       -3.96840254988401
H           -0.38006746641303       -2.44451001811743       -3.96959509576251
H            0.88506713497312       -1.39387821905757       -2.16263561056708
H            0.89918651577060       -2.57812335439594        0.29850303085139
H            3.33481767272830       -3.15132030457078        0.41809370607130

 projected vibrational frequencies (cm⁻¹)
eigval :       -0.00    -0.00    -0.00     0.00     0.00     0.00
eigval :        3.98    16.08    24.13    36.30    42.28    47.61
eigval :       60.68    70.45    84.36    94.51    99.64   113.50
eigval :      115.58   130.08   138.86   145.16   166.64   199.01
eigval :      224.70   231.02   234.99   242.85   247.51   274.18
eigval :      277.14   292.98   326.02   334.10   353.55   361.73
eigval :      384.30   387.84   395.97   403.77   409.72   411.41
eigval :      418.23   429.22   445.25   455.93   459.95   462.32
eigval :      489.63   501.99   504.35   505.59   521.48   526.99
eigval :      538.73   540.80   573.75   586.88   594.57   599.77
eigval :      601.02   613.36   625.44   649.38   651.19   672.03
eigval :      678.49   684.70   685.76   692.99   700.54   709.35
eigval :      724.47   728.94   753.05   769.36   770.63   774.48
eigval :      776.78   786.18   801.80   837.06   866.80   875.79
eigval :      878.26   878.90   879.63   885.67   892.04   895.89
eigval :      904.35   910.38   910.80   913.08   916.30   916.66
eigval :      919.14   923.62   926.35   927.82   928.46   945.03
eigval :      971.75   990.94  1002.66  1011.89  1040.70  1074.17
eigval :     1078.64  1082.04  1096.04  1102.36  1103.84  1119.38
eigval :     1123.78  1127.72  1141.60  1142.45  1155.01  1172.70
eigval :     1174.15  1177.16  1180.93  1181.77  1185.78  1191.52
eigval :     1199.91  1212.79  1222.33  1224.54  1232.15  1240.19
eigval :     1250.05  1256.77  1264.61  1274.86  1282.57  1286.13
eigval :     1298.83  1312.41  1325.17  1328.84  1330.63  1334.80
eigval :     1335.71  1351.62  1366.69  1375.65  1414.49  1425.72
eigval :     1427.80  1431.05  1452.78  1458.32  1458.99  1470.52
eigval :     1471.15  1493.33  1494.74  1524.05  1550.00  1557.63
eigval :     1564.70  1574.09  1585.06  1587.09  1595.28  1598.15
eigval :     1602.43  3072.90  3076.14  3077.02  3080.21  3081.33
eigval :     3082.20  3088.12  3088.39  3088.45  3088.73  3090.37
eigval :     3091.91  3092.27  3094.18  3094.82  3096.32  3097.96
eigval :     3104.82  3105.01  3105.68  3109.35  3113.24  3114.00

   temp. (K)  partition function   enthalpy   heat capacity  entropy
                                   cal/mol     cal/K/mol   cal/K/mol   J/K/mol
 298.15  VIB  0.781E+14            18417.445    120.023    113.631
         ROT  0.455E+08              888.752      2.981     38.024
         INT  0.355E+22            19306.198    123.004    151.655
         TR   0.123E+29             1481.254      4.968     44.756
         TOT                       20787.4517   127.9724   196.4108   821.7829

       T/K    H(0)-H(T)+PV         H(T)/Eh          T*S/Eh         G(T)/Eh
   ------------------------------------------------------------------------
    298.15    0.331269E-01    0.507275E+00    0.933211E-01    0.413954E+00
   ------------------------------------------------------------------------

         :::::::::::::::::::::::::::::::::::::::::::::::::::::
         ::                  THERMODYNAMIC                  ::
         :::::::::::::::::::::::::::::::::::::::::::::::::::::
         :: total free energy        -104.773414913565 Eh   ::
         ::.................................................::
         :: total energy             -105.187369104090 Eh   ::
         :: zero point energy           0.474148400628 Eh   ::
         :: G(RRHO) w/o ZPVE           -0.060194210103 Eh   ::
         :: G(RRHO) contrib.            0.413954190526 Eh   ::
         :::::::::::::::::::::::::::::::::::::::::::::::::::::

           -------------------------------------------------
          | TOTAL ENERGY             -105.187369104090 Eh   |
          | TOTAL ENTHALPY           -104.680093790510 Eh   |
          | TOTAL FREE ENERGY        -104.773414913565 Eh   |
          | GRADIENT NORM               0.000045197034 Eh/α |
           -------------------------------------------------

 * finished run on 2025/09/10 at 03:03:18.925
