   * xtb version 6.7.1 (edcfbbe) compiled by 'albert@albert-system' on 2024-07-22

   ID    Z sym.   atoms
    1    8 O      1, 3
    2   16 S      2
    3    6 C      4-12, 14-41
    4    7 N      13
    5    1 H      42-64

          program call               : xtb data2507/gas/DBT-SADF/DBT-SADF_gas_S0_crest.xyz --gfn 2 --ohess vtight --parallel 40 --molden --ceasefiles --namespace data2507/gas/DBT-SADF/DBT-SADF_gas_S0_finalOpt
          :  Hamiltonian                  GFN2-xTB          :
 * total energy  :  -105.2798065 Eh     change       -0.3562761E-08 Eh
 * total energy  :  -105.2798071 Eh     change       -0.6435805E-06 Eh
 * total energy  :  -105.2798074 Eh     change       -0.2071453E-06 Eh
 * total energy  :  -105.2798074 Eh     change        0.1874724E-08 Eh
 * total energy  :  -105.2798076 Eh     change       -0.2210237E-06 Eh
 * total energy  :  -105.2798080 Eh     change       -0.3797736E-06 Eh
 * total energy  :  -105.2798084 Eh     change       -0.4491755E-06 Eh
 * total energy  :  -105.2798089 Eh     change       -0.4840153E-06 Eh
 * total energy  :  -105.2798092 Eh     change       -0.3283342E-06 Eh
 * total energy  :  -105.2798093 Eh     change       -0.4680315E-07 Eh
   *** GEOMETRY OPTIMIZATION CONVERGED AFTER 10 ITERATIONS ***

 final structure:
================
64
 xtb: 6.7.1 (edcfbbe)
O            6.27206216331986       -1.92477790141936       -0.91849803142254
S            5.76820829793766       -1.17462777518530        0.19884704907104
O            6.27663244368737       -1.50213423148978        1.50241880490232
C            5.87363964255062        0.59255953386322       -0.10932944680310
C            7.00371159184514        1.36305076667336       -0.24006544751216
C            6.85069718709609        2.72438570908693       -0.47392464569336
C            5.58278185311288        3.27727932613529       -0.56853498724457
C            4.44894007629075        2.49144647208739       -0.43493665004151
C            4.59153001537268        1.12821233881716       -0.20321925352376
C            3.52143623754726        0.14519753451242       -0.03396429515869
C            2.15546708140460        0.38485182067725       -0.08489874458601
C            1.26888221677664       -0.67244138159184        0.10683631703289
N           -0.12439879102273       -0.43191869040865        0.06398908415690
C           -0.71572040885563        0.31378537529758        1.07956666692200
C            0.04812536627568        0.78788147862869        2.14947594767105
C           -0.52841040394646        1.53694386393641        3.15518475710674
C           -1.88223581434842        1.82285310601323        3.12482714525040
C           -2.65024949830069        1.32906170009385        2.08777405353623
C           -2.08798212682974        0.57369681620302        1.06899606162656
C           -2.99644132209461        0.02904187337424       -0.00514184811330
C           -4.09879149003744       -0.81034637983431        0.61275308694191
C           -3.97686050496491       -1.97327582247308        1.33987351090972
C           -5.13125658467397       -2.58162349709549        1.81456772023255
C           -6.37848153939507       -2.03077658341572        1.56271640777145
C           -6.50528444611811       -0.86004665050834        0.83206935171097
C           -5.35731495731025       -0.24894678188519        0.35601492870326
C           -5.17110810417225        0.96418898494421       -0.42612134108188
C           -6.08559150867261        1.87430102928155       -0.92942377783903
C           -5.61293501488374        2.95779330381702       -1.65278215755177
C           -4.25467324214028        3.13051840807981       -1.87089916731174
C           -3.33322992025389        2.22125815499212       -1.36858069131905
C           -3.79866944159606        1.14383920962387       -0.64846037519321
C           -2.25126209483851       -0.75922192078514       -1.05336408370483
C           -2.96963310189818       -1.29152723142401       -2.11418328286082
C           -2.34379973383480       -1.99711351187438       -3.12390666938964
C           -0.96948250195728       -2.15614669731910       -3.08278071929685
C           -0.23910544692282       -1.63417654324383       -2.03453001376088
C           -0.86910210698663       -0.94843725020290       -0.99271880322002
C            1.74347690184597       -1.96157001323294        0.34151415714496
C            3.10823370482494       -2.20658530748491        0.38197618568637
C            3.97201278742491       -1.15300739488775        0.19652938693585
H            7.97907739140900        0.90995908033599       -0.16054300829953
H            7.72170093139208        3.35235996252295       -0.58084701333270
H            5.47553897687979        4.33649435937229       -0.74883212248076
H            3.46928922306098        2.93733218096851       -0.50988969152374
H            1.76587383212513        1.37467480685112       -0.26718475677665
H            1.10157952028488        0.55941901603989        2.20157550130086
H            0.08642683252441        1.89286454844970        3.96823833073036
H           -2.33703811419819        2.41128485624210        3.90633953988257
H           -3.71221374807256        1.52534925575344        2.06210209677054
H           -3.00491461109376       -2.40196922310444        1.53731470717469
H           -5.05699421579210       -3.49450799520984        2.38696695078391
H           -7.26305531707056       -2.52153276690813        1.94186117905826
H           -7.47897974501896       -0.43474532083968        0.63876252472905
H           -7.14455058442820        1.74388885574983       -0.76255799393674
H           -6.31172573702586        3.67793569395459       -2.05298430622770
H           -3.90967388744717        3.98212170497241       -2.43870643398796
H           -2.27478846450005        2.35507092599389       -1.53993882236990
H           -4.03927289203884       -1.14294897829200       -2.14256730370398
H           -2.91999628689713       -2.40773183157549       -3.93830155273753
H           -0.45759597344562       -2.68593830380654       -3.87201004758388
H            0.83334739687441       -1.75399680931044       -2.02822266598509
H            1.03726535897668       -2.76472046926922        0.48756918393808
H            3.49402570004346       -3.19737742036716        0.56155029029302

          :  Hamiltonian                  GFN2-xTB          :
         :: gradient norm              0.000126971166 Eh/a0 ::
         :: HOMO-LUMO gap              1.766713180129 eV    ::
         :: SCC energy              -107.142864694186 Eh    ::
         :: -> dispersion             -0.099456357432 Eh    ::
         :: repulsion energy           1.863055429692 Eh    ::

    * Orbital Energies and Occupations

         #    Occupation            Energy/Eh            Energy/eV
      -------------------------------------------------------------
         1        2.0000           -0.7748206             -21.0839
       ...           ...                  ...                  ...
        85        2.0000           -0.4255758             -11.5805
        86        2.0000           -0.4244974             -11.5512
        87        2.0000           -0.4232158             -11.5163
        88        2.0000           -0.4183102             -11.3828
        89        2.0000           -0.4164522             -11.3322
        90        2.0000           -0.4139411             -11.2639
        91        2.0000           -0.4122379             -11.2176
        92        2.0000           -0.4092242             -11.1356
        93        2.0000           -0.4011960             -10.9171
        94        2.0000           -0.3987830             -10.8514
        95        2.0000           -0.3972350             -10.8093
        96        2.0000           -0.3818946             -10.3919
        97        2.0000           -0.3565728              -9.7028 (HOMO)
        98                         -0.2916475              -7.9361 (LUMO)
        99                         -0.2670394              -7.2665
       100                         -0.2580171              -7.0210
       101                         -0.2542063              -6.9173
       102                         -0.2361205              -6.4252
       103                         -0.2285351              -6.2188
       104                         -0.2276709              -6.1952
       105                         -0.2273784              -6.1873
       106                         -0.2253302              -6.1315
       107                         -0.2184881              -5.9454
       108                         -0.1985463              -5.4027
       ...                                ...                  ...
       192                          1.2214631              33.2377
      -------------------------------------------------------------
                  HL-Gap            0.0649253 Eh            1.7667 eV

     #   Z          covCN         q      C6AA      α(0)
     1   8 O        0.860    -0.531    24.491     6.635
     2  16 S        3.929     0.965   107.646    17.462
     3   8 O        0.860    -0.531    24.488     6.635
     4   6 C        2.991    -0.075    29.871     8.965
     5   6 C        2.926    -0.016    28.407     8.741
     6   6 C        2.924    -0.022    28.567     8.765
     7   6 C        2.919    -0.024    28.604     8.770
     8   6 C        2.919    -0.025    28.639     8.776
     9   6 C        3.109     0.004    27.788     8.636
    10   6 C        3.109     0.004    27.786     8.636
    11   6 C        2.922    -0.038    28.953     8.824
    12   6 C        2.926     0.076    26.297     8.410
    13   7 N        2.753    -0.068    22.554     7.053
    14   6 C        2.924     0.057    26.713     8.476
    15   6 C        2.924    -0.059    29.463     8.901
    16   6 C        2.920    -0.032    28.793     8.799
    17   6 C        2.917    -0.041    29.024     8.834
    18   6 C        2.927    -0.034    28.849     8.808
    19   6 C        2.984    -0.006    28.160     8.705
    20   6 C        3.950     0.011    20.318     6.405
    21   6 C        3.059     0.002    27.912     8.664
    22   6 C        2.914    -0.032    28.802     8.800
    23   6 C        2.923    -0.031    28.780     8.798
    24   6 C        2.921    -0.032    28.799     8.800
    25   6 C        2.915    -0.034    28.844     8.807
    26   6 C        3.034     0.001    27.960     8.673
    27   6 C        3.035     0.002    27.955     8.672
    28   6 C        2.915    -0.034    28.846     8.807
    29   6 C        2.921    -0.032    28.802     8.801
    30   6 C        2.923    -0.032    28.789     8.799
    31   6 C        2.914    -0.032    28.805     8.801
    32   6 C        3.059     0.002    27.913     8.664
    33   6 C        2.984    -0.006    28.161     8.705
    34   6 C        2.927    -0.034    28.848     8.808
    35   6 C        2.917    -0.041    29.017     8.833
    36   6 C        2.920    -0.031    28.783     8.798
    37   6 C        2.924    -0.058    29.451     8.900
    38   6 C        2.924     0.057    26.717     8.476
    39   6 C        2.926    -0.035    28.881     8.813
    40   6 C        2.925    -0.017    28.432     8.744
    41   6 C        2.990    -0.081    30.018     8.987
    42   1 H        0.926     0.059     2.209     2.324
    43   1 H        0.926     0.056     2.248     2.345
    44   1 H        0.926     0.053     2.281     2.362
    45   1 H        0.926     0.052     2.296     2.369
    46   1 H        0.926     0.058     2.224     2.332
    47   1 H        0.926     0.025     2.655     2.548
    48   1 H        0.926     0.032     2.554     2.499
    49   1 H        0.926     0.032     2.562     2.503
    50   1 H        0.926     0.032     2.554     2.499
    51   1 H        0.926     0.025     2.657     2.549
    52   1 H        0.926     0.031     2.569     2.506
    53   1 H        0.926     0.031     2.569     2.507
    54   1 H        0.926     0.032     2.564     2.504
    55   1 H        0.926     0.032     2.563     2.503
    56   1 H        0.926     0.031     2.573     2.509
    57   1 H        0.926     0.030     2.582     2.513
    58   1 H        0.926     0.024     2.674     2.557
    59   1 H        0.926     0.032     2.555     2.500
    60   1 H        0.926     0.032     2.557     2.501
    61   1 H        0.926     0.033     2.539     2.492
    62   1 H        0.926     0.026     2.643     2.542
    63   1 H        0.926     0.062     2.178     2.308
    64   1 H        0.926     0.063     2.169     2.303

molecular dipole:
                 x           y           z       tot (Debye)
 q only:       -1.354       1.707      -0.306
   full:       -1.280       1.682      -0.298       5.426

 projected vibrational frequencies (cm⁻¹)
eigval :       -0.00    -0.00    -0.00     0.00     0.00     0.00
eigval :        3.54    14.26    25.02    30.51    44.32    46.74
eigval :       67.06    71.93    83.87    89.73    97.37   113.18
eigval :      118.05   128.76   140.55   162.42   170.31   195.38
eigval :      230.22   233.83   240.96   244.57   247.67   271.33
eigval :      288.03   294.72   330.98   364.73   374.21   382.52
eigval :      387.88   393.20   397.31   409.57   412.81   421.81
eigval :      427.50   439.06   444.47   462.89   464.77   490.62
eigval :      501.96   506.03   508.72   513.03   515.32   532.35
eigval :      540.22   563.50   587.83   597.15   599.93   603.33
eigval :      615.56   630.14   653.25   674.11   680.17   681.89
eigval :      684.94   691.28   697.29   702.79   721.42   730.38
eigval :      753.96   768.86   773.31   778.51   779.13   786.19
eigval :      786.43   827.96   867.71   869.36   877.02   877.93
eigval :      878.95   883.20   892.87   899.22   909.23   909.83
eigval :      911.29   913.35   914.69   916.47   920.83   922.29
eigval :      922.89   927.07   927.78   928.65   941.40   949.51
eigval :     1006.35  1009.16  1027.11  1073.25  1074.15  1079.08
eigval :     1087.52  1103.85  1109.76  1111.49  1120.87  1126.44
eigval :     1140.21  1142.72  1150.75  1153.90  1176.29  1177.05
eigval :     1178.53  1182.33  1185.55  1190.17  1195.67  1204.98
eigval :     1221.00  1223.81  1232.44  1238.27  1244.45  1247.75
eigval :     1259.61  1266.18  1272.31  1274.81  1284.44  1310.29
eigval :     1313.43  1324.65  1327.16  1333.70  1334.99  1348.59
eigval :     1367.53  1399.87  1417.59  1429.48  1430.10  1436.56
eigval :     1437.25  1449.08  1457.44  1461.67  1472.08  1481.90
eigval :     1492.58  1565.40  1570.55  1574.79  1578.30  1586.62
eigval :     1589.11  1590.34  1596.83  1597.29  1601.16  1603.79
eigval :     1605.55  3072.04  3072.97  3075.75  3076.71  3081.81
eigval :     3082.33  3083.34  3084.56  3084.90  3085.38  3086.30
eigval :     3091.66  3093.04  3094.55  3095.98  3096.06  3097.24
eigval :     3098.35  3101.97  3102.42  3103.22  3108.21  3108.65

   temp. (K)  partition function   enthalpy   heat capacity  entropy
                                   cal/mol     cal/K/mol   cal/K/mol   J/K/mol
 298.15  VIB  0.695E+14            18083.577    117.807    111.945
         ROT  0.454E+08              888.752      2.981     38.018
         INT  0.315E+22            18972.330    120.788    149.963
         TR   0.123E+29             1481.254      4.968     44.756
         TOT                       20453.5838   125.7565   194.7185   814.7020

       T/K    H(0)-H(T)+PV         H(T)/Eh          T*S/Eh         G(T)/Eh
   ------------------------------------------------------------------------
    298.15    0.325949E-01    0.511335E+00    0.925170E-01    0.418818E+00
   ------------------------------------------------------------------------

         :::::::::::::::::::::::::::::::::::::::::::::::::::::
         ::                  THERMODYNAMIC                  ::
         :::::::::::::::::::::::::::::::::::::::::::::::::::::
         :: total free energy        -104.860991580093 Eh   ::
         ::.................................................::
         :: total energy             -105.279809264488 Eh   ::
         :: zero point energy           0.478739846087 Eh   ::
         :: G(RRHO) w/o ZPVE           -0.059922161692 Eh   ::
         :: G(RRHO) contrib.            0.418817684395 Eh   ::
         :::::::::::::::::::::::::::::::::::::::::::::::::::::

           -------------------------------------------------
          | TOTAL ENERGY             -105.279809264488 Eh   |
          | TOTAL ENTHALPY           -104.768474557926 Eh   |
          | TOTAL FREE ENERGY        -104.860991580093 Eh   |
          | GRADIENT NORM               0.000126945953 Eh/α |
          | HOMO-LUMO GAP               1.766708272574 eV   |
           -------------------------------------------------

 * finished run on 2025/09/10 at 02:58:41.797
