   * xtb version 6.7.1 (edcfbbe) compiled by 'albert@albert-system' on 2024-07-22

   ID    Z sym.   atoms
    1    8 O      1, 3
    2   16 S      2
    3    6 C      4-12, 14-41
    4    7 N      13
    5    1 H      42-64

          program call               : xtb data2507/gas/DBT-SADF/DBT-SADF_gas_S0_finalOpt.xtbopt.xyz --gfn 2 --spinpol --tblite --uhf 2 --ohess vtight --parallel 40 --molden --ceasefiles --namespace data2507/gas/DBT-SADF/DBT-SADF_gas_T1_preOpt
 * total energy  :  -105.1790326 Eh     change        0.2622670E-07 Eh
 * total energy  :  -105.1840981 Eh     change       -0.5065457E-02 Eh
 * total energy  :  -105.1867374 Eh     change       -0.2639289E-02 Eh
 * total energy  :  -105.1870264 Eh     change       -0.2889992E-03 Eh
 * total energy  :  -105.1871204 Eh     change       -0.9406441E-04 Eh
 * total energy  :  -105.1871557 Eh     change       -0.3531514E-04 Eh
 * total energy  :  -105.1871741 Eh     change       -0.1836398E-04 Eh
 * total energy  :  -105.1871971 Eh     change       -0.2302978E-04 Eh
 * total energy  :  -105.1872191 Eh     change       -0.2200648E-04 Eh
 * total energy  :  -105.1872355 Eh     change       -0.1639506E-04 Eh
 * total energy  :  -105.1873316 Eh     change       -0.3953340E-06 Eh
 * total energy  :  -105.1873320 Eh     change       -0.4284451E-06 Eh
 * total energy  :  -105.1873325 Eh     change       -0.4099338E-06 Eh
 * total energy  :  -105.1873328 Eh     change       -0.3731168E-06 Eh
 * total energy  :  -105.1873331 Eh     change       -0.2589307E-06 Eh
 * total energy  :  -105.1873332 Eh     change       -0.1576829E-06 Eh
 * total energy  :  -105.1873334 Eh     change       -0.1877250E-06 Eh
 * total energy  :  -105.1873336 Eh     change       -0.1436448E-06 Eh
 * total energy  :  -105.1873336 Eh     change       -0.2085390E-07 Eh
   *** GEOMETRY OPTIMIZATION CONVERGED AFTER 44 ITERATIONS ***

 final structure:
================
64
 xtb: 6.7.1 (edcfbbe)
O            6.22656466587771       -1.95412503352667       -1.02612507218880
S            5.74768918605159       -1.21877047941159        0.11902716305259
O            6.25605547135923       -1.63393951185268        1.40427229702258
C            5.90567855214212        0.54214414276472       -0.11039293170703
C            7.04994055584059        1.27922730345990       -0.20184861280980
C            6.95539055150138        2.66110914948972       -0.38116894250112
C            5.69000262908898        3.27004163521962       -0.45763011343988
C            4.53779542702512        2.54087377351365       -0.36370414930769
C            4.60393989110844        1.13080918438406       -0.17741424656808
C            3.54801324324773        0.22563972265809       -0.03128455804338
C            2.15471005765209        0.47894276567803       -0.06672133903700
C            1.26920767072578       -0.55716512675101        0.02767646772665
N           -0.12779979201181       -0.32660209531528        0.01903975075183
C           -0.72276381085612        0.38522530246256        1.04677161959873
C            0.04499400892434        0.87751991832452        2.11184616993300
C           -0.54070279869541        1.59137174801907        3.13304852233436
C           -1.90830977458001        1.82921785075261        3.12753961308756
C           -2.67984518979966        1.31626513291130        2.10326618834682
C           -2.10996709320977        0.58936824867409        1.06728505348939
C           -3.01320414275038        0.01660613473233        0.01059432497162
C           -4.11030178444174       -0.82243550912290        0.64439645108653
C           -3.97459528395387       -1.97116420760877        1.39082031505466
C           -5.12346416525855       -2.58201292596102        1.87678512604237
C           -6.37585855594023       -2.04724719473908        1.61653306413165
C           -6.51486740252494       -0.89052139645877        0.86597799897693
C           -5.37335492652079       -0.27623391116161        0.37829845062996
C           -5.19921310849011        0.92537005572021       -0.42378871158895
C           -6.12176709135289        1.81898490477037       -0.94217130643034
C           -5.65874682844767        2.89468885393809       -1.68315984411822
C           -4.30227674430654        3.07719672835532       -1.90417211518290
C           -3.37159934756226        2.18504265859885       -1.38744656287334
C           -3.82962820781557        1.11637687618866       -0.65055027747006
C           -2.26786389638723       -0.76816299643205       -1.03227971805767
C           -2.98241514093181       -1.36171827354680       -2.06220189008131
C           -2.34007624182747       -2.05055957831928       -3.07421512598494
C           -0.95414305819172       -2.11829809650755       -3.08008468150188
C           -0.22506946748325       -1.53020521646830       -2.07014032937093
C           -0.87052066385700       -0.87858152123075       -1.00772075797132
C            1.70845515287914       -1.91507712559807        0.18399680814628
C            3.07598324392795       -2.17858304128287        0.24582895131699
C            3.96600479039111       -1.15313325568105        0.13347878868786
H            8.01053650741041        0.79121218820142       -0.14085494907221
H            7.84749047193000        3.26051673321744       -0.46460744407843
H            5.63620899120759        4.34068264214531       -0.59410324147532
H            3.57436723135283        3.02411765280487       -0.42169789571660
H            1.79331907974662        1.49040072926597       -0.17837111680851
H            1.10541148751534        0.68490618121368        2.13695034697562
H            0.07193552016608        1.96155218565343        3.94048119363200
H           -2.36817880445893        2.39586829644966        3.92181353051307
H           -3.74848051719864        1.47232370098858        2.10082707056977
H           -2.99920967050616       -2.38808797046524        1.59544652308508
H           -5.03929757052314       -3.48381606029462        2.46440072593216
H           -7.25512846936022       -2.53952373771949        2.00494003893933
H           -7.49217030933578       -0.47750015034465        0.66623593576218
H           -7.17908697007825        1.68088729618564       -0.77312336103579
H           -6.36402590632633        3.60125200455260       -2.09506729845898
H           -3.96450817297380        3.92227799523005       -2.48505672953446
H           -2.31483895135172        2.32721870138779       -1.56128006418842
H           -4.05887573977216       -1.27504822574767       -2.06562836771166
H           -2.91291216314644       -2.51048181340153       -3.86407170822033
H           -0.43829154864814       -2.62165849305145       -3.88304071232226
H            0.85203227343126       -1.56246521476417       -2.10085067558645
H            0.97680398862599       -2.69542879359231        0.31079204752908
H            3.43202178525926       -3.18978094278580        0.36906781783939

 projected vibrational frequencies (cm⁻¹)
eigval :       -0.00    -0.00     0.00     0.00     0.00     0.00
eigval :        2.97    15.52    23.89    35.63    42.16    47.51
eigval :       60.18    70.12    84.05    94.49    99.72   114.22
eigval :      116.62   128.00   138.69   145.08   166.96   198.91
eigval :      223.78   229.95   237.93   240.47   248.59   271.70
eigval :      276.50   292.89   326.61   334.34   352.59   361.86
eigval :      384.95   387.84   396.10   404.01   409.07   411.12
eigval :      418.48   429.09   442.82   455.33   459.50   462.11
eigval :      490.21   501.95   504.19   505.39   521.96   526.88
eigval :      538.64   540.72   573.89   586.82   594.53   599.79
eigval :      600.83   613.38   625.87   649.31   651.24   672.15
eigval :      679.13   684.99   685.75   692.43   701.11   709.39
eigval :      723.95   729.02   753.04   769.19   770.70   774.06
eigval :      776.70   785.95   800.49   833.96   866.34   875.01
eigval :      878.06   878.09   878.50   885.15   891.75   895.89
eigval :      903.89   910.20   910.44   912.74   916.17   916.35
eigval :      918.98   923.29   925.61   927.54   928.17   945.12
eigval :      971.63   990.55  1002.61  1011.89  1040.26  1073.93
eigval :     1078.47  1082.00  1096.01  1102.33  1103.54  1119.13
eigval :     1124.17  1127.44  1141.56  1141.98  1154.63  1172.64
eigval :     1173.86  1176.70  1180.61  1181.32  1185.51  1191.45
eigval :     1199.76  1212.66  1222.02  1224.27  1232.12  1239.94
eigval :     1249.80  1256.31  1264.86  1274.86  1282.46  1285.74
eigval :     1299.04  1311.81  1325.19  1328.71  1330.94  1334.67
eigval :     1335.94  1351.63  1366.69  1375.60  1414.39  1425.62
eigval :     1427.71  1430.91  1452.91  1458.38  1458.90  1470.44
eigval :     1471.03  1493.29  1494.23  1523.55  1549.81  1557.34
eigval :     1564.84  1574.19  1585.07  1587.09  1595.27  1598.12
eigval :     1602.40  3073.18  3076.36  3076.84  3080.26  3081.24
eigval :     3082.58  3088.34  3088.46  3088.56  3088.70  3090.59
eigval :     3092.06  3092.61  3094.18  3094.76  3096.26  3097.80
eigval :     3104.92  3105.10  3105.63  3109.89  3113.42  3113.90

   temp. (K)  partition function   enthalpy   heat capacity  entropy
                                   cal/mol     cal/K/mol   cal/K/mol   J/K/mol
 298.15  VIB  0.114E+15            18429.562    120.029    114.023
         ROT  0.455E+08              888.752      2.981     38.024
         INT  0.519E+22            19318.315    123.010    152.047
         TR   0.123E+29             1481.254      4.968     44.756
         TOT                       20799.5685   127.9780   196.8025   823.4217

       T/K    H(0)-H(T)+PV         H(T)/Eh          T*S/Eh         G(T)/Eh
   ------------------------------------------------------------------------
    298.15    0.331462E-01    0.507228E+00    0.935072E-01    0.413720E+00
   ------------------------------------------------------------------------

         :::::::::::::::::::::::::::::::::::::::::::::::::::::
         ::                  THERMODYNAMIC                  ::
         :::::::::::::::::::::::::::::::::::::::::::::::::::::
         :: total free energy        -104.773613303407 Eh   ::
         ::.................................................::
         :: total energy             -105.187333586665 Eh   ::
         :: zero point energy           0.474081279449 Eh   ::
         :: G(RRHO) w/o ZPVE           -0.060360996191 Eh   ::
         :: G(RRHO) contrib.            0.413720283258 Eh   ::
         :::::::::::::::::::::::::::::::::::::::::::::::::::::

           -------------------------------------------------
          | TOTAL ENERGY             -105.187333586665 Eh   |
          | TOTAL ENTHALPY           -104.680106084934 Eh   |
          | TOTAL FREE ENERGY        -104.773613303407 Eh   |
          | GRADIENT NORM               0.000040251898 Eh/α |
           -------------------------------------------------

 * finished run on 2025/09/10 at 02:58:48.918
