   * xtb version 6.7.1 (edcfbbe) compiled by 'albert@albert-system' on 2024-07-22

   ID    Z sym.   atoms
    1    8 O      1, 3
    2   16 S      2
    3    6 C      4-12, 14-41
    4    7 N      13
    5    1 H      42-64

          program call               : xtb data2507/gas/DBT-SADF/DBT-SADF.xyz --gfn 2 --ohess vtight --parallel 40 --molden --ceasefiles --namespace data2507/gas/DBT-SADF/DBT-SADF_gas_S0_preOpt
          :  Hamiltonian                  GFN2-xTB          :
 * total energy  :  -105.2579343 Eh     change       -0.4769589E-08 Eh
 * total energy  :  -105.2727852 Eh     change       -0.1485089E-01 Eh
 * total energy  :  -105.2776852 Eh     change       -0.4899946E-02 Eh
 * total energy  :  -105.2786374 Eh     change       -0.9522044E-03 Eh
 * total energy  :  -105.2792475 Eh     change       -0.6101034E-03 Eh
 * total energy  :  -105.2794154 Eh     change       -0.1679116E-03 Eh
 * total energy  :  -105.2794611 Eh     change       -0.4571366E-04 Eh
 * total energy  :  -105.2794747 Eh     change       -0.1364787E-04 Eh
 * total energy  :  -105.2794807 Eh     change       -0.5910340E-05 Eh
 * total energy  :  -105.2794835 Eh     change       -0.2858848E-05 Eh
 * total energy  :  -105.2794904 Eh     change       -0.1010050E-05 Eh
 * total energy  :  -105.2794915 Eh     change       -0.1026986E-05 Eh
 * total energy  :  -105.2794926 Eh     change       -0.1160792E-05 Eh
 * total energy  :  -105.2794942 Eh     change       -0.1541283E-05 Eh
 * total energy  :  -105.2794963 Eh     change       -0.2115360E-05 Eh
 * total energy  :  -105.2794985 Eh     change       -0.2183546E-05 Eh
 * total energy  :  -105.2794998 Eh     change       -0.1385450E-05 Eh
 * total energy  :  -105.2795000 Eh     change       -0.1097796E-06 Eh
 * total energy  :  -105.2795000 Eh     change       -0.9826843E-07 Eh
   *** GEOMETRY OPTIMIZATION CONVERGED AFTER 23 ITERATIONS ***

 final structure:
================
64
 xtb: 6.7.1 (edcfbbe)
O            6.65116745977841       -2.40680094877076       -1.22860350377167
S            6.18837527593118       -1.82348026859171        0.00018438908210
O            6.65104386562728       -2.40655084362357        1.22913786927481
C            6.42598886781642       -0.04253429013759        0.00002613126066
C            7.61086315103683        0.65305254236817       -0.00001576961511
C            7.56046407234417        2.04188042747128       -0.00014238992975
C            6.33758285639265        2.69514186607593       -0.00021187137819
C            5.14781132234006        1.98419201427091       -0.00016704137669
C            5.18759922162207        0.59464384220472       -0.00004947480460
C            4.04629704356802       -0.32062122105158        0.00000736696042
C            2.70085795773928        0.02323682314462       -0.00002918400818
C            1.74262633357112       -0.98531250191506        0.00002931815342
N            0.36525457519368       -0.63875295505962       -0.00000068103611
C           -0.28960115349629       -0.48578030999321        1.21419649075762
C            0.40618670080864       -0.65175984051334        2.41393408192211
C           -0.23464399959237       -0.50065273242445        3.62711809899942
C           -1.58068511976640       -0.18100804252335        3.66984706395548
C           -2.27396263827797       -0.01486737104448        2.48538851726036
C           -1.64750208661670       -0.16244776982944        1.25701450769440
C           -2.46021113140839        0.03338556040835       -0.00004063778078
C           -3.67154755935932       -0.87928778221060        0.00023740356661
C           -3.70010225605435       -2.25596639611148        0.00049084970300
C           -4.93383026785856       -2.89310113669790        0.00066519214513
C           -6.11082310949586       -2.16022357719455        0.00060025078414
C           -6.08650132957179       -0.77461354421907        0.00034887618961
C           -4.85876891096561       -0.13383895167397        0.00015686786531
C           -4.51594288500666        1.28052335247583       -0.00009822720580
C           -5.31378340738818        2.41250864276601       -0.00022810612140
C           -4.70089102203295        3.65543976494386       -0.00052579363740
C           -3.31899826444774        3.76798954730218       -0.00070047457481
C           -2.51422557242227        2.63646589519237       -0.00056092124566
C           -3.11919592654792        1.39953794193148       -0.00025786903770
C           -1.64758153632895       -0.16293518615827       -1.25707029436573
C           -2.27411721182339       -0.01581162119496       -2.48545995019772
C           -1.58090412649615       -0.18236041023323       -3.66989881428835
C           -0.23485010752744       -0.50194633235345       -3.62713525358896
C            0.40605519766743       -0.65260492545805       -2.41393506946631
C           -0.28967079384054       -0.48622671658869       -1.21421673068483
C            2.11586649920494       -2.32613227216799        0.00011286385845
C            3.45954239613227       -2.67377675487218        0.00014964230491
C            4.39741259627339       -1.66877532788316        0.00010195982785
H            8.54947075709269        0.12207929772493        0.00003371952388
H            8.47624194208026        2.61261649745284       -0.00018315281998
H            6.31022929764231        3.77454105449841       -0.00030499118205
H            4.20439873529053        2.50759862987476       -0.00021995926808
H            2.38286498722105        1.05439975511109       -0.00009802611873
H            1.45620495174778       -0.90241840686747        2.39312946487136
H            0.32352021558452       -0.63448784306352        4.54159758754008
H           -2.08606610528438       -0.06240308450253        4.61562571763617
H           -3.32494090221239        0.23441115310108        2.50601857868136
H           -2.78304073660876       -2.82728042982789        0.00042387102271
H           -4.97750273322032       -3.97229659844009        0.00082267457230
H           -7.05938860909866       -2.67725719431041        0.00082290999797
H           -7.00597980128033       -0.20811792692236        0.00039774822080
H           -6.39058841537115        2.33010004287345       -0.00014470550592
H           -5.30736038716625        4.54948984067441       -0.00064716766236
H           -2.86366739342612        4.74748946424066       -0.00090655802960
H           -1.43722959203301        2.72405709554997       -0.00064814046108
H           -3.32509584366299        0.23346416794008       -2.50611580607693
H           -2.08634514583104       -0.06412040166350       -4.61569073243980
H            0.32325861952525       -0.63611625178296       -4.54159985722016
H            1.45607908784448       -0.90323808724275       -2.39310278443889
H            1.35005890443695       -3.08658871465204        0.00015391445919
H            3.77222219000657       -3.70574924982603        0.00023601124785

          :  Hamiltonian                  GFN2-xTB          :
         :: gradient norm              0.000072268466 Eh/a0 ::
         :: HOMO-LUMO gap              1.652856950456 eV    ::
         :: SCC energy              -107.143259500178 Eh    ::
         :: -> dispersion             -0.099301344288 Eh    ::
         :: repulsion energy           1.863759450758 Eh    ::

    * Orbital Energies and Occupations

         #    Occupation            Energy/Eh            Energy/eV
      -------------------------------------------------------------
         1        2.0000           -0.7767568             -21.1366
       ...           ...                  ...                  ...
        85        2.0000           -0.4246881             -11.5564
        86        2.0000           -0.4236580             -11.5283
        87        2.0000           -0.4223025             -11.4914
        88        2.0000           -0.4198952             -11.4259
        89        2.0000           -0.4150827             -11.2950
        90        2.0000           -0.4138780             -11.2622
        91        2.0000           -0.4108174             -11.1789
        92        2.0000           -0.4106345             -11.1739
        93        2.0000           -0.4002325             -10.8909
        94        2.0000           -0.3976775             -10.8214
        95        2.0000           -0.3962784             -10.7833
        96        2.0000           -0.3810163             -10.3680
        97        2.0000           -0.3545573              -9.6480 (HOMO)
        98                         -0.2938158              -7.9951 (LUMO)
        99                         -0.2690966              -7.3225
       100                         -0.2596555              -7.0656
       101                         -0.2533440              -6.8938
       102                         -0.2346174              -6.3843
       103                         -0.2280309              -6.2050
       104                         -0.2268297              -6.1723
       105                         -0.2265180              -6.1639
       106                         -0.2255570              -6.1377
       107                         -0.2174547              -5.9172
       108                         -0.1971914              -5.3659
       ...                                ...                  ...
       192                          1.2205447              33.2127
      -------------------------------------------------------------
                  HL-Gap            0.0607415 Eh            1.6529 eV

     #   Z          covCN         q      C6AA      α(0)
     1   8 O        0.860    -0.531    24.470     6.632
     2  16 S        3.928     0.967   107.603    17.459
     3   8 O        0.860    -0.531    24.470     6.632
     4   6 C        2.991    -0.075    29.869     8.965
     5   6 C        2.926    -0.016    28.403     8.740
     6   6 C        2.924    -0.022    28.558     8.764
     7   6 C        2.919    -0.024    28.598     8.770
     8   6 C        2.919    -0.025    28.630     8.774
     9   6 C        3.109     0.004    27.784     8.636
    10   6 C        3.109     0.005    27.763     8.633
    11   6 C        2.922    -0.037    28.910     8.817
    12   6 C        2.927     0.079    26.245     8.401
    13   7 N        2.754    -0.072    22.641     7.067
    14   6 C        2.926     0.058    26.703     8.474
    15   6 C        2.923    -0.059    29.466     8.902
    16   6 C        2.920    -0.032    28.787     8.798
    17   6 C        2.917    -0.042    29.040     8.837
    18   6 C        2.926    -0.034    28.849     8.808
    19   6 C        2.983    -0.007    28.182     8.708
    20   6 C        3.950     0.011    20.319     6.405
    21   6 C        3.059     0.003    27.908     8.663
    22   6 C        2.914    -0.032    28.799     8.800
    23   6 C        2.923    -0.031    28.782     8.798
    24   6 C        2.921    -0.032    28.802     8.801
    25   6 C        2.915    -0.034    28.846     8.807
    26   6 C        3.035     0.001    27.960     8.673
    27   6 C        3.035     0.002    27.954     8.672
    28   6 C        2.915    -0.034    28.846     8.807
    29   6 C        2.921    -0.032    28.804     8.801
    30   6 C        2.923    -0.032    28.793     8.800
    31   6 C        2.914    -0.032    28.805     8.801
    32   6 C        3.059     0.003    27.910     8.664
    33   6 C        2.983    -0.007    28.182     8.708
    34   6 C        2.926    -0.034    28.849     8.808
    35   6 C        2.917    -0.042    29.040     8.837
    36   6 C        2.920    -0.032    28.787     8.798
    37   6 C        2.923    -0.059    29.466     8.902
    38   6 C        2.926     0.058    26.703     8.474
    39   6 C        2.926    -0.033    28.831     8.806
    40   6 C        2.926    -0.016    28.412     8.741
    41   6 C        2.990    -0.079    29.974     8.981
    42   1 H        0.926     0.060     2.203     2.321
    43   1 H        0.926     0.057     2.240     2.340
    44   1 H        0.926     0.054     2.272     2.357
    45   1 H        0.926     0.053     2.288     2.365
    46   1 H        0.926     0.059     2.212     2.326
    47   1 H        0.926     0.022     2.697     2.568
    48   1 H        0.926     0.032     2.556     2.500
    49   1 H        0.926     0.031     2.569     2.507
    50   1 H        0.926     0.032     2.564     2.504
    51   1 H        0.926     0.025     2.660     2.551
    52   1 H        0.926     0.031     2.573     2.509
    53   1 H        0.926     0.031     2.574     2.509
    54   1 H        0.926     0.031     2.568     2.506
    55   1 H        0.926     0.031     2.565     2.505
    56   1 H        0.926     0.031     2.577     2.510
    57   1 H        0.926     0.030     2.588     2.516
    58   1 H        0.926     0.023     2.682     2.561
    59   1 H        0.926     0.032     2.564     2.504
    60   1 H        0.926     0.031     2.569     2.507
    61   1 H        0.926     0.032     2.556     2.500
    62   1 H        0.926     0.022     2.697     2.568
    63   1 H        0.926     0.063     2.164     2.301
    64   1 H        0.926     0.064     2.153     2.295

molecular dipole:
                 x           y           z       tot (Debye)
 q only:       -1.034       1.815      -0.000
   full:       -0.958       1.778      -0.000       5.134

 projected vibrational frequencies (cm⁻¹)
eigval :       -0.00    -0.00    -0.00    -0.00     0.00     0.00
eigval :      -11.37     4.41    21.83    26.79    43.26    45.54
eigval :       64.66    66.33    83.72    87.37    93.76   111.27
eigval :      117.71   128.74   140.19   163.88   164.04   192.59
eigval :      227.20   230.36   242.37   243.34   245.22   268.08
eigval :      286.94   294.41   330.18   364.55   372.89   381.76
eigval :      387.22   392.26   397.31   409.82   412.75   422.87
eigval :      423.31   437.48   443.84   460.75   463.94   489.71
eigval :      501.51   504.97   508.38   513.30   514.94   531.85
eigval :      540.22   560.11   587.86   596.53   599.44   603.29
eigval :      615.41   631.34   653.93   672.93   681.21   681.35
eigval :      683.93   691.41   698.28   703.14   721.75   730.27
eigval :      754.03   768.61   772.40   777.97   778.97   786.04
eigval :      787.04   824.04   865.75   866.16   872.61   877.66
eigval :      878.69   880.97   892.63   899.54   908.86   909.73
eigval :      910.73   913.43   913.90   914.39   920.66   921.49
eigval :      921.67   926.91   927.70   928.71   941.93   949.89
eigval :     1006.49  1009.00  1027.12  1073.03  1074.10  1079.18
eigval :     1087.57  1102.89  1107.39  1108.82  1121.44  1126.46
eigval :     1139.81  1142.67  1148.95  1153.08  1176.07  1177.12
eigval :     1178.53  1182.61  1184.57  1187.60  1194.86  1205.16
eigval :     1219.04  1223.55  1232.05  1235.95  1244.26  1248.67
eigval :     1259.64  1267.01  1271.14  1273.92  1284.48  1307.07
eigval :     1315.71  1326.63  1327.30  1334.85  1342.66  1346.00
eigval :     1367.55  1399.07  1417.29  1429.53  1430.18  1437.72
eigval :     1439.02  1449.20  1456.84  1461.75  1472.12  1484.46
eigval :     1494.23  1566.99  1571.42  1575.45  1580.08  1586.65
eigval :     1589.54  1590.29  1597.00  1597.36  1601.52  1604.00
eigval :     1605.67  3071.56  3072.78  3075.42  3076.48  3080.77
eigval :     3080.95  3082.99  3083.17  3083.24  3085.05  3086.99
eigval :     3091.31  3092.30  3092.31  3093.01  3095.47  3098.02
eigval :     3099.38  3101.12  3101.65  3102.95  3108.50  3109.09

   temp. (K)  partition function   enthalpy   heat capacity  entropy
                                   cal/mol     cal/K/mol   cal/K/mol   J/K/mol
 298.15  VIB  0.119E+15            18153.299    117.708    112.630
         ROT  0.453E+08              888.752      2.981     38.016
         INT  0.539E+22            19042.051    120.688    150.645
         TR   0.123E+29             1481.254      4.968     44.756
         TOT                       20523.3050   125.6566   195.4009   817.5575

       T/K    H(0)-H(T)+PV         H(T)/Eh          T*S/Eh         G(T)/Eh
   ------------------------------------------------------------------------
    298.15    0.327060E-01    0.511213E+00    0.928413E-01    0.418372E+00
   ------------------------------------------------------------------------

         :::::::::::::::::::::::::::::::::::::::::::::::::::::
         ::                  THERMODYNAMIC                  ::
         :::::::::::::::::::::::::::::::::::::::::::::::::::::
         :: total free energy        -104.861128269396 Eh   ::
         ::.................................................::
         :: total energy             -105.279500049414 Eh   ::
         :: zero point energy           0.478507101294 Eh   ::
         :: G(RRHO) w/o ZPVE           -0.060135321277 Eh   ::
         :: G(RRHO) contrib.            0.418371780018 Eh   ::
         :::::::::::::::::::::::::::::::::::::::::::::::::::::

           -------------------------------------------------
          | TOTAL ENERGY             -105.279500049414 Eh   |
          | TOTAL ENTHALPY           -104.768286979856 Eh   |
          | TOTAL FREE ENERGY        -104.861128269396 Eh   |
          | GRADIENT NORM               0.000072236210 Eh/α |
          | HOMO-LUMO GAP               1.652861387703 eV   |
           -------------------------------------------------

 * finished run on 2025/09/10 at 02:55:25.565
