   * xtb version 6.7.1 (edcfbbe) compiled by 'albert@albert-system' on 2024-07-22

   ID    Z sym.   atoms
    1    6 C      1-8, 10-25, 27-41, 43-52, 54-65
    2    7 N      9, 26, 53
    3    5 B      42
    4    1 H      66-131

          program call               : xtb data2507/toluene/tDMAC-BN/tDMAC-BN_toluene_S0_finalOpt.xtbopt.xyz --gfn 2 --uhf 2 --gbsa toluene --ohess vtight --parallel 40 --molden --ceasefiles --namespace data2507/toluene/tDMAC-BN/tDMAC-BN_toluene_T1_preOpt
      * Solvation model:               GBSA
        Solvent                        toluene
        Solvent mass                       9.2140E+01 g/mol
          :  Hamiltonian                  GFN2-xTB          :
 * total energy  :  -174.4291145 Eh     change       -0.2223200E-07 Eh
 * total energy  :  -174.4301753 Eh     change       -0.1060780E-02 Eh
 * total energy  :  -174.4304575 Eh     change       -0.2822398E-03 Eh
 * total energy  :  -174.4304917 Eh     change       -0.3416389E-04 Eh
 * total energy  :  -174.4305187 Eh     change       -0.2704180E-04 Eh
 * total energy  :  -174.4305343 Eh     change       -0.1554705E-04 Eh
 * total energy  :  -174.4305511 Eh     change       -0.1677183E-04 Eh
 * total energy  :  -174.4305642 Eh     change       -0.1316890E-04 Eh
 * total energy  :  -174.4305706 Eh     change       -0.6355934E-05 Eh
 * total energy  :  -174.4305796 Eh     change       -0.9027567E-05 Eh
 * total energy  :  -174.4307600 Eh     change       -0.1319676E-05 Eh
 * total energy  :  -174.4307613 Eh     change       -0.1244246E-05 Eh
 * total energy  :  -174.4307625 Eh     change       -0.1207729E-05 Eh
 * total energy  :  -174.4307637 Eh     change       -0.1178846E-05 Eh
 * total energy  :  -174.4307648 Eh     change       -0.1154762E-05 Eh
 * total energy  :  -174.4307660 Eh     change       -0.1159889E-05 Eh
 * total energy  :  -174.4307672 Eh     change       -0.1188846E-05 Eh
 * total energy  :  -174.4307684 Eh     change       -0.1276853E-05 Eh
 * total energy  :  -174.4307684 Eh     change       -0.6601539E-08 Eh
   *** GEOMETRY OPTIMIZATION CONVERGED AFTER 68 ITERATIONS ***

 final structure:
================
131
 xtb: 6.7.1 (edcfbbe)
C           -1.16934252902659        7.41045177568786        2.18295210290589
C           -2.56906905578270        6.77870478431717        2.14554586614006
C           -3.48839116437747        7.70396297922581        1.34244156129842
C           -3.12711648488055        6.66980552919233        3.57281351433620
C           -2.46893251942620        5.38594524913109        1.54382950896148
C           -1.65106773803560        4.43037954993998        2.14704389582739
C           -1.52107473490342        3.15736947578149        1.63655000328654
C           -2.21302003091239        2.78196429171620        0.48459932948308
N           -2.06425029712013        1.50076313340166       -0.05317921852295
C           -3.15675426982815        0.84087916365176       -0.61448606739704
C           -3.00483909246580        0.00290102421814       -1.71888990776060
C           -4.09242014539372       -0.65068349178041       -2.26441231832267
C           -5.37347810054040       -0.49724384129561       -1.74395545784812
C           -6.59991597702650       -1.17678506482328       -2.33295232939306
C           -7.24320206244176       -2.07577994440022       -1.26682498178556
C           -6.26656935188934       -2.04406445309962       -3.55080779693254
C           -7.60226083862163       -0.09919492385901       -2.77431363244032
C           -5.51218550853332        0.33677922820725       -0.63384859958661
C           -4.43604353104597        0.99054544191270       -0.07469631754169
C           -0.79992828129755        0.89753486843298       -0.05584949439461
C           -0.67976046605359       -0.48286837884353        0.17928282057091
C            0.56567580566313       -1.09956863997560        0.12285651002544
C            1.73482678149678       -0.35387723581650       -0.14129337708670
C            1.59520776429503        1.04103119615029       -0.29336441911693
C            0.34569646625196        1.65556337429246       -0.29342207464924
N            2.74128910219992        1.80463379353172       -0.51983688881003
C            2.83029503693111        3.10472995046335       -0.04840155792365
C            2.17977271071626        3.48258638865119        1.13148403481377
C            2.31553715468665        4.76138981651028        1.62191114591115
C            3.11477549685883        5.67887335365533        0.95448976791226
C            3.78318058286872        5.30126068734620       -0.20070780118473
C            3.65591804245732        4.02508673195508       -0.71996552201733
C            4.29350615329872        3.55558084568082       -2.00866796611279
C            3.20668032210049        3.55467527143824       -3.10870347669530
C            5.42879907465620        4.47187686112122       -2.46784327509771
C            4.74032736960519        2.12011922470528       -1.79529791714363
C            5.92065751494391        1.60822721105412       -2.32256778990964
C            6.20059868384460        0.25158782482240       -2.21789491422428
C            5.31721124792132       -0.60103144436354       -1.59436267564164
C            4.13714757330270       -0.13944877461680       -0.98888829956575
C            3.87627934595616        1.25272620685888       -1.11757971808797
B            3.08309115395955       -1.02138894412133       -0.29698255682380
C            3.11774200112686       -2.49451133807646        0.13904888617972
C            4.28456514164463       -3.24993648310424        0.33244740879386
C            4.28957155664035       -4.58404325397025        0.70671863086996
C            5.56438421305109       -5.38448953301951        0.92132912387299
C            5.58071687111842       -6.57516913670827       -0.04967894615557
C            6.83321896139252       -4.55983349219265        0.68357861267049
C            5.59359317729828       -5.89737879169205        2.36951139692651
C            3.05085419672790       -5.20543526743538        0.89098159023764
C            1.87177111143762       -4.49721992470906        0.75324503851351
C            1.88135077377758       -3.14450590732417        0.40787246648653
N            0.67706918156888       -2.46238425663676        0.33304154384944
C           -0.53104403293192       -3.19066009316363        0.54093726317495
C           -1.22226816612206       -3.70590284814742       -0.54452866637991
C           -2.40916412018083       -4.39227205908119       -0.35370389222690
C           -2.93667656203058       -4.58502871022182        0.91781509308744
C           -4.23793227074635       -5.33087835739296        1.17046392096914
C           -4.90207710830208       -5.81240173986031       -0.12278079300151
C           -5.21674223517084       -4.39319627773028        1.89335648593033
C           -3.94808292142304       -6.55903491542453        2.04632504046848
C           -2.22470220169186       -4.06375141240172        1.99709073358713
C           -1.04120989567186       -3.37473286828574        1.81948878663328
C           -3.03988871259519        3.72558686316903       -0.12278882425914
C           -3.16176496466090        4.99785313122131        0.40143548788796
H           -0.49356916187286        6.83781055662928        2.81157160690563
H           -1.22558705157546        8.42268093043568        2.57818782678930
H           -0.74746863649218        7.45302232323905        1.18052408653484
H           -3.12318508320678        7.83144614090572        0.32579241095481
H           -3.51747576395160        8.68415233025153        1.81445269653721
H           -4.50450400896258        7.31708858620032        1.31146216704406
H           -2.47991123796620        6.06945670246889        4.20646987667535
H           -3.21627888773390        7.65928071981430        4.01656436337433
H           -4.11261694399114        6.20804568616035        3.55750795650458
H           -1.10326517060595        4.67746703738138        3.04363778099186
H           -0.88958924850826        2.43495525313898        2.13288862317085
H           -2.02582795388653       -0.12301575492263       -2.15813813237358
H           -3.92069131597619       -1.28017914025740       -3.12225119737831
H           -6.53605474732401       -2.83547441237795       -0.94103087495513
H           -7.55205612865055       -1.50225947891834       -0.39718192905718
H           -8.12002786077100       -2.57376130700181       -1.67555168296481
H           -5.57110561735843       -2.83812076860854       -3.28905965646751
H           -5.83824183145233       -1.44591380099354       -4.35201593576296
H           -7.17754039614535       -2.50585648609404       -3.92678858164664
H           -7.14771945607642        0.55709094331493       -3.51417470749456
H           -7.92644805217296        0.50851024230846       -1.93390065807632
H           -8.48068494361245       -0.56343760254294       -3.21798598738807
H           -6.48323574582965        0.48112213615525       -0.18428915730101
H           -4.57631050980125        1.62240761093411        0.79060960205587
H           -1.57452310212963       -1.04916300655057        0.38534307717337
H            0.25332668351763        2.71244328785068       -0.49810058499557
H            1.59566768877213        2.75088035497250        1.66781394215239
H            1.81276439345129        5.04162497651108        2.53504834328453
H            3.22518805909139        6.68280472225333        1.33579293660104
H            4.40676586862436        6.02845009995359       -0.69521628466398
H            3.62727911338244        3.18932552523803       -4.04345938077247
H            2.82924822370197        4.56403987915880       -3.26210000158129
H            2.37366861951242        2.91168700910840       -2.83455066908378
H            5.83716701696771        4.12047883359060       -3.41176594711037
H            6.22475939303999        4.50652229358752       -1.72686145869088
H            5.05426822547338        5.47859149312516       -2.63537092942781
H            6.62102594069360        2.24724634409420       -2.83395866333048
H            7.11606667852023       -0.13427622938344       -2.64676457882291
H            5.53085549350783       -1.65833402297224       -1.57411187643935
H            5.21841475524377       -2.73238551647822        0.19686948359297
H            5.53722466101696       -6.22140511752506       -1.07822930757372
H            6.49477314544619       -7.15176816481695        0.07946595575766
H            4.73447489773593       -7.23578137717025        0.11899988316091
H            7.70889059611173       -5.18253003420593        0.85877515068836
H            6.87836480022580       -4.19763061799161       -0.34100418657639
H            6.88199228667575       -3.71098919419127        1.36203278670052
H            5.56389365093326       -5.05986166119439        3.06420387161834
H            6.50544379286049       -6.46384908159640        2.54914601305755
H            4.74446062143564       -6.54285872373929        2.57796673937910
H            2.99207088838534       -6.24955844308870        1.15892942412088
H            0.93530361979529       -5.00910397872905        0.92039987391511
H           -0.82596434337395       -3.56596936428983       -1.53976761487983
H           -2.91590112357593       -4.77597444277309       -1.22349488714714
H           -5.14149113373781       -4.97514527983526       -0.77390303329948
H           -5.83025947877636       -6.32732626765928        0.11667403974000
H           -4.26108676118971       -6.50938959163124       -0.65789585121403
H           -6.17685349021731       -4.88667284756071        2.02781907811181
H           -5.37128550440346       -3.48731889808170        1.31032722849260
H           -4.84300361616165       -4.10659957089318        2.87235341344031
H           -3.23909722698669       -7.21809581743685        1.54871537036565
H           -3.52958049164705       -6.27213909467062        3.00713602221776
H           -4.86647404867978       -7.11358963348114        2.22671531148398
H           -2.59516232700612       -4.19221663621380        3.00247841439660
H           -0.50437533245424       -2.97655498334245        2.66843493742315
H           -3.58164250706143        3.45770597743017       -1.01872385001707
H           -3.80784197341856        5.69216485885295       -0.11059328806134

          :  Hamiltonian                  GFN2-xTB          :
         :: gradient norm              0.000062084145 Eh/a0 ::
         :: HOMO-LUMO gap              0.541687077396 eV    ::
         :: SCC energy              -177.450425809611 Eh    ::
         :: -> dispersion             -0.179793401148 Eh    ::
         :: -> Gsolv                  -0.062627153746 Eh    ::
         :: repulsion energy           3.019657371966 Eh    ::

    * Orbital Energies and Occupations

         #    Occupation            Energy/Eh            Energy/eV
      -------------------------------------------------------------
         1        2.0000           -0.6636852             -18.0598
       ...           ...                  ...                  ...
       153        2.0000           -0.3968219             -10.7981
       154        2.0000           -0.3946023             -10.7377
       155        2.0000           -0.3940903             -10.7237
       156        2.0000           -0.3914793             -10.6527
       157        2.0000           -0.3865250             -10.5179
       158        2.0000           -0.3832283             -10.4282
       159        2.0000           -0.3779643             -10.2849
       160        2.0000           -0.3693527             -10.0506
       161        2.0000           -0.3659442              -9.9578
       162        2.0000           -0.3532801              -9.6132
       163        1.8403           -0.3442931              -9.3687
       164        1.1597           -0.3411378              -9.2828
       165        1.0000           -0.2491554              -6.7799 (HOMO)
       166        0.0000           -0.2292486              -6.2382 (LUMO)
       167        0.0000           -0.2278397              -6.1998
       168        0.0000           -0.2259732              -6.1490
       169                         -0.2234790              -6.0812
       170                         -0.2200197              -5.9870
       171                         -0.2174166              -5.9162
       172                         -0.2171748              -5.9096
       173                         -0.2162433              -5.8843
       174                         -0.2127245              -5.7885
       175                         -0.2015291              -5.4839
       176                         -0.1983939              -5.3986
       ...                                ...                  ...
       326                          0.7296010              19.8535
      -------------------------------------------------------------
                  HL-Gap            0.0199068 Eh            0.5417 eV

     #   Z          covCN         q      C6AA      α(0)
     1   6 C        3.761    -0.104    22.533     6.767
     2   6 C        3.902     0.026    20.089     6.371
     3   6 C        3.761    -0.107    22.600     6.777
     4   6 C        3.761    -0.105    22.551     6.770
     5   6 C        2.972     0.002    27.980     8.677
     6   6 C        2.926    -0.035    28.878     8.813
     7   6 C        2.921    -0.048    29.194     8.861
     8   6 C        2.925     0.061    26.637     8.464
     9   7 N        2.751    -0.069    22.581     7.058
    10   6 C        2.923     0.061    26.637     8.464
    11   6 C        2.921    -0.051    29.267     8.872
    12   6 C        2.924    -0.040    29.005     8.832
    13   6 C        2.972     0.000    28.014     8.682
    14   6 C        3.902     0.025    20.091     6.371
    15   6 C        3.761    -0.104    22.528     6.766
    16   6 C        3.761    -0.107    22.583     6.774
    17   6 C        3.761    -0.105    22.552     6.770
    18   6 C        2.926    -0.037    28.913     8.818
    19   6 C        2.920    -0.051    29.258     8.870
    20   6 C        2.921     0.045    26.995     8.520
    21   6 C        2.918    -0.071    29.770     8.947
    22   6 C        2.924     0.058    26.696     8.473
    23   6 C        2.896    -0.106    30.676     9.081
    24   6 C        2.925     0.044    27.021     8.525
    25   6 C        2.917    -0.059    29.471     8.902
    26   7 N        2.758    -0.027    21.766     6.929
    27   6 C        2.941     0.052    26.840     8.497
    28   6 C        2.920    -0.048    29.185     8.859
    29   6 C        2.918    -0.035    28.876     8.812
    30   6 C        2.918    -0.043    29.068     8.841
    31   6 C        2.921    -0.041    29.011     8.833
    32   6 C        2.984    -0.009    28.245     8.718
    33   6 C        3.911     0.021    20.167     6.383
    34   6 C        3.763    -0.097    22.395     6.746
    35   6 C        3.758    -0.104    22.539     6.768
    36   6 C        2.981    -0.017    28.429     8.746
    37   6 C        2.921    -0.057    29.416     8.894
    38   6 C        2.911    -0.040    28.987     8.828
    39   6 C        2.921    -0.052    29.291     8.875
    40   6 C        2.884    -0.077    29.921     8.968
    41   6 C        2.942     0.046    26.972     8.518
    42   5 B        2.724     0.140    19.277     7.357
    43   6 C        2.884    -0.077    29.908     8.966
    44   6 C        2.926    -0.058    29.450     8.900
    45   6 C        2.967     0.001    27.996     8.679
    46   6 C        3.902     0.024    20.120     6.376
    47   6 C        3.761    -0.102    22.495     6.761
    48   6 C        3.761    -0.104    22.539     6.768
    49   6 C        3.761    -0.102    22.501     6.762
    50   6 C        2.924    -0.049    29.213     8.864
    51   6 C        2.915    -0.062    29.543     8.913
    52   6 C        2.923     0.056    26.741     8.480
    53   7 N        2.755    -0.042    22.050     6.974
    54   6 C        2.933     0.063    26.581     8.455
    55   6 C        2.921    -0.040    28.995     8.830
    56   6 C        2.925    -0.038    28.941     8.822
    57   6 C        2.973     0.011    27.767     8.644
    58   6 C        3.902     0.026    20.078     6.369
    59   6 C        3.761    -0.107    22.600     6.777
    60   6 C        3.761    -0.106    22.568     6.772
    61   6 C        3.761    -0.106    22.578     6.774
    62   6 C        2.928    -0.034    28.857     8.810
    63   6 C        2.919    -0.040    28.998     8.831
    64   6 C        2.921    -0.050    29.249     8.869
    65   6 C        2.924    -0.040    29.005     8.832
    66   1 H        0.925     0.036     2.497     2.471
    67   1 H        0.925     0.039     2.465     2.455
    68   1 H        0.925     0.032     2.553     2.499
    69   1 H        0.925     0.036     2.505     2.475
    70   1 H        0.925     0.038     2.478     2.462
    71   1 H        0.925     0.036     2.501     2.473
    72   1 H        0.925     0.036     2.497     2.471
    73   1 H        0.925     0.039     2.460     2.453
    74   1 H        0.925     0.033     2.547     2.496
    75   1 H        0.926     0.033     2.545     2.495
    76   1 H        0.926     0.027     2.624     2.533
    77   1 H        0.926     0.027     2.623     2.533
    78   1 H        0.926     0.039     2.456     2.451
    79   1 H        0.925     0.034     2.535     2.490
    80   1 H        0.925     0.036     2.505     2.475
    81   1 H        0.925     0.039     2.463     2.454
    82   1 H        0.925     0.036     2.508     2.476
    83   1 H        0.925     0.035     2.517     2.481
    84   1 H        0.925     0.038     2.478     2.462
    85   1 H        0.925     0.032     2.561     2.503
    86   1 H        0.925     0.036     2.497     2.471
    87   1 H        0.925     0.039     2.466     2.456
    88   1 H        0.926     0.033     2.551     2.498
    89   1 H        0.926     0.028     2.610     2.526
    90   1 H        0.926     0.028     2.622     2.532
    91   1 H        0.926     0.029     2.600     2.521
    92   1 H        0.926     0.033     2.546     2.495
    93   1 H        0.926     0.030     2.581     2.512
    94   1 H        0.926     0.030     2.583     2.513
    95   1 H        0.926     0.039     2.468     2.457
    96   1 H        0.925     0.038     2.477     2.461
    97   1 H        0.925     0.037     2.491     2.468
    98   1 H        0.925     0.031     2.568     2.506
    99   1 H        0.925     0.041     2.441     2.443
   100   1 H        0.925     0.036     2.503     2.474
   101   1 H        0.925     0.040     2.449     2.447
   102   1 H        0.926     0.022     2.705     2.572
   103   1 H        0.925     0.012     2.855     2.642
   104   1 H        0.926     0.020     2.728     2.583
   105   1 H        0.926     0.031     2.571     2.507
   106   1 H        0.925     0.031     2.577     2.510
   107   1 H        0.925     0.036     2.508     2.477
   108   1 H        0.925     0.034     2.526     2.485
   109   1 H        0.925     0.034     2.533     2.489
   110   1 H        0.925     0.034     2.535     2.490
   111   1 H        0.925     0.035     2.520     2.482
   112   1 H        0.925     0.031     2.574     2.509
   113   1 H        0.925     0.036     2.509     2.477
   114   1 H        0.925     0.034     2.524     2.485
   115   1 H        0.926     0.015     2.815     2.624
   116   1 H        0.926     0.014     2.831     2.631
   117   1 H        0.926     0.038     2.476     2.461
   118   1 H        0.926     0.049     2.334     2.389
   119   1 H        0.925     0.037     2.494     2.469
   120   1 H        0.925     0.040     2.443     2.444
   121   1 H        0.925     0.037     2.487     2.466
   122   1 H        0.925     0.042     2.422     2.434
   123   1 H        0.925     0.035     2.523     2.484
   124   1 H        0.925     0.038     2.480     2.463
   125   1 H        0.925     0.034     2.534     2.489
   126   1 H        0.925     0.038     2.479     2.462
   127   1 H        0.925     0.042     2.424     2.435
   128   1 H        0.926     0.042     2.425     2.435
   129   1 H        0.926     0.038     2.482     2.464
   130   1 H        0.926     0.029     2.600     2.522
   131   1 H        0.926     0.040     2.446     2.446

molecular dipole:
                 x           y           z       tot (Debye)
 q only:       -2.377       0.095       0.277
   full:       -2.434       0.144       0.272       6.237

 projected vibrational frequencies (cm⁻¹)
eigval :       -0.00    -0.00    -0.00    -0.00     0.00     0.00
eigval :        8.71    11.85    19.62    21.25    22.69    24.47
eigval :       26.62    31.40    34.04    36.20    40.95    45.19
eigval :       50.34    57.81    58.61    68.71    70.21    79.96
eigval :       82.97    91.64    94.45   100.95   104.36   117.78
eigval :      119.84   129.10   150.18   158.45   161.94   166.28
eigval :      170.79   174.47   175.06   179.77   182.33   189.17
eigval :      194.91   206.36   211.03   215.78   222.13   223.57
eigval :      225.00   227.13   234.27   236.39   238.47   249.06
eigval :      250.87   259.04   267.38   279.38   282.34   286.76
eigval :      302.23   308.11   312.11   313.17   314.67   314.95
eigval :      315.57   317.40   322.96   326.15   338.40   340.88
eigval :      344.41   352.59   356.63   360.56   366.67   370.47
eigval :      380.31   382.12   382.90   385.81   387.66   394.20
eigval :      396.51   400.24   407.33   408.78   419.44   424.84
eigval :      429.02   438.13   442.38   443.97   453.49   457.58
eigval :      459.37   462.46   470.16   479.39   485.11   491.16
eigval :      494.23   510.57   520.88   525.42   532.72   538.33
eigval :      539.49   552.01   557.70   568.35   575.05   578.88
eigval :      583.25   586.48   603.13   606.50   608.84   614.29
eigval :      615.48   627.91   634.91   659.20   664.04   683.75
eigval :      685.33   686.19   692.07   699.96   708.05   710.22
eigval :      716.75   721.95   735.33   765.40   769.35   772.56
eigval :      783.73   790.21   795.28   811.43   813.91   818.10
eigval :      820.10   849.68   851.35   862.26   864.01   865.76
eigval :      866.98   870.18   870.90   873.26   874.82   878.34
eigval :      883.94   892.10   898.72   905.40   911.23   911.82
eigval :      914.12   914.95   916.44   921.74   923.45   926.72
eigval :      928.34   928.44   931.96   943.69   958.33   958.60
eigval :      959.14   959.47   959.81   961.49   961.69   962.14
eigval :      962.41   962.51   962.93   963.17   963.43   987.94
eigval :      998.30  1007.35  1013.89  1021.53  1032.75  1032.88
eigval :     1033.95  1034.11  1034.90  1035.30  1035.64  1035.88
eigval :     1046.33  1060.09  1089.64  1104.27  1109.00  1125.28
eigval :     1136.36  1138.75  1140.87  1142.06  1143.21  1143.71
eigval :     1150.45  1152.38  1154.45  1157.43  1172.44  1180.54
eigval :     1188.63  1197.51  1199.90  1205.68  1206.10  1209.59
eigval :     1221.92  1224.24  1224.50  1224.76  1225.57  1228.16
eigval :     1231.32  1231.40  1231.91  1236.10  1247.74  1248.86
eigval :     1258.59  1262.36  1265.34  1271.99  1273.28  1275.71
eigval :     1276.37  1279.82  1282.58  1283.19  1288.46  1291.69
eigval :     1300.23  1304.14  1310.52  1315.16  1318.75  1320.53
eigval :     1325.03  1329.87  1335.48  1341.67  1354.15  1366.84
eigval :     1373.34  1391.66  1395.24  1397.30  1398.43  1400.58
eigval :     1400.90  1401.37  1402.15  1402.60  1404.18  1406.57
eigval :     1407.01  1408.37  1409.50  1414.34  1416.77  1425.11
eigval :     1425.54  1425.97  1426.92  1427.05  1447.62  1458.48
eigval :     1470.85  1475.59  1480.20  1482.66  1483.83  1488.05
eigval :     1488.35  1488.99  1489.35  1489.64  1490.47  1491.92
eigval :     1492.13  1492.92  1493.62  1498.83  1499.10  1499.54
eigval :     1499.75  1500.73  1502.36  1502.97  1503.70  1504.13
eigval :     1506.79  1509.76  1511.37  1511.60  1511.98  1515.14
eigval :     1516.49  1517.24  1517.59  1519.39  1523.72  1532.26
eigval :     1533.58  1544.92  1552.31  1554.98  1566.96  1567.33
eigval :     1584.77  1593.02  1599.28  3014.88  3015.91  3018.78
eigval :     3019.53  3019.71  3020.31  3020.96  3021.10  3021.64
eigval :     3021.94  3022.89  3023.73  3023.80  3024.20  3024.91
eigval :     3025.01  3026.07  3026.53  3027.27  3027.34  3028.40
eigval :     3029.32  3029.51  3030.20  3030.54  3030.89  3032.39
eigval :     3033.03  3035.10  3035.72  3037.10  3038.36  3038.73
eigval :     3041.70  3043.41  3044.00  3044.73  3045.22  3045.52
eigval :     3046.21  3048.02  3048.78  3049.81  3071.10  3072.06
eigval :     3074.57  3076.20  3077.82  3078.03  3078.57  3078.79
eigval :     3082.17  3083.75  3085.08  3086.81  3089.09  3092.49
eigval :     3093.55  3097.73  3099.61  3107.73  3109.78  3111.28
eigval :     3111.59  3118.65  3128.94

   temp. (K)  partition function   enthalpy   heat capacity  entropy
                                   cal/mol     cal/K/mol   cal/K/mol   J/K/mol
 298.15  VIB  0.141E+29            37534.644    232.802    231.042
         ROT  0.190E+09              888.752      2.981     40.868
         INT  0.269E+37            38423.396    235.783    271.910
         TR   0.241E+29             1481.254      4.968     46.083
         TOT                       39904.6499   240.7511   317.9936  1330.4851

       T/K    H(0)-H(T)+PV         H(T)/Eh          T*S/Eh         G(T)/Eh
   ------------------------------------------------------------------------
    298.15    0.635921E-01    0.115496E+01    0.151089E+00    0.100387E+01
   ------------------------------------------------------------------------

         :::::::::::::::::::::::::::::::::::::::::::::::::::::
         ::                  THERMODYNAMIC                  ::
         :::::::::::::::::::::::::::::::::::::::::::::::::::::
         :: total free energy        -173.426899190966 Eh   ::
         ::.................................................::
         :: total energy             -174.430768443334 Eh   ::
         :: zero point energy           1.091366148518 Eh   ::
         :: G(RRHO) w/o ZPVE           -0.087496896150 Eh   ::
         :: G(RRHO) contrib.            1.003869252368 Eh   ::
         :::::::::::::::::::::::::::::::::::::::::::::::::::::

           -------------------------------------------------
          | TOTAL ENERGY             -174.430768443334 Eh   |
          | TOTAL ENTHALPY           -173.275810187357 Eh   |
          | TOTAL FREE ENERGY        -173.426899190966 Eh   |
          | GRADIENT NORM               0.000062050902 Eh/α |
          | HOMO-LUMO GAP               0.541691491528 eV   |
           -------------------------------------------------

 * finished run on 2025/09/11 at 18:02:33.761
