   * xtb version 6.7.1 (edcfbbe) compiled by 'albert@albert-system' on 2024-07-22

   ID    Z sym.   atoms
    1    6 C      1-8, 10-25, 27-41, 43-52, 54-65
    2    7 N      9, 26, 53
    3    5 B      42
    4    1 H      66-131

          program call               : xtb data2507/toluene/tDMAC-BN/tDMAC-BN.xyz --gfn 2 --gbsa toluene --ohess vtight --parallel 40 --molden --ceasefiles --namespace data2507/toluene/tDMAC-BN/tDMAC-BN_toluene_S0_preOpt
      * Solvation model:               GBSA
        Solvent                        toluene
        Solvent mass                       9.2140E+01 g/mol
          :  Hamiltonian                  GFN2-xTB          :
 * total energy  :  -174.3457393 Eh     change       -0.5539363E-08 Eh
 * total energy  :  -174.4152128 Eh     change       -0.6947356E-01 Eh
 * total energy  :  -174.4438840 Eh     change       -0.2867120E-01 Eh
 * total energy  :  -174.4571732 Eh     change       -0.1328917E-01 Eh
 * total energy  :  -174.4654761 Eh     change       -0.8302966E-02 Eh
 * total energy  :  -174.4715683 Eh     change       -0.6092200E-02 Eh
 * total energy  :  -174.4767886 Eh     change       -0.5220217E-02 Eh
 * total energy  :  -174.4813918 Eh     change       -0.4603271E-02 Eh
 * total energy  :  -174.4852050 Eh     change       -0.3813192E-02 Eh
 * total energy  :  -174.4881374 Eh     change       -0.2932413E-02 Eh
 * total energy  :  -174.5187224 Eh     change       -0.1268767E-06 Eh
 * total energy  :  -174.5187225 Eh     change       -0.1225037E-06 Eh
 * total energy  :  -174.5187226 Eh     change       -0.1146384E-06 Eh
 * total energy  :  -174.5187227 Eh     change       -0.1204484E-06 Eh
 * total energy  :  -174.5187229 Eh     change       -0.1477735E-06 Eh
 * total energy  :  -174.5187230 Eh     change       -0.1824184E-06 Eh
 * total energy  :  -174.5187232 Eh     change       -0.1837858E-06 Eh
 * total energy  :  -174.5187234 Eh     change       -0.1590371E-06 Eh
 * total energy  :  -174.5187234 Eh     change       -0.1191069E-08 Eh
   *** GEOMETRY OPTIMIZATION CONVERGED AFTER 300 ITERATIONS ***

 final structure:
================
131
 xtb: 6.7.1 (edcfbbe)
C           -3.91711464614473        4.98668069822389        4.65731762591331
C           -4.93893839159931        4.02850550453837        4.02699044648572
C           -6.08503161861824        4.86591503519659        3.45127466065076
C           -5.51746922904966        3.10294470023500        5.10803124925090
C           -4.24269775717179        3.18355005087415        2.97095709850032
C           -3.15773631708571        2.38634925076905        3.33109909878576
C           -2.49382362306666        1.60256214037073        2.41151046963366
C           -2.88863856651192        1.59142786877029        1.07497912705297
N           -2.20863497772416        0.80648402392111        0.13628164253200
C           -2.91921765691746        0.15127479028700       -0.87454881715457
C           -2.39609124192515        0.03296944776748       -2.15932429528002
C           -3.10712872233729       -0.60737324331569       -3.15652960712442
C           -4.36852704086685       -1.14354451544451       -2.92324500831090
C           -5.19709000594406       -1.82562796924636       -4.00191217063728
C           -5.49173139390521       -3.27188055962908       -3.57827433311545
C           -4.48566900796382       -1.86098242860951       -5.35809152886652
C           -6.51688307135800       -1.05875537921115       -4.17620504905579
C           -4.87957918922210       -1.02376823993582       -1.63196227883818
C           -4.17640259141924       -0.39684700665622       -0.62456248671246
C           -0.81420169171391        0.70574256634204        0.19505798443122
C           -0.19754514759608       -0.50373474117321       -0.10552709274556
C            1.19222612580462       -0.60131044375272       -0.09679471700881
C            1.98281706923615        0.52017595265208        0.22883170528493
C            1.33257732279306        1.71703743461625        0.58717316345362
C           -0.05204787092625        1.81699928123981        0.54852163768217
N            2.09990713675470        2.82197521544858        0.92781782613655
C            1.64634776062988        3.75919336808185        1.86625024287017
C            0.84080301150283        3.36170066378552        2.93031635307477
C            0.45008122289663        4.27527913755753        3.88790019616761
C            0.88225018997878        5.58749579267842        3.80733765235703
C            1.71379353510436        5.97678004484654        2.77120705456775
C            2.10385983636336        5.07848276368373        1.78964306125635
C            2.98242748006383        5.43039650858451        0.60835880129596
C            2.08970415562755        5.52915789402612       -0.64802923074643
C            3.70063320840467        6.76831239352189        0.78696272646299
C            3.93793145591610        4.26588793830173        0.40890633146403
C            5.26145413072104        4.42750618428576        0.04563949906797
C            6.04532919843214        3.33051271867729       -0.28625858634296
C            5.50590554829344        2.06447103666236       -0.25556743129610
C            4.19119301993595        1.83333991483485        0.16129517109712
C            3.41822693768503        2.96338749820705        0.49678595370087
B            3.49562230713389        0.44944847019093        0.18002726247069
C            4.06686722135660       -0.97551666032670        0.05153193459521
C            5.41293313034813       -1.31467171577377        0.24600123040856
C            5.91576441907233       -2.58887121237385        0.07115956747785
C            7.37961329932598       -2.95098730239287        0.27491308106312
C            7.95155209480804       -3.48450402621940       -1.04732723341664
C            8.22917258648961       -1.75399024328296        0.71317324955942
C            7.48559362700579       -4.03345418682076        1.35952761565354
C            5.00997874282928       -3.57787211119144       -0.32429320156541
C            3.67342796778352       -3.30552319893857       -0.48704548833103
C            3.16975098567023       -2.01502579713206       -0.27759031478540
N            1.80951881296359       -1.79464083276400       -0.40266872389955
C            0.97304792082659       -2.88001899292499       -0.80337103991975
C            0.62782504357271       -3.04020972672594       -2.13550767405764
C           -0.20804336947637       -4.07504327793834       -2.52000844949089
C           -0.71683263749956       -4.97615224972408       -1.59200796393779
C           -1.64193471317582       -6.12286689022890       -1.97007732017878
C           -1.95558730884096       -6.15792147980676       -3.46863553552121
C           -2.96493760317246       -5.96566491357850       -1.20520002505273
C           -0.97393424152344       -7.45275336781324       -1.58975359479108
C           -0.35345710485338       -4.80230263539946       -0.25741365070612
C            0.47557138938437       -3.77159497659057        0.13826405723818
C           -3.97337782461594        2.38017838479903        0.70355403934849
C           -4.63531702052766        3.15526694282274        1.63750920559976
H           -3.12494027012815        4.44236796652914        5.16333535129163
H           -4.40618898230554        5.63014761202290        5.38591557390286
H           -3.46401704665629        5.61256858324875        3.89070225719599
H           -5.72208134960691        5.55384501809298        2.69084752843331
H           -6.53991435665257        5.45306852228249        4.24680711442504
H           -6.85629582794064        4.23154406968939        3.02019320653065
H           -4.73651317275654        2.51980417241685        5.58867369635753
H           -6.02468029846588        3.68927610909433        5.87154965248530
H           -6.23548901710812        2.41325723338122        4.66817137348570
H           -2.82072043102054        2.36356307425821        4.35647757543034
H           -1.66357455671771        0.98515525881319        2.72310089869820
H           -1.42474099724921        0.45331113322276       -2.37710405552612
H           -2.65676741241177       -0.66679449837076       -4.13408047296384
H           -4.56140856221231       -3.81744223330122       -3.43622813488463
H           -6.05261924512193       -3.30670504949408       -2.64826310552423
H           -6.07372073702133       -3.77701709138882       -4.34645545183901
H           -3.54829179166620       -2.40886176408023       -5.29579157556689
H           -4.28621174398179       -0.85521463567911       -5.72116447773104
H           -5.12017036513049       -2.36155434597222       -6.08704097845731
H           -6.31787850058509       -0.02581285366999       -4.45595965609807
H           -7.09783500987428       -1.05648337768595       -3.25791281292114
H           -7.11726869626968       -1.51882701947984       -4.95853299449202
H           -5.85108042346413       -1.43149425169358       -1.39488465144597
H           -4.60005672710280       -0.32484473723866        0.36712731532857
H           -0.81335188607255       -1.35598409407140       -0.34634033495187
H           -0.54357528263919        2.75265920668283        0.76980989811263
H            0.53352300699516        2.33028137506381        3.00790647551734
H           -0.17927667408991        3.95707435006966        4.70519947163215
H            0.58086818752466        6.30655981437268        4.55454752043912
H            2.05299122225580        6.99939025381160        2.73681380091121
H            2.70210316657536        5.73913698702108       -1.52286588508530
H            1.36328581424353        6.33048091254638       -0.52619571877746
H            1.55209555950095        4.60029090278327       -0.82168063692270
H            4.29460787082203        6.99719098118440       -0.09416551934503
H            4.35038449482774        6.74944630946159        1.65948859349862
H            2.97509044459719        7.56988861653895        0.90110987492704
H            5.69723545724026        5.41156675674532       -0.01655083038225
H            7.07108118616791        3.48115171048545       -0.59246399141259
H            6.10574461668659        1.22711293291724       -0.57628883843402
H            6.06716452712940       -0.52221449997280        0.56694457091467
H            7.85775518760386       -2.73193959426650       -1.82824824389631
H            9.00507331176498       -3.73073866616543       -0.92912913190446
H            7.42773546005277       -4.37932902405965       -1.37306628078634
H            9.26070923774733       -2.07284908976005        0.85197484677382
H            8.21915543318979       -0.96976519314400       -0.04032806987862
H            7.87322988235586       -1.34533059052743        1.65627792096039
H            7.07273580758244       -3.66681753698858        2.29758791444074
H            8.52781536430113       -4.30149498678663        1.52229253469491
H            6.94345213560048       -4.93210048927528        1.07727160660075
H            5.34860993435779       -4.58919575376975       -0.49598262139390
H            3.00563014332432       -4.10592117022643       -0.77020956604239
H            1.01297746954899       -2.34828919278843       -2.87053767248551
H           -0.45523591244577       -4.16332073667741       -3.56490051188770
H           -2.44799924570654       -5.24187919786218       -3.78589943596094
H           -2.62534469993807       -6.98924201678732       -3.67936941451987
H           -1.05098078072392       -6.29910987239312       -4.05585247634900
H           -3.66664347216020       -6.73984643565546       -1.50813848853442
H           -3.40820671257557       -4.99412596486472       -1.41514315544119
H           -2.81549937511257       -6.04460969716733       -0.13195047017424
H           -0.02696373245375       -7.56243585342026       -2.11489919648405
H           -0.77992879730076       -7.50916695442981       -0.52215477653424
H           -1.61864871289764       -8.28518614077221       -1.86331881562728
H           -0.72369926217289       -5.47939521741358        0.49702795557116
H            0.74251735722740       -3.64985769134066        1.17830877085399
H           -4.29677288714429        2.38667720660393       -0.32776826270076
H           -5.46706263621951        3.75039815747147        1.29703224060182

          :  Hamiltonian                  GFN2-xTB          :
         :: gradient norm              0.000024917262 Eh/a0 ::
         :: HOMO-LUMO gap              2.281002685390 eV    ::
         :: SCC energy              -177.553556782807 Eh    ::
         :: -> dispersion             -0.179712843012 Eh    ::
         :: -> Gsolv                  -0.062215815663 Eh    ::
         :: repulsion energy           3.034833396098 Eh    ::

    * Orbital Energies and Occupations

         #    Occupation            Energy/Eh            Energy/eV
      -------------------------------------------------------------
         1        2.0000           -0.6611003             -17.9895
       ...           ...                  ...                  ...
       152        2.0000           -0.3978175             -10.8252
       153        2.0000           -0.3964728             -10.7886
       154        2.0000           -0.3950106             -10.7488
       155        2.0000           -0.3936125             -10.7107
       156        2.0000           -0.3915178             -10.6537
       157        2.0000           -0.3898471             -10.6083
       158        2.0000           -0.3881917             -10.5632
       159        2.0000           -0.3860902             -10.5060
       160        2.0000           -0.3768403             -10.2543
       161        2.0000           -0.3734179             -10.1612
       162        2.0000           -0.3562834              -9.6950
       163        2.0000           -0.3409800              -9.2785
       164        2.0000           -0.3386999              -9.2165 (HOMO)
       165                         -0.2548746              -6.9355 (LUMO)
       166                         -0.2273493              -6.1865
       167                         -0.2261504              -6.1539
       168                         -0.2226794              -6.0594
       169                         -0.2216764              -6.0321
       170                         -0.2183547              -5.9417
       171                         -0.2170387              -5.9059
       172                         -0.2165224              -5.8919
       173                         -0.2144509              -5.8355
       174                         -0.2139369              -5.8215
       175                         -0.2071866              -5.6378
       ...                                ...                  ...
       326                          0.7211659              19.6239
      -------------------------------------------------------------
                  HL-Gap            0.0838253 Eh            2.2810 eV

     #   Z          covCN         q      C6AA      α(0)
     1   6 C        3.761    -0.104    22.527     6.766
     2   6 C        3.902     0.025    20.096     6.372
     3   6 C        3.761    -0.107    22.590     6.776
     4   6 C        3.761    -0.105    22.544     6.769
     5   6 C        2.972    -0.000    28.028     8.684
     6   6 C        2.927    -0.036    28.899     8.816
     7   6 C        2.921    -0.049    29.225     8.865
     8   6 C        2.924     0.064    26.576     8.454
     9   7 N        2.753    -0.087    22.941     7.114
    10   6 C        2.923     0.063    26.581     8.455
    11   6 C        2.922    -0.052    29.286     8.874
    12   6 C        2.925    -0.041    29.028     8.835
    13   6 C        2.971    -0.001    28.053     8.688
    14   6 C        3.902     0.025    20.097     6.372
    15   6 C        3.761    -0.103    22.520     6.765
    16   6 C        3.761    -0.106    22.575     6.773
    17   6 C        3.761    -0.105    22.545     6.769
    18   6 C        2.927    -0.037    28.931     8.821
    19   6 C        2.921    -0.052    29.287     8.875
    20   6 C        2.924     0.067    26.502     8.442
    21   6 C        2.921    -0.088    30.208     9.013
    22   6 C        2.927     0.062    26.608     8.459
    23   6 C        2.899    -0.112    30.841     9.106
    24   6 C        2.923     0.061    26.641     8.464
    25   6 C        2.921    -0.083    30.088     8.995
    26   7 N        2.758    -0.057    22.337     7.019
    27   6 C        2.941     0.057    26.712     8.477
    28   6 C        2.922    -0.049    29.217     8.864
    29   6 C        2.920    -0.035    28.865     8.810
    30   6 C        2.919    -0.042    29.043     8.837
    31   6 C        2.923    -0.041    29.029     8.835
    32   6 C        2.987    -0.010    28.254     8.719
    33   6 C        3.911     0.021    20.165     6.383
    34   6 C        3.763    -0.098    22.421     6.749
    35   6 C        3.758    -0.106    22.568     6.773
    36   6 C        2.983    -0.015    28.384     8.739
    37   6 C        2.923    -0.042    29.050     8.839
    38   6 C        2.913    -0.046    29.146     8.853
    39   6 C        2.923    -0.039    28.981     8.828
    40   6 C        2.886    -0.085    30.135     9.000
    41   6 C        2.945     0.052    26.833     8.496
    42   5 B        2.725     0.191    18.507     7.208
    43   6 C        2.887    -0.088    30.201     9.010
    44   6 C        2.929    -0.046    29.133     8.852
    45   6 C        2.968    -0.007    28.190     8.709
    46   6 C        3.902     0.024    20.119     6.376
    47   6 C        3.761    -0.103    22.517     6.764
    48   6 C        3.761    -0.105    22.562     6.771
    49   6 C        3.761    -0.103    22.522     6.765
    50   6 C        2.927    -0.036    28.891     8.815
    51   6 C        2.917    -0.060    29.481     8.904
    52   6 C        2.925     0.058    26.707     8.475
    53   7 N        2.754    -0.059    22.372     7.025
    54   6 C        2.933     0.064    26.560     8.452
    55   6 C        2.921    -0.041    29.014     8.833
    56   6 C        2.925    -0.038    28.954     8.824
    57   6 C        2.973     0.010    27.787     8.647
    58   6 C        3.902     0.026    20.081     6.370
    59   6 C        3.761    -0.107    22.593     6.776
    60   6 C        3.761    -0.105    22.559     6.771
    61   6 C        3.761    -0.106    22.576     6.773
    62   6 C        2.927    -0.035    28.870     8.812
    63   6 C        2.920    -0.041    29.016     8.833
    64   6 C        2.922    -0.052    29.284     8.874
    65   6 C        2.925    -0.041    29.028     8.836
    66   1 H        0.925     0.036     2.506     2.476
    67   1 H        0.925     0.038     2.473     2.459
    68   1 H        0.925     0.032     2.558     2.501
    69   1 H        0.925     0.035     2.511     2.478
    70   1 H        0.925     0.037     2.484     2.465
    71   1 H        0.925     0.036     2.509     2.477
    72   1 H        0.925     0.036     2.506     2.475
    73   1 H        0.925     0.039     2.467     2.456
    74   1 H        0.925     0.032     2.555     2.500
    75   1 H        0.926     0.030     2.579     2.512
    76   1 H        0.926     0.025     2.666     2.553
    77   1 H        0.926     0.025     2.659     2.550
    78   1 H        0.926     0.037     2.482     2.464
    79   1 H        0.925     0.033     2.542     2.493
    80   1 H        0.925     0.035     2.513     2.479
    81   1 H        0.925     0.038     2.470     2.458
    82   1 H        0.925     0.035     2.513     2.479
    83   1 H        0.925     0.035     2.522     2.483
    84   1 H        0.925     0.037     2.483     2.464
    85   1 H        0.925     0.031     2.568     2.506
    86   1 H        0.925     0.036     2.506     2.475
    87   1 H        0.925     0.038     2.471     2.458
    88   1 H        0.926     0.030     2.583     2.513
    89   1 H        0.926     0.025     2.654     2.548
    90   1 H        0.926     0.021     2.721     2.579
    91   1 H        0.926     0.022     2.701     2.570
    92   1 H        0.926     0.031     2.570     2.507
    93   1 H        0.926     0.030     2.590     2.516
    94   1 H        0.926     0.030     2.583     2.513
    95   1 H        0.926     0.039     2.459     2.452
    96   1 H        0.925     0.038     2.482     2.464
    97   1 H        0.925     0.037     2.484     2.465
    98   1 H        0.925     0.033     2.540     2.492
    99   1 H        0.925     0.041     2.436     2.441
   100   1 H        0.925     0.037     2.495     2.470
   101   1 H        0.925     0.041     2.438     2.442
   102   1 H        0.926     0.031     2.570     2.507
   103   1 H        0.926     0.019     2.747     2.592
   104   1 H        0.926     0.029     2.597     2.520
   105   1 H        0.926     0.038     2.477     2.461
   106   1 H        0.925     0.031     2.574     2.509
   107   1 H        0.925     0.036     2.507     2.476
   108   1 H        0.925     0.034     2.530     2.487
   109   1 H        0.925     0.035     2.520     2.482
   110   1 H        0.925     0.034     2.527     2.486
   111   1 H        0.925     0.035     2.518     2.482
   112   1 H        0.925     0.031     2.574     2.509
   113   1 H        0.925     0.036     2.509     2.477
   114   1 H        0.925     0.034     2.530     2.487
   115   1 H        0.926     0.022     2.699     2.569
   116   1 H        0.926     0.018     2.758     2.597
   117   1 H        0.926     0.036     2.497     2.471
   118   1 H        0.926     0.047     2.359     2.402
   119   1 H        0.925     0.036     2.502     2.473
   120   1 H        0.925     0.040     2.448     2.447
   121   1 H        0.925     0.037     2.488     2.467
   122   1 H        0.925     0.042     2.427     2.436
   123   1 H        0.925     0.034     2.531     2.488
   124   1 H        0.925     0.037     2.486     2.465
   125   1 H        0.925     0.034     2.533     2.489
   126   1 H        0.925     0.038     2.481     2.463
   127   1 H        0.925     0.042     2.428     2.437
   128   1 H        0.926     0.040     2.449     2.447
   129   1 H        0.926     0.036     2.502     2.473
   130   1 H        0.926     0.026     2.646     2.544
   131   1 H        0.926     0.038     2.479     2.462

molecular dipole:
                 x           y           z       tot (Debye)
 q only:       -0.947      -0.686      -0.351
   full:       -1.035      -0.688      -0.329       3.268

 projected vibrational frequencies (cm⁻¹)
eigval :       -0.00    -0.00    -0.00     0.00     0.00     0.00
eigval :       -8.88     7.98    13.42    18.34    21.43    23.72
eigval :       25.62    28.17    29.47    32.87    40.91    45.01
eigval :       51.84    59.19    61.64    70.82    71.49    80.05
eigval :       82.60    91.37    93.54    99.14   103.81   117.40
eigval :      121.37   132.41   151.30   158.66   161.10   166.96
eigval :      168.88   174.85   176.60   181.47   183.96   192.14
eigval :      195.37   198.28   207.19   216.84   218.99   223.80
eigval :      225.39   232.26   234.21   236.40   242.41   249.18
eigval :      252.64   263.68   270.15   281.47   286.24   288.10
eigval :      303.47   308.80   311.10   313.04   313.49   314.40
eigval :      316.92   321.20   323.24   328.68   339.57   342.46
eigval :      345.99   356.51   357.28   361.73   368.23   370.93
eigval :      381.78   382.75   384.14   387.02   391.83   394.78
eigval :      400.14   403.02   409.56   413.70   422.96   429.00
eigval :      438.56   440.29   445.33   446.96   456.94   458.69
eigval :      461.91   463.13   474.94   481.45   488.80   501.32
eigval :      509.08   521.60   526.45   529.91   535.04   544.20
eigval :      547.31   557.79   567.32   577.21   579.77   584.74
eigval :      592.66   597.98   607.56   610.37   615.46   617.60
eigval :      624.42   634.55   641.65   661.90   684.91   685.03
eigval :      688.03   696.18   700.02   709.20   712.69   718.39
eigval :      722.08   725.63   737.10   773.00   778.14   787.78
eigval :      802.60   810.93   813.70   818.83   822.87   823.70
eigval :      827.99   862.15   865.05   867.60   868.55   871.82
eigval :      873.99   875.40   881.73   885.32   890.79   895.11
eigval :      903.16   907.18   912.01   913.73   915.01   917.14
eigval :      919.69   923.05   927.10   927.44   929.22   929.64
eigval :      930.31   934.20   936.24   948.05   957.58   958.41
eigval :      958.75   959.85   960.90   961.33   962.13   962.46
eigval :      962.68   962.91   962.96   963.94   964.70   992.74
eigval :     1001.54  1009.40  1016.26  1026.05  1033.62  1033.95
eigval :     1034.27  1034.59  1035.12  1035.17  1035.43  1036.42
eigval :     1060.01  1070.04  1098.44  1112.11  1118.68  1132.90
eigval :     1138.98  1142.13  1143.02  1143.30  1143.78  1149.91
eigval :     1151.43  1153.48  1159.80  1171.46  1179.34  1185.34
eigval :     1192.60  1199.91  1206.55  1210.09  1211.26  1218.24
eigval :     1224.73  1225.02  1225.27  1225.65  1229.46  1231.31
eigval :     1231.79  1232.20  1232.36  1244.75  1257.66  1261.62
eigval :     1263.62  1270.91  1273.91  1274.58  1278.49  1281.03
eigval :     1283.95  1285.29  1290.02  1292.09  1293.14  1303.52
eigval :     1307.34  1308.62  1316.64  1318.41  1322.77  1328.27
eigval :     1331.27  1333.47  1348.16  1354.66  1378.92  1394.20
eigval :     1395.61  1397.33  1399.14  1400.46  1400.94  1401.92
eigval :     1402.04  1402.18  1403.41  1406.85  1407.96  1412.59
eigval :     1414.26  1415.57  1425.74  1425.88  1426.29  1427.82
eigval :     1429.77  1442.52  1448.40  1453.46  1467.84  1476.93
eigval :     1486.44  1487.09  1487.77  1488.13  1488.43  1488.86
eigval :     1488.90  1491.12  1491.17  1491.76  1491.94  1492.77
eigval :     1493.86  1499.10  1499.93  1500.10  1501.25  1501.95
eigval :     1503.23  1503.66  1504.76  1505.35  1510.00  1510.51
eigval :     1510.87  1512.06  1516.70  1517.22  1517.78  1518.69
eigval :     1524.68  1530.86  1539.81  1554.98  1561.89  1563.94
eigval :     1568.60  1569.59  1579.96  1585.77  1595.79  1599.08
eigval :     1601.80  1601.99  1606.38  3015.92  3016.82  3018.46
eigval :     3019.49  3019.82  3020.13  3020.58  3021.09  3021.97
eigval :     3022.25  3022.59  3022.90  3023.08  3023.97  3024.64
eigval :     3024.67  3025.69  3025.88  3026.98  3027.03  3028.00
eigval :     3028.59  3028.92  3029.82  3030.29  3030.41  3031.02
eigval :     3033.08  3034.90  3035.19  3036.27  3038.22  3041.26
eigval :     3042.66  3043.75  3043.86  3044.56  3044.87  3045.15
eigval :     3046.85  3048.43  3048.98  3062.31  3069.22  3070.20
eigval :     3071.77  3074.27  3076.02  3076.33  3076.71  3080.63
eigval :     3083.71  3084.21  3085.47  3086.50  3086.97  3092.54
eigval :     3095.83  3099.34  3102.02  3105.05  3108.91  3109.27
eigval :     3109.56  3117.01  3126.63

   temp. (K)  partition function   enthalpy   heat capacity  entropy
                                   cal/mol     cal/K/mol   cal/K/mol   J/K/mol
 298.15  VIB  0.377E+29            37332.324    231.021    230.763
         ROT  0.191E+09              888.752      2.981     40.870
         INT  0.719E+37            38221.077    234.002    271.633
         TR   0.241E+29             1481.254      4.968     46.083
         TOT                       39702.3306   238.9705   317.7160  1329.3236

       T/K    H(0)-H(T)+PV         H(T)/Eh          T*S/Eh         G(T)/Eh
   ------------------------------------------------------------------------
    298.15    0.632697E-01    0.115869E+01    0.150957E+00    0.100773E+01
   ------------------------------------------------------------------------

         :::::::::::::::::::::::::::::::::::::::::::::::::::::
         ::                  THERMODYNAMIC                  ::
         :::::::::::::::::::::::::::::::::::::::::::::::::::::
         :: total free energy        -173.510992289909 Eh   ::
         ::.................................................::
         :: total energy             -174.518723382354 Eh   ::
         :: zero point energy           1.095418505491 Eh   ::
         :: G(RRHO) w/o ZPVE           -0.087687413045 Eh   ::
         :: G(RRHO) contrib.            1.007731092445 Eh   ::
         :::::::::::::::::::::::::::::::::::::::::::::::::::::

           -------------------------------------------------
          | TOTAL ENERGY             -174.518723382354 Eh   |
          | TOTAL ENTHALPY           -173.360035185769 Eh   |
          | TOTAL FREE ENERGY        -173.510992289909 Eh   |
          | GRADIENT NORM               0.000024922973 Eh/α |
          | HOMO-LUMO GAP               2.281002011527 eV   |
           -------------------------------------------------

 * finished run on 2025/09/11 at 17:28:07.411
