   * xtb version 6.7.1 (edcfbbe) compiled by 'albert@albert-system' on 2024-07-22

   ID    Z sym.   atoms
    1    6 C      1-8, 10-25, 27-41, 43-52, 54-65
    2    7 N      9, 26, 53
    3    5 B      42
    4    1 H      66-131

          program call               : xtb data2507/toluene/tDMAC-BN/tDMAC-BN_toluene_S0_crest.xyz --gfn 2 --gbsa toluene --ohess vtight --parallel 40 --molden --ceasefiles --namespace data2507/toluene/tDMAC-BN/tDMAC-BN_toluene_S0_finalOpt
      * Solvation model:               GBSA
        Solvent                        toluene
        Solvent mass                       9.2140E+01 g/mol
          :  Hamiltonian                  GFN2-xTB          :
 * total energy  :  -174.5173393 Eh     change       -0.5703299E-08 Eh
 * total energy  :  -174.5174743 Eh     change       -0.1350066E-03 Eh
 * total energy  :  -174.5176359 Eh     change       -0.1615594E-03 Eh
 * total energy  :  -174.5177268 Eh     change       -0.9089158E-04 Eh
 * total energy  :  -174.5178690 Eh     change       -0.1422619E-03 Eh
 * total energy  :  -174.5180167 Eh     change       -0.1476534E-03 Eh
 * total energy  :  -174.5181271 Eh     change       -0.1103838E-03 Eh
 * total energy  :  -174.5182134 Eh     change       -0.8628848E-04 Eh
 * total energy  :  -174.5182899 Eh     change       -0.7651773E-04 Eh
 * total energy  :  -174.5183485 Eh     change       -0.5858269E-04 Eh
 * total energy  :  -174.5187464 Eh     change       -0.3797269E-06 Eh
 * total energy  :  -174.5187468 Eh     change       -0.4355878E-06 Eh
 * total energy  :  -174.5187472 Eh     change       -0.4200328E-06 Eh
 * total energy  :  -174.5187475 Eh     change       -0.3282349E-06 Eh
 * total energy  :  -174.5187478 Eh     change       -0.2747504E-06 Eh
 * total energy  :  -174.5187482 Eh     change       -0.3332796E-06 Eh
 * total energy  :  -174.5187487 Eh     change       -0.4991346E-06 Eh
 * total energy  :  -174.5187493 Eh     change       -0.6432601E-06 Eh
 * total energy  :  -174.5187493 Eh     change       -0.3385423E-08 Eh
   *** GEOMETRY OPTIMIZATION CONVERGED AFTER 68 ITERATIONS ***

 final structure:
================
131
 xtb: 6.7.1 (edcfbbe)
C           -1.15242233733845        7.41813560524510        2.16497188868049
C           -2.55294211419424        6.78974567010517        2.10981968082907
C           -3.45570011703694        7.71071177151634        1.28330357020854
C           -3.13516292145950        6.69476261620844        3.52826475698968
C           -2.44809139899010        5.39058894275377        1.52213527091082
C           -1.63765595680722        4.44102465530765        2.14177963215911
C           -1.50895303684779        3.16038766656940        1.64733820433057
C           -2.18946710426227        2.77589495359612        0.49372574096246
N           -2.05073801397967        1.47991673030107       -0.02028959830896
C           -3.16517787941657        0.82230962836373       -0.55110349068966
C           -3.05536468318821        0.00497146970304       -1.67266738851198
C           -4.16615385093827       -0.62809586714548       -2.19785346475147
C           -5.42951601170939       -0.46709155992813       -1.64023576621524
C           -6.68244268149306       -1.11393464924267       -2.21226890086537
C           -7.32976444697473       -2.00831697120935       -1.14509527740777
C           -6.39136137664095       -1.97670703217452       -3.44414911718439
C           -7.66601968285284       -0.00822060175155       -2.62528525361060
C           -5.52597917221993        0.34838707994230       -0.51391504308201
C           -4.42436428671476        0.97757630529355        0.02699083488028
C           -0.79142664126888        0.87212251104036       -0.03824898956392
C           -0.68120443800626       -0.49738588371291        0.17761501472974
C            0.56511105425400       -1.11709255312525        0.11580240171471
C            1.72467670336441       -0.35974108633988       -0.14937343515561
C            1.59398863750359        1.03367308120009       -0.30625494708792
C            0.34596800040897        1.64146891586665       -0.27555560866179
N            2.73096135898783        1.79098549919381       -0.55053469518550
C            2.83744311159730        3.11071044477984       -0.09066319512599
C            2.22804756405214        3.49562115523415        1.10078033428849
C            2.38883336049799        4.77862823916400        1.58277479704690
C            3.18057880301294        5.68078954303587        0.89403728218372
C            3.81846629681304        5.28912391520559       -0.27058704581097
C            3.65723952458119        4.00971935462087       -0.78013558963022
C            4.29344672812953        3.51195492026649       -2.06034165313874
C            3.20545519625785        3.46235483324511       -3.15538374226097
C            5.41986081748986        4.42216319376621       -2.55073934501659
C            4.75315584162621        2.08758613089625       -1.79784885946839
C            5.93174026872144        1.56810159568401       -2.29884302446567
C            6.22289233223164        0.21629424353273       -2.17128686785387
C            5.33346377514485       -0.62277565645468       -1.53894337284457
C            4.15358288404545       -0.14426049663155       -0.96082003786671
C            3.88316540028770        1.23185453758177       -1.10148215770530
B            3.07939667779156       -1.02532258005401       -0.27694235482355
C            3.12181133201036       -2.48796482002354        0.20348185626074
C            4.29676179567210       -3.21445047014481        0.44030907831010
C            4.31328686899560       -4.54168690365816        0.82146514732344
C            5.59099773005267       -5.32554317673155        1.08344915978187
C            5.65865417330282       -6.51756964340135        0.11691042502193
C            6.85308844377316       -4.48024089429098        0.88556631726388
C            5.57913636695157       -5.83401024528807        2.53297727152023
C            3.07456440752677       -5.17524873589546        0.96090015017486
C            1.89430854744631       -4.49626977038396        0.77856466940255
C            1.88983980107876       -3.13898755975931        0.43123105255165
N            0.68071547590045       -2.47562305481212        0.31710469872122
C           -0.52741705249617       -3.21967243896929        0.47268771400279
C           -1.19939589069849       -3.69439000474801       -0.64205052688861
C           -2.38773963461515       -4.38988056214788       -0.49661890387712
C           -2.93357284218681       -4.63377927320234        0.75810754697644
C           -4.23678144123360       -5.39114927250639        0.96182035288742
C           -4.89907773781050       -5.79041485841867       -0.36003511718277
C           -5.21654970711830       -4.49921831721498        1.73931078292037
C           -3.94915772195464       -6.67094594114887        1.76099144134470
C           -2.23827823135038       -4.15671179116063        1.86824909271631
C           -1.05542766203456       -3.45698466838361        1.73515012922728
C           -3.00710180162775        3.71289025137100       -0.13063185854372
C           -3.13229088644319        4.99171963389151        0.37945375060432
H           -0.49034440945431        6.85199384941974        2.81375653524273
H           -1.21286107101913        8.43570879113722        2.54571141411529
H           -0.71185864145293        7.44596252201578        1.17007274224885
H           -3.07456569746821        7.82514110232128        0.27094582617232
H           -3.48736888407088        8.69604506740376        1.74440178669445
H           -4.47300673243565        7.32809955789743        1.24088871912258
H           -2.50121940063185        6.09593596424101        4.17670284314770
H           -3.22738037327957        7.68789953328427        3.96325384060145
H           -4.12223550711994        6.23692732903800        3.49989722976690
H           -1.09490843409653        4.69680825672552        3.03926960535392
H           -0.88146640097988        2.44250994438561        2.15572471576260
H           -2.09041658042394       -0.12711784161350       -2.14062495338441
H           -4.02535163689202       -1.24566769033647       -3.07001219561700
H           -6.63840135000009       -2.79142848522386       -0.84215049040977
H           -7.60640157772074       -1.43785043436255       -0.26271149021728
H           -8.22766248252085       -2.47677306736688       -1.54302953385345
H           -5.70631289629076       -2.78625941806420       -3.20302748498030
H           -5.96747716761621       -1.38016834101620       -4.24889895994581
H           -7.31879022272849       -2.41710860947205       -3.80531050416507
H           -7.20888154882332        0.64453009683906       -3.36669889973124
H           -7.95929334734727        0.59857316709346       -1.77285185362853
H           -8.56357730940849       -0.44633028137009       -3.05725592263251
H           -6.48246009534263        0.50037242696106       -0.03611765670686
H           -4.53355720594415        1.60082678924005        0.90321806530620
H           -1.57353066405231       -1.06481294734785        0.39052115734497
H            0.24562959728098        2.70182573859913       -0.45292042884491
H            1.63846231642590        2.77909487802819        1.65147086066519
H            1.90740243373677        5.06790930125267        2.50470486782172
H            3.31054115195751        6.68605342092909        1.26654434242911
H            4.44487916658897        6.00191939592057       -0.78196005167825
H            3.62610535012881        3.06931463499855       -4.07894271542910
H            2.81953835228562        4.46278461152436       -3.34206964593895
H            2.37762407442006        2.82372217406703       -2.85739924441489
H            5.82588072887721        4.04711793190556       -3.48672603669267
H            6.21952827211806        4.48524240635245       -1.81561113852860
H            5.03609670919925        5.42058080345204       -2.74513036447363
H            6.62921633554794        2.19919571229880       -2.82560801257861
H            7.13833470193876       -0.17404277821098       -2.59348570695496
H            5.54014402043505       -1.68105985913259       -1.50037126306564
H            5.22402324685886       -2.67845762933667        0.33005942296135
H            5.64500154539061       -6.16743945809062       -0.91370259198749
H            6.57613829326109       -7.08035447884772        0.27838497388577
H            4.81754300359486       -7.19111805456766        0.25835065467668
H            7.73255143799548       -5.08710955389858        1.09361321118367
H            6.92746240368317       -4.12214965306655       -0.13874027731742
H            6.86435212148914       -3.62825346978115        1.56170548900760
H            5.51231290042047       -4.99589856046030        3.22434303242439
H            6.49308441745139       -6.38536495073632        2.74583487244875
H            4.73436412133677       -6.49330898625043        2.71452610749270
H            3.02502529300822       -6.21933556977259        1.23359433345373
H            0.96042192256581       -5.02061423160555        0.91890948940326
H           -0.79012507315488       -3.51299731925794       -1.62540266074870
H           -2.88146285974052       -4.73872726362777       -1.38837156900488
H           -5.12626004023000       -4.91389915548896       -0.96212241104949
H           -5.83335807631554       -6.30929141911902       -0.15519080131701
H           -4.26239124061612       -6.46145093600352       -0.93213185369472
H           -6.18200592243342       -4.99268940030266        1.82823396399504
H           -5.35712483511966       -3.55267452060264        1.22074644579130
H           -4.85260241751817       -4.28613766307920        2.74046754144181
H           -3.24835048390423       -7.30369407472545        1.21953923231825
H           -3.52083272668023       -6.44311947611890        2.73334864620518
H           -4.86992259510704       -7.22933949752425        1.91576572481517
H           -2.62257468663062       -4.32768892343682        2.86212794762164
H           -0.53304793443857       -3.09000856916244        2.60706813149633
H           -3.54604258462052        3.43504712675060       -1.02547391820771
H           -3.77455891467869        5.68056158088029       -0.14482557821040

          :  Hamiltonian                  GFN2-xTB          :
         :: gradient norm              0.000043361781 Eh/a0 ::
         :: HOMO-LUMO gap              2.284570464026 eV    ::
         :: SCC energy              -177.553626087387 Eh    ::
         :: -> dispersion             -0.179982274242 Eh    ::
         :: -> Gsolv                  -0.062071432960 Eh    ::
         :: repulsion energy           3.034876785986 Eh    ::

    * Orbital Energies and Occupations

         #    Occupation            Energy/Eh            Energy/eV
      -------------------------------------------------------------
         1        2.0000           -0.6609167             -17.9845
       ...           ...                  ...                  ...
       152        2.0000           -0.3979061             -10.8276
       153        2.0000           -0.3965168             -10.7898
       154        2.0000           -0.3948510             -10.7444
       155        2.0000           -0.3934926             -10.7075
       156        2.0000           -0.3915997             -10.6560
       157        2.0000           -0.3898210             -10.6076
       158        2.0000           -0.3880875             -10.5604
       159        2.0000           -0.3860567             -10.5051
       160        2.0000           -0.3767079             -10.2507
       161        2.0000           -0.3731633             -10.1543
       162        2.0000           -0.3561475              -9.6913
       163        2.0000           -0.3410079              -9.2793
       164        2.0000           -0.3385940              -9.2136 (HOMO)
       165                         -0.2546376              -6.9290 (LUMO)
       166                         -0.2272527              -6.1839
       167                         -0.2260261              -6.1505
       168                         -0.2228538              -6.0642
       169                         -0.2215930              -6.0299
       170                         -0.2184248              -5.9436
       171                         -0.2170094              -5.9051
       172                         -0.2165300              -5.8921
       173                         -0.2145323              -5.8377
       174                         -0.2138448              -5.8190
       175                         -0.2070854              -5.6351
       ...                                ...                  ...
       326                          0.7216329              19.6366
      -------------------------------------------------------------
                  HL-Gap            0.0839564 Eh            2.2846 eV

     #   Z          covCN         q      C6AA      α(0)
     1   6 C        3.761    -0.104    22.528     6.766
     2   6 C        3.902     0.025    20.096     6.372
     3   6 C        3.761    -0.107    22.592     6.776
     4   6 C        3.761    -0.105    22.545     6.769
     5   6 C        2.972     0.000    28.019     8.683
     6   6 C        2.927    -0.036    28.898     8.816
     7   6 C        2.921    -0.049    29.214     8.864
     8   6 C        2.924     0.064    26.575     8.454
     9   7 N        2.753    -0.087    22.937     7.113
    10   6 C        2.923     0.063    26.581     8.455
    11   6 C        2.922    -0.052    29.285     8.874
    12   6 C        2.925    -0.041    29.028     8.835
    13   6 C        2.971    -0.001    28.053     8.688
    14   6 C        3.902     0.025    20.097     6.372
    15   6 C        3.761    -0.104    22.529     6.766
    16   6 C        3.761    -0.106    22.571     6.773
    17   6 C        3.762    -0.105    22.543     6.768
    18   6 C        2.927    -0.037    28.931     8.821
    19   6 C        2.921    -0.052    29.288     8.875
    20   6 C        2.923     0.067    26.503     8.442
    21   6 C        2.921    -0.088    30.214     9.014
    22   6 C        2.927     0.062    26.609     8.459
    23   6 C        2.899    -0.112    30.847     9.106
    24   6 C        2.923     0.061    26.641     8.464
    25   6 C        2.921    -0.084    30.098     8.997
    26   7 N        2.758    -0.057    22.342     7.020
    27   6 C        2.942     0.057    26.711     8.476
    28   6 C        2.922    -0.049    29.217     8.864
    29   6 C        2.920    -0.035    28.864     8.810
    30   6 C        2.919    -0.042    29.043     8.837
    31   6 C        2.923    -0.041    29.029     8.836
    32   6 C        2.986    -0.010    28.254     8.719
    33   6 C        3.911     0.021    20.165     6.383
    34   6 C        3.763    -0.098    22.421     6.749
    35   6 C        3.758    -0.106    22.567     6.773
    36   6 C        2.983    -0.015    28.385     8.739
    37   6 C        2.923    -0.042    29.051     8.839
    38   6 C        2.913    -0.046    29.146     8.853
    39   6 C        2.923    -0.039    28.979     8.828
    40   6 C        2.886    -0.085    30.136     9.000
    41   6 C        2.945     0.052    26.832     8.496
    42   5 B        2.725     0.191    18.506     7.208
    43   6 C        2.887    -0.088    30.202     9.010
    44   6 C        2.929    -0.046    29.133     8.852
    45   6 C        2.968    -0.007    28.192     8.709
    46   6 C        3.902     0.024    20.119     6.376
    47   6 C        3.761    -0.103    22.517     6.764
    48   6 C        3.761    -0.105    22.562     6.771
    49   6 C        3.761    -0.103    22.520     6.765
    50   6 C        2.927    -0.036    28.893     8.815
    51   6 C        2.917    -0.060    29.482     8.904
    52   6 C        2.925     0.058    26.708     8.475
    53   7 N        2.754    -0.059    22.379     7.026
    54   6 C        2.933     0.064    26.560     8.452
    55   6 C        2.921    -0.041    29.014     8.833
    56   6 C        2.925    -0.038    28.953     8.824
    57   6 C        2.973     0.010    27.788     8.647
    58   6 C        3.902     0.026    20.081     6.370
    59   6 C        3.761    -0.107    22.591     6.776
    60   6 C        3.761    -0.105    22.557     6.770
    61   6 C        3.761    -0.106    22.573     6.773
    62   6 C        2.927    -0.035    28.873     8.812
    63   6 C        2.920    -0.041    29.017     8.834
    64   6 C        2.922    -0.051    29.273     8.873
    65   6 C        2.925    -0.041    29.027     8.835
    66   1 H        0.925     0.036     2.504     2.475
    67   1 H        0.925     0.038     2.471     2.458
    68   1 H        0.925     0.032     2.558     2.501
    69   1 H        0.925     0.035     2.511     2.478
    70   1 H        0.925     0.037     2.482     2.464
    71   1 H        0.925     0.036     2.508     2.476
    72   1 H        0.925     0.036     2.504     2.475
    73   1 H        0.925     0.039     2.465     2.455
    74   1 H        0.925     0.032     2.555     2.500
    75   1 H        0.926     0.031     2.575     2.509
    76   1 H        0.926     0.025     2.658     2.550
    77   1 H        0.926     0.025     2.656     2.548
    78   1 H        0.926     0.038     2.482     2.464
    79   1 H        0.925     0.034     2.531     2.488
    80   1 H        0.925     0.035     2.516     2.480
    81   1 H        0.925     0.038     2.471     2.458
    82   1 H        0.925     0.035     2.516     2.480
    83   1 H        0.925     0.035     2.522     2.484
    84   1 H        0.925     0.038     2.482     2.464
    85   1 H        0.925     0.031     2.569     2.507
    86   1 H        0.925     0.036     2.507     2.476
    87   1 H        0.925     0.038     2.472     2.458
    88   1 H        0.926     0.030     2.584     2.514
    89   1 H        0.926     0.025     2.657     2.549
    90   1 H        0.926     0.021     2.721     2.580
    91   1 H        0.926     0.022     2.704     2.572
    92   1 H        0.926     0.031     2.571     2.508
    93   1 H        0.926     0.030     2.591     2.517
    94   1 H        0.926     0.030     2.583     2.513
    95   1 H        0.926     0.039     2.460     2.453
    96   1 H        0.925     0.038     2.482     2.464
    97   1 H        0.925     0.037     2.485     2.465
    98   1 H        0.925     0.033     2.539     2.492
    99   1 H        0.925     0.041     2.437     2.441
   100   1 H        0.925     0.037     2.495     2.470
   101   1 H        0.925     0.041     2.438     2.442
   102   1 H        0.926     0.031     2.571     2.507
   103   1 H        0.926     0.019     2.748     2.592
   104   1 H        0.926     0.029     2.601     2.522
   105   1 H        0.926     0.038     2.480     2.463
   106   1 H        0.925     0.031     2.574     2.509
   107   1 H        0.925     0.036     2.508     2.476
   108   1 H        0.925     0.034     2.531     2.488
   109   1 H        0.925     0.035     2.520     2.483
   110   1 H        0.925     0.034     2.527     2.486
   111   1 H        0.925     0.035     2.518     2.482
   112   1 H        0.925     0.031     2.575     2.509
   113   1 H        0.925     0.036     2.509     2.477
   114   1 H        0.925     0.034     2.530     2.487
   115   1 H        0.926     0.022     2.700     2.570
   116   1 H        0.926     0.018     2.757     2.596
   117   1 H        0.926     0.036     2.500     2.473
   118   1 H        0.926     0.047     2.359     2.402
   119   1 H        0.925     0.036     2.501     2.473
   120   1 H        0.925     0.040     2.448     2.447
   121   1 H        0.925     0.037     2.489     2.467
   122   1 H        0.925     0.041     2.430     2.438
   123   1 H        0.925     0.034     2.535     2.490
   124   1 H        0.925     0.037     2.484     2.465
   125   1 H        0.925     0.034     2.532     2.489
   126   1 H        0.925     0.037     2.483     2.464
   127   1 H        0.925     0.042     2.427     2.436
   128   1 H        0.926     0.040     2.449     2.447
   129   1 H        0.926     0.036     2.500     2.473
   130   1 H        0.926     0.026     2.644     2.543
   131   1 H        0.926     0.038     2.475     2.460

molecular dipole:
                 x           y           z       tot (Debye)
 q only:       -1.196      -0.308       0.047
   full:       -1.270      -0.268       0.075       3.304

 projected vibrational frequencies (cm⁻¹)
eigval :       -0.00    -0.00    -0.00     0.00     0.00     0.00
eigval :        8.42    10.25    18.77    21.61    23.20    26.49
eigval :       26.58    29.89    33.43    35.68    40.44    44.56
eigval :       53.22    58.73    59.82    69.58    71.91    79.90
eigval :       82.97    90.48    95.66    98.66   105.09   118.82
eigval :      122.49   132.87   152.20   161.74   164.22   168.18
eigval :      168.62   175.43   178.37   180.47   182.07   191.78
eigval :      196.13   209.28   216.03   219.21   224.92   225.21
eigval :      227.00   228.53   233.96   236.59   242.05   249.57
eigval :      253.24   264.26   270.68   281.04   286.81   288.22
eigval :      304.12   309.13   312.30   314.98   315.45   316.18
eigval :      316.87   318.97   323.46   328.16   338.91   343.23
eigval :      345.37   357.25   357.70   362.00   366.88   370.89
eigval :      382.97   383.76   383.97   387.34   391.75   394.85
eigval :      400.10   403.31   410.21   413.58   423.52   429.14
eigval :      438.50   441.27   445.44   447.44   457.05   458.32
eigval :      461.86   463.21   475.24   481.67   488.63   501.21
eigval :      508.80   521.37   526.26   530.44   535.59   544.67
eigval :      548.13   557.86   567.11   577.41   579.64   584.63
eigval :      593.01   596.99   607.38   610.40   615.22   617.33
eigval :      624.17   634.65   641.95   662.11   684.64   685.85
eigval :      688.85   695.87   699.97   709.73   712.68   718.36
eigval :      722.03   725.57   737.40   772.89   777.59   787.78
eigval :      796.46   813.03   815.14   817.41   818.68   822.63
eigval :      824.46   858.63   865.37   869.29   870.34   871.89
eigval :      874.03   875.60   881.56   883.95   885.75   894.87
eigval :      898.17   907.95   913.15   913.80   914.06   915.65
eigval :      917.40   922.88   923.30   928.19   928.94   929.78
eigval :      930.92   931.90   935.55   947.94   958.53   958.56
eigval :      959.29   959.59   961.32   961.60   961.90   961.94
eigval :      962.59   962.94   963.05   963.89   966.15   993.97
eigval :     1001.16  1010.09  1016.59  1025.68  1033.64  1033.71
eigval :     1034.26  1034.68  1035.30  1035.47  1036.49  1036.69
eigval :     1059.97  1069.60  1098.82  1112.49  1119.17  1132.96
eigval :     1139.08  1142.50  1143.10  1143.81  1144.21  1150.08
eigval :     1151.86  1153.41  1159.89  1171.35  1178.64  1186.08
eigval :     1193.50  1200.81  1206.94  1210.02  1211.63  1217.83
eigval :     1224.85  1225.16  1225.36  1225.79  1229.54  1231.65
eigval :     1231.97  1232.07  1232.50  1245.30  1258.17  1262.32
eigval :     1263.86  1271.08  1274.28  1274.77  1278.37  1280.86
eigval :     1283.91  1285.34  1290.12  1292.17  1293.38  1303.89
eigval :     1307.50  1309.02  1316.77  1318.31  1322.16  1328.32
eigval :     1331.24  1332.74  1348.02  1354.86  1379.08  1394.16
eigval :     1396.01  1397.69  1399.54  1401.19  1401.34  1401.80
eigval :     1401.92  1403.09  1403.69  1406.96  1407.99  1412.47
eigval :     1414.40  1415.61  1425.89  1426.55  1427.42  1427.71
eigval :     1429.61  1442.20  1448.72  1453.66  1467.80  1477.21
eigval :     1486.64  1487.09  1487.88  1488.36  1488.44  1489.11
eigval :     1490.35  1491.13  1491.93  1492.38  1493.31  1493.40
eigval :     1493.56  1499.80  1500.09  1500.34  1500.96  1503.24
eigval :     1503.59  1503.78  1504.92  1506.20  1510.06  1511.17
eigval :     1511.98  1512.38  1517.04  1517.45  1517.93  1518.23
eigval :     1524.02  1530.69  1539.72  1554.83  1561.96  1563.90
eigval :     1568.66  1569.80  1579.96  1585.90  1595.75  1599.15
eigval :     1601.88  1602.02  1606.26  3016.54  3017.12  3018.88
eigval :     3019.01  3019.44  3020.43  3021.08  3021.64  3021.98
eigval :     3022.19  3022.42  3023.04  3023.31  3023.62  3024.31
eigval :     3025.65  3025.75  3025.95  3026.68  3026.75  3028.20
eigval :     3029.08  3029.31  3030.16  3030.29  3030.77  3032.78
eigval :     3033.55  3035.19  3036.01  3036.86  3038.66  3041.20
eigval :     3043.03  3043.06  3043.91  3044.19  3044.47  3045.04
eigval :     3046.76  3048.63  3049.48  3062.47  3069.37  3069.87
eigval :     3072.23  3074.04  3076.43  3076.62  3077.36  3080.63
eigval :     3083.17  3084.14  3085.53  3086.78  3087.49  3092.60
eigval :     3094.48  3098.68  3101.05  3105.77  3109.35  3109.54
eigval :     3110.52  3117.28  3124.57

   temp. (K)  partition function   enthalpy   heat capacity  entropy
                                   cal/mol     cal/K/mol   cal/K/mol   J/K/mol
 298.15  VIB  0.108E+29            37255.542    231.153    229.477
         ROT  0.191E+09              888.752      2.981     40.870
         INT  0.206E+37            38144.294    234.134    270.347
         TR   0.241E+29             1481.254      4.968     46.083
         TOT                       39625.5483   239.1019   316.4305  1323.9453

       T/K    H(0)-H(T)+PV         H(T)/Eh          T*S/Eh         G(T)/Eh
   ------------------------------------------------------------------------
    298.15    0.631473E-01    0.115875E+01    0.150346E+00    0.100840E+01
   ------------------------------------------------------------------------

         :::::::::::::::::::::::::::::::::::::::::::::::::::::
         ::                  THERMODYNAMIC                  ::
         :::::::::::::::::::::::::::::::::::::::::::::::::::::
         :: total free energy        -173.510344842379 Eh   ::
         ::.................................................::
         :: total energy             -174.518749307817 Eh   ::
         :: zero point energy           1.095603489829 Eh   ::
         :: G(RRHO) w/o ZPVE           -0.087199024392 Eh   ::
         :: G(RRHO) contrib.            1.008404465437 Eh   ::
         :::::::::::::::::::::::::::::::::::::::::::::::::::::

           -------------------------------------------------
          | TOTAL ENERGY             -174.518749307817 Eh   |
          | TOTAL ENTHALPY           -173.359998487305 Eh   |
          | TOTAL FREE ENERGY        -173.510344842379 Eh   |
          | GRADIENT NORM               0.000043363001 Eh/α |
          | HOMO-LUMO GAP               2.284569983190 eV   |
           -------------------------------------------------

 * finished run on 2025/09/11 at 18:02:09.058
