   * xtb version 6.7.1 (edcfbbe) compiled by 'albert@albert-system' on 2024-07-22

   ID    Z sym.   atoms
    1    6 C      1-8, 10-25, 27-41, 43-52, 54-65
    2    7 N      9, 26, 53
    3    5 B      42
    4    1 H      66-131

          program call               : xtb data2507/toluene/tDMAC-BN/tDMAC-BN_toluene_T1_crest.xyz --gfn 2 --uhf 2 --gbsa toluene --ohess vtight --parallel 40 --molden --ceasefiles --namespace data2507/toluene/tDMAC-BN/tDMAC-BN_toluene_T1_finalOpt
      * Solvation model:               GBSA
        Solvent                        toluene
        Solvent mass                       9.2140E+01 g/mol
          :  Hamiltonian                  GFN2-xTB          :
 * total energy  :  -174.4292946 Eh     change       -0.1010565E-07 Eh
 * total energy  :  -174.4294280 Eh     change       -0.1333246E-03 Eh
 * total energy  :  -174.4295650 Eh     change       -0.1370227E-03 Eh
 * total energy  :  -174.4296377 Eh     change       -0.7276874E-04 Eh
 * total energy  :  -174.4297538 Eh     change       -0.1160514E-03 Eh
 * total energy  :  -174.4298720 Eh     change       -0.1181928E-03 Eh
 * total energy  :  -174.4299794 Eh     change       -0.1073956E-03 Eh
 * total energy  :  -174.4300772 Eh     change       -0.9786468E-04 Eh
 * total energy  :  -174.4301606 Eh     change       -0.8332326E-04 Eh
 * total energy  :  -174.4302266 Eh     change       -0.6601519E-04 Eh
 * total energy  :  -174.4307624 Eh     change       -0.8002655E-06 Eh
 * total energy  :  -174.4307633 Eh     change       -0.8332968E-06 Eh
 * total energy  :  -174.4307640 Eh     change       -0.7638373E-06 Eh
 * total energy  :  -174.4307647 Eh     change       -0.6937130E-06 Eh
 * total energy  :  -174.4307654 Eh     change       -0.6368603E-06 Eh
 * total energy  :  -174.4307660 Eh     change       -0.6781449E-06 Eh
 * total energy  :  -174.4307669 Eh     change       -0.8312232E-06 Eh
 * total energy  :  -174.4307680 Eh     change       -0.1119982E-05 Eh
 * total energy  :  -174.4307680 Eh     change       -0.7268113E-08 Eh
   *** GEOMETRY OPTIMIZATION CONVERGED AFTER 68 ITERATIONS ***

 final structure:
================
131
 xtb: 6.7.1 (edcfbbe)
C           -1.74231738642414        7.30136310003304        2.19247473139885
C           -3.09076359678999        6.56939804341246        2.11706203295244
C           -4.05448014004677        7.43027298118504        1.29464884544464
C           -3.67438067074496        6.41109892934414        3.52942956756530
C           -2.87557726016024        5.19088508727602        1.51276571219618
C           -1.99825028849591        4.29709451868694        2.12699527512600
C           -1.76573072560465        3.03887098713483        1.61622112793745
C           -2.40998300327564        2.61646351327210        0.45291054868823
N           -2.15983442633582        1.35043471058847       -0.08236615388463
C           -3.18878466335574        0.61501331387066       -0.66932393922973
C           -2.94934877414152       -0.21244217016934       -1.76629898243663
C           -3.97322660815491       -0.94238551352952       -2.33759445122318
C           -5.27545104121762       -0.87795237443452       -1.85226907200471
C           -6.43464748948643       -1.64423773675989       -2.47008094332483
C           -7.04490894826368       -2.57758395097154       -1.41407919124851
C           -6.00669011456072       -2.49534549730602       -3.66960817757745
C           -7.49560003880855       -0.64200402075267       -2.95008339094373
C           -5.50182017740297       -0.05352696140286       -0.74949394619148
C           -4.48931487577917        0.67459477778326       -0.16383185863784
C           -0.85585257309628        0.83820050774649       -0.05948279547980
C           -0.64454283361548       -0.52949949546525        0.18516630721919
C            0.64051901027648       -1.06013496403990        0.14719207436770
C            1.75903482358875       -0.23826856527534       -0.11020092742667
C            1.52638783166906        1.14360046766320       -0.26804054818656
C            0.23815110621509        1.67217553740597       -0.28409032771607
N            2.62024543650204        1.98263588141117       -0.48573253043423
C            2.61647784919539        3.28623411470137       -0.01574447681732
C            1.93139437777659        3.61992304055545        1.15793893271441
C            1.97525048254427        4.90543529185352        1.64769113081601
C            2.71476489853092        5.87502454588503        0.98496537876683
C            3.41691593351258        5.54295424885950       -0.16422371661343
C            3.38302053145530        4.26017335756201       -0.68172422998968
C            4.06388608323724        3.83387792034409       -1.96329383938797
C            2.99137421712943        3.75933278635586       -3.07471704313720
C            5.13963605249692        4.82455755604856       -2.41145031023124
C            4.60413330815602        2.43172404241360       -1.74430066417844
C            5.82077072430527        2.00044617444546       -2.26093439782742
C            6.18999697929346        0.66558401047470       -2.15410196186432
C            5.36022660413481       -0.24473501332246       -1.53846024893007
C            4.14716632202443        0.13637516378698       -0.94232817547398
C            3.79470095363079        1.50812020164873       -1.07335442236331
B            3.14984975233334       -0.81448745524443       -0.25704913466810
C            3.27958569393359       -2.28269842879070        0.17871702046751
C            4.49253627076722       -2.96135397084552        0.37369300260215
C            4.58354338746897       -4.29240721716497        0.74789056575398
C            5.90701941183037       -5.01035438261884        0.95964882835694
C            5.99516309971354       -6.19926563506422       -0.00972815861679
C            7.12061455815622       -4.10804855220786        0.71583651260525
C            5.97316532385796       -5.51787739483895        2.40846438047262
C            3.38755728886910       -4.99157910269976        0.93548834380932
C            2.16554738008415       -4.36077127963355        0.79735472635064
C            2.08774438764772       -3.01180550108261        0.44609343104693
N            0.84131872327041       -2.41112618073880        0.36591735112454
C           -0.31650926093109       -3.21626242266975        0.57723874754918
C           -0.95722199952120       -3.80309445448875       -0.50286277323215
C           -2.09737485583601       -4.56384509198788       -0.30861562623468
C           -2.62705211705074       -4.76128383838276        0.96128572072618
C           -3.88191750664126       -5.58165513735251        1.21743250290283
C           -4.48294252914984       -6.15719430138642       -0.06822321527776
C           -4.93453625918878       -4.67997101937587        1.88007351026281
C           -3.53589281914332       -6.75286775555944        2.14893326524114
C           -1.96592772660540       -4.16721622837975        2.03525192738108
C           -0.82955337932466       -3.40392889316564        1.85413071766049
C           -3.29375584662624        3.49856384232953       -0.16676215478391
C           -3.51919882822616        4.75616237935995        0.35842650552798
H           -1.04344128663648        6.77817297624800        2.83866000116545
H           -1.88325203474529        8.30554831974944        2.58708295193381
H           -1.29821398080603        7.37769457751966        1.20172543989554
H           -3.67564585218497        7.58649067754275        0.28702102929652
H           -4.16359182149051        8.40435404076259        1.76758836144384
H           -5.03972457239635        6.97281956793394        1.23912817952591
H           -3.00045020299249        5.85526657906487        4.17577547002656
H           -3.84628893759780        7.38854803376879        3.97550275622275
H           -4.62281752554601        5.87876512951964        3.48751358478359
H           -1.48484386022649        4.58148588410701        3.03284525394777
H           -1.09018726172661        2.36380634834909        2.12117251899758
H           -1.95276234005214       -0.27083724566174       -2.17947596553038
H           -3.73421528311690       -1.56031362621981       -3.18772751452538
H           -6.29299108694838       -3.27545043805311       -1.05230341668993
H           -7.42866736253452       -2.01931618575292       -0.56460051272910
H           -7.86509110294288       -3.14741538361599       -1.84581961267233
H           -5.26490319706716       -3.23619130434644       -3.38053085244236
H           -5.59872995400134       -1.87470725905543       -4.46429364800652
H           -6.87183283352482       -3.02295692590425       -4.06655087223528
H           -7.06665759035801        0.03707517500620       -3.68465933930645
H           -7.88367443333683       -0.05025877220794       -2.12549210946288
H           -8.32727894636790       -1.16985463479658       -3.41234748405632
H           -6.49235624786039        0.02338836887978       -0.32667985139861
H           -4.69679711428537        1.29533973384018        0.69596301391439
H           -1.50142723880069       -1.15456086456807        0.38211795158892
H            0.07684463714604        2.71978881020339       -0.49359862883265
H            1.39401191989972        2.85038168417935        1.69026511762606
H            1.44725091961493        5.15133547077172        2.55649098023514
H            2.75266579488347        6.88468518016348        1.36531381009028
H            3.99251856261844        6.31097777068528       -0.65518771844438
H            3.44505744652436        3.42078159241242       -4.00409228620676
H            2.55004071206748        4.74140223087730       -3.23469872538028
H            2.19934904815217        3.06359884096902       -2.80778025318689
H            5.58175895497476        4.50081892405595       -3.35003245263912
H            5.92280968234695        4.91400219673856       -1.66149194221098
H            4.69956889257646        5.80330274697895       -2.58521686728466
H            6.48103871451988        2.68521285681847       -2.76634169874619
H            7.13290712050712        0.34211748766184       -2.57502165707318
H            5.64393812564443       -1.28534711382046       -1.51732545703435
H            5.39126449495081       -2.38480752415889        0.23895951790080
H            5.92620559404768       -5.85045493543572       -1.03858217032750
H            6.94416748513998       -6.71689575337811        0.11706744261524
H            5.19283124471426       -6.91174658005552        0.16242823450337
H            8.03429941561370       -4.67463823789165        0.88733573990423
H            7.13805946620042       -3.74467096394857       -0.30919110432078
H            7.11931619480515       -3.25732778997298        1.39363867899512
H            5.89379580487573       -4.68262268702207        3.10198916436304
H            6.91910218219087       -6.02621407416791        2.58563913030943
H            5.16644278785599       -6.21442121440855        2.62091584237046
H            3.39594073273553       -6.03657370891594        1.20627548658142
H            1.26415600080159       -4.93098911278429        0.96801739786651
H           -0.55891604046650       -3.65972492372447       -1.49681280532412
H           -2.56605150255351       -5.00109038319608       -1.17448609722029
H           -4.76899576629522       -5.36457641243607       -0.75523824471003
H           -5.37626451137346       -6.72923088534777        0.17417652339224
H           -3.78203809645486       -6.82453046901845       -0.56466233873642
H           -5.86317791118991       -5.22909150289085        2.01979729336843
H           -5.13553070855189       -3.81276126125965        1.25396476995796
H           -4.59964168187252       -4.32631387740244        2.85127646538616
H           -2.77701617608865       -7.38565979582726        1.69251711459226
H           -3.15714636698849       -6.40273104662432        3.10516692387132
H           -4.42198997150423       -7.35621805162766        2.33424043321843
H           -2.34056587463329       -4.29522272053237        3.03915403257240
H           -0.33206420319331       -2.95006775172539        2.69906006076728
H           -3.79851601263749        3.19421530040524       -1.07255185038255
H           -4.20724999706291        5.40188772565394       -0.16243897922707

          :  Hamiltonian                  GFN2-xTB          :
         :: gradient norm              0.000062082687 Eh/a0 ::
         :: HOMO-LUMO gap              0.543621524711 eV    ::
         :: SCC energy              -177.450428984925 Eh    ::
         :: -> dispersion             -0.179586419326 Eh    ::
         :: -> Gsolv                  -0.062704079681 Eh    ::
         :: repulsion energy           3.019660983997 Eh    ::

    * Orbital Energies and Occupations

         #    Occupation            Energy/Eh            Energy/eV
      -------------------------------------------------------------
         1        2.0000           -0.6637250             -18.0609
       ...           ...                  ...                  ...
       153        2.0000           -0.3968342             -10.7984
       154        2.0000           -0.3946133             -10.7380
       155        2.0000           -0.3940931             -10.7238
       156        2.0000           -0.3915161             -10.6537
       157        2.0000           -0.3865600             -10.5188
       158        2.0000           -0.3832449             -10.4286
       159        2.0000           -0.3779673             -10.2850
       160        2.0000           -0.3693696             -10.0511
       161        2.0000           -0.3660447              -9.9606
       162        2.0000           -0.3532875              -9.6134
       163        1.8405           -0.3442864              -9.3685
       164        1.1595           -0.3411288              -9.2826
       165        1.0000           -0.2492337              -6.7820 (HOMO)
       166        0.0000           -0.2292560              -6.2384 (LUMO)
       167        0.0000           -0.2278700              -6.2007
       168        0.0000           -0.2259372              -6.1481
       169                         -0.2234698              -6.0809
       170                         -0.2199998              -5.9865
       171                         -0.2174183              -5.9163
       172                         -0.2171675              -5.9094
       173                         -0.2161991              -5.8831
       174                         -0.2127737              -5.7899
       175                         -0.2015630              -5.4848
       176                         -0.1983590              -5.3976
       ...                                ...                  ...
       326                          0.7294080              19.8482
      -------------------------------------------------------------
                  HL-Gap            0.0199776 Eh            0.5436 eV

     #   Z          covCN         q      C6AA      α(0)
     1   6 C        3.761    -0.104    22.535     6.767
     2   6 C        3.902     0.026    20.090     6.371
     3   6 C        3.761    -0.107    22.600     6.777
     4   6 C        3.761    -0.105    22.551     6.769
     5   6 C        2.972     0.002    27.982     8.677
     6   6 C        2.926    -0.035    28.879     8.813
     7   6 C        2.921    -0.048    29.197     8.861
     8   6 C        2.924     0.061    26.637     8.464
     9   7 N        2.751    -0.069    22.579     7.057
    10   6 C        2.923     0.061    26.636     8.464
    11   6 C        2.921    -0.051    29.269     8.872
    12   6 C        2.924    -0.040    29.005     8.832
    13   6 C        2.972     0.000    28.014     8.682
    14   6 C        3.902     0.025    20.091     6.371
    15   6 C        3.761    -0.104    22.527     6.766
    16   6 C        3.761    -0.107    22.584     6.775
    17   6 C        3.761    -0.105    22.552     6.770
    18   6 C        2.926    -0.037    28.914     8.818
    19   6 C        2.920    -0.051    29.259     8.870
    20   6 C        2.921     0.045    26.996     8.521
    21   6 C        2.919    -0.071    29.767     8.947
    22   6 C        2.924     0.058    26.695     8.473
    23   6 C        2.896    -0.106    30.676     9.081
    24   6 C        2.925     0.044    27.023     8.525
    25   6 C        2.917    -0.059    29.469     8.902
    26   7 N        2.758    -0.027    21.764     6.929
    27   6 C        2.941     0.052    26.840     8.497
    28   6 C        2.920    -0.048    29.184     8.859
    29   6 C        2.918    -0.035    28.877     8.812
    30   6 C        2.918    -0.043    29.068     8.841
    31   6 C        2.921    -0.041    29.010     8.833
    32   6 C        2.984    -0.009    28.245     8.718
    33   6 C        3.911     0.021    20.167     6.383
    34   6 C        3.763    -0.097    22.394     6.745
    35   6 C        3.758    -0.104    22.539     6.768
    36   6 C        2.981    -0.017    28.428     8.746
    37   6 C        2.921    -0.057    29.415     8.894
    38   6 C        2.911    -0.040    28.987     8.828
    39   6 C        2.921    -0.052    29.291     8.875
    40   6 C        2.884    -0.077    29.920     8.968
    41   6 C        2.942     0.046    26.971     8.518
    42   5 B        2.724     0.140    19.277     7.357
    43   6 C        2.884    -0.077    29.908     8.966
    44   6 C        2.926    -0.058    29.450     8.900
    45   6 C        2.967     0.001    27.996     8.679
    46   6 C        3.902     0.024    20.120     6.376
    47   6 C        3.761    -0.102    22.495     6.761
    48   6 C        3.761    -0.104    22.539     6.768
    49   6 C        3.761    -0.102    22.501     6.762
    50   6 C        2.924    -0.049    29.212     8.863
    51   6 C        2.916    -0.062    29.543     8.913
    52   6 C        2.923     0.056    26.741     8.480
    53   7 N        2.755    -0.042    22.049     6.974
    54   6 C        2.933     0.063    26.581     8.455
    55   6 C        2.921    -0.040    28.994     8.830
    56   6 C        2.925    -0.038    28.941     8.822
    57   6 C        2.973     0.011    27.767     8.643
    58   6 C        3.902     0.026    20.077     6.369
    59   6 C        3.761    -0.108    22.603     6.777
    60   6 C        3.761    -0.106    22.566     6.772
    61   6 C        3.761    -0.106    22.580     6.774
    62   6 C        2.928    -0.034    28.856     8.810
    63   6 C        2.919    -0.040    28.999     8.831
    64   6 C        2.921    -0.050    29.251     8.869
    65   6 C        2.924    -0.040    29.005     8.832
    66   1 H        0.925     0.036     2.497     2.471
    67   1 H        0.925     0.039     2.466     2.456
    68   1 H        0.925     0.032     2.553     2.498
    69   1 H        0.925     0.036     2.505     2.475
    70   1 H        0.925     0.038     2.479     2.462
    71   1 H        0.925     0.036     2.501     2.473
    72   1 H        0.925     0.036     2.497     2.471
    73   1 H        0.925     0.039     2.460     2.453
    74   1 H        0.925     0.033     2.547     2.496
    75   1 H        0.926     0.033     2.545     2.495
    76   1 H        0.926     0.027     2.624     2.533
    77   1 H        0.926     0.027     2.624     2.533
    78   1 H        0.926     0.039     2.458     2.452
    79   1 H        0.925     0.033     2.539     2.492
    80   1 H        0.925     0.036     2.503     2.474
    81   1 H        0.925     0.039     2.463     2.454
    82   1 H        0.925     0.036     2.507     2.476
    83   1 H        0.925     0.035     2.517     2.481
    84   1 H        0.925     0.038     2.479     2.462
    85   1 H        0.925     0.032     2.561     2.503
    86   1 H        0.925     0.036     2.498     2.471
    87   1 H        0.925     0.039     2.465     2.455
    88   1 H        0.926     0.033     2.550     2.497
    89   1 H        0.926     0.028     2.608     2.526
    90   1 H        0.926     0.028     2.621     2.532
    91   1 H        0.926     0.029     2.601     2.522
    92   1 H        0.926     0.033     2.548     2.496
    93   1 H        0.926     0.030     2.580     2.512
    94   1 H        0.926     0.030     2.584     2.514
    95   1 H        0.926     0.039     2.468     2.457
    96   1 H        0.925     0.038     2.477     2.461
    97   1 H        0.925     0.037     2.490     2.468
    98   1 H        0.925     0.031     2.568     2.506
    99   1 H        0.925     0.041     2.441     2.443
   100   1 H        0.925     0.036     2.503     2.474
   101   1 H        0.925     0.040     2.449     2.447
   102   1 H        0.926     0.022     2.705     2.572
   103   1 H        0.925     0.012     2.854     2.642
   104   1 H        0.926     0.020     2.726     2.582
   105   1 H        0.926     0.031     2.570     2.507
   106   1 H        0.925     0.031     2.577     2.510
   107   1 H        0.925     0.036     2.508     2.477
   108   1 H        0.925     0.034     2.525     2.485
   109   1 H        0.925     0.034     2.533     2.489
   110   1 H        0.925     0.034     2.535     2.490
   111   1 H        0.925     0.035     2.520     2.482
   112   1 H        0.925     0.031     2.574     2.509
   113   1 H        0.925     0.036     2.509     2.477
   114   1 H        0.925     0.034     2.525     2.485
   115   1 H        0.926     0.015     2.815     2.624
   116   1 H        0.926     0.014     2.831     2.631
   117   1 H        0.926     0.038     2.476     2.460
   118   1 H        0.926     0.049     2.334     2.389
   119   1 H        0.925     0.037     2.493     2.469
   120   1 H        0.925     0.040     2.443     2.444
   121   1 H        0.925     0.037     2.487     2.466
   122   1 H        0.925     0.042     2.421     2.433
   123   1 H        0.925     0.034     2.524     2.485
   124   1 H        0.925     0.038     2.480     2.463
   125   1 H        0.925     0.034     2.533     2.489
   126   1 H        0.925     0.038     2.478     2.462
   127   1 H        0.925     0.042     2.425     2.435
   128   1 H        0.926     0.042     2.425     2.435
   129   1 H        0.926     0.037     2.482     2.464
   130   1 H        0.926     0.029     2.599     2.521
   131   1 H        0.926     0.040     2.447     2.446

molecular dipole:
                 x           y           z       tot (Debye)
 q only:       -2.375      -0.065       0.260
   full:       -2.436      -0.020       0.253       6.225

 projected vibrational frequencies (cm⁻¹)
eigval :       -0.00    -0.00     0.00     0.00     0.00     0.00
eigval :        7.18     9.20    15.06    20.04    21.77    24.13
eigval :       26.27    28.64    29.83    34.07    36.70    42.21
eigval :       48.94    57.43    59.92    68.19    69.60    78.40
eigval :       81.52    91.02    93.32    99.97   103.82   115.31
eigval :      118.95   129.68   149.22   157.93   161.20   166.37
eigval :      170.66   176.33   180.29   181.14   184.48   189.13
eigval :      195.00   198.47   207.05   216.40   225.20   226.34
eigval :      229.81   230.65   234.43   237.23   238.57   248.96
eigval :      251.12   258.13   266.91   276.43   281.44   286.56
eigval :      301.77   307.20   311.11   311.55   314.31   315.08
eigval :      315.79   317.82   322.37   325.55   338.38   340.32
eigval :      344.43   353.02   355.55   359.93   365.30   369.43
eigval :      378.29   380.63   381.30   384.69   387.21   394.19
eigval :      396.66   400.05   406.74   408.06   419.20   425.18
eigval :      428.71   437.49   441.73   443.54   453.44   457.12
eigval :      459.28   462.43   470.11   479.23   484.99   491.29
eigval :      493.99   510.27   520.58   524.85   532.60   537.67
eigval :      539.51   551.99   557.11   568.86   574.76   578.66
eigval :      583.34   586.25   603.18   606.62   608.80   614.35
eigval :      615.32   627.84   634.94   659.09   663.96   683.10
eigval :      685.03   685.86   691.86   699.60   707.34   709.97
eigval :      716.77   721.95   735.14   764.34   769.36   771.70
eigval :      783.68   790.96   795.92   810.27   813.74   819.38
eigval :      819.78   848.39   850.57   862.23   863.11   864.70
eigval :      865.38   870.53   872.24   872.99   874.41   879.41
eigval :      883.69   892.12   898.57   905.12   908.81   910.41
eigval :      911.52   916.09   916.42   921.58   923.32   924.08
eigval :      927.88   929.31   931.76   943.52   957.52   958.40
eigval :      958.58   958.87   959.38   960.98   961.77   962.13
eigval :      962.39   962.73   962.92   963.18   963.91   987.45
eigval :      998.44  1006.21  1013.55  1021.92  1032.51  1033.27
eigval :     1033.56  1034.34  1034.59  1035.02  1035.15  1035.52
eigval :     1046.23  1060.36  1089.31  1103.82  1108.30  1125.06
eigval :     1135.56  1138.89  1141.43  1142.39  1143.34  1143.71
eigval :     1150.07  1152.87  1154.34  1156.75  1171.95  1180.09
eigval :     1187.26  1196.92  1199.63  1205.46  1206.77  1209.96
eigval :     1222.05  1224.08  1224.40  1224.92  1225.33  1227.90
eigval :     1231.43  1231.64  1231.78  1235.68  1247.26  1248.49
eigval :     1258.62  1261.74  1265.09  1271.88  1272.92  1275.61
eigval :     1277.14  1280.05  1282.95  1283.75  1288.68  1291.49
eigval :     1300.22  1304.20  1310.41  1315.09  1318.69  1320.75
eigval :     1325.21  1329.89  1335.38  1341.71  1354.15  1366.85
eigval :     1373.24  1391.34  1394.77  1397.38  1398.22  1400.01
eigval :     1401.08  1401.34  1401.80  1403.15  1403.59  1405.86
eigval :     1406.41  1408.26  1409.34  1414.27  1416.94  1424.69
eigval :     1425.10  1425.91  1425.96  1427.24  1447.45  1458.65
eigval :     1470.83  1476.16  1480.48  1483.07  1484.04  1487.84
eigval :     1488.45  1488.92  1489.22  1489.59  1490.53  1491.06
eigval :     1492.20  1492.28  1493.59  1498.93  1499.21  1499.54
eigval :     1500.34  1500.45  1502.85  1502.99  1503.09  1503.31
eigval :     1506.88  1509.73  1511.20  1511.24  1511.70  1514.92
eigval :     1517.11  1517.18  1517.23  1519.04  1523.34  1532.16
eigval :     1533.55  1544.96  1552.43  1554.97  1566.88  1567.28
eigval :     1584.97  1593.03  1599.29  3014.92  3016.33  3017.60
eigval :     3019.40  3019.96  3019.98  3020.61  3021.42  3021.96
eigval :     3022.43  3023.17  3023.22  3023.40  3023.91  3024.70
eigval :     3025.37  3026.24  3026.46  3027.01  3027.56  3028.07
eigval :     3028.52  3029.26  3029.99  3030.41  3030.61  3031.72
eigval :     3033.28  3034.95  3035.79  3037.07  3037.48  3038.41
eigval :     3041.08  3043.72  3044.12  3044.41  3045.07  3045.49
eigval :     3047.60  3048.73  3049.04  3049.35  3070.34  3072.79
eigval :     3075.15  3076.67  3077.81  3077.91  3078.63  3078.70
eigval :     3081.91  3083.57  3086.18  3086.21  3088.91  3092.31
eigval :     3093.26  3096.88  3100.20  3107.51  3109.49  3110.75
eigval :     3111.20  3117.99  3129.28

   temp. (K)  partition function   enthalpy   heat capacity  entropy
                                   cal/mol     cal/K/mol   cal/K/mol   J/K/mol
 298.15  VIB  0.536E+29            37596.206    232.511    232.105
         ROT  0.190E+09              888.752      2.981     40.868
         INT  0.102E+38            38484.958    235.492    272.973
         TR   0.241E+29             1481.254      4.968     46.083
         TOT                       39966.2121   240.4605   319.0560  1334.9301

       T/K    H(0)-H(T)+PV         H(T)/Eh          T*S/Eh         G(T)/Eh
   ------------------------------------------------------------------------
    298.15    0.636902E-01    0.115484E+01    0.151594E+00    0.100325E+01
   ------------------------------------------------------------------------

         :::::::::::::::::::::::::::::::::::::::::::::::::::::
         ::                  THERMODYNAMIC                  ::
         :::::::::::::::::::::::::::::::::::::::::::::::::::::
         :: total free energy        -173.427517376896 Eh   ::
         ::.................................................::
         :: total energy             -174.430768001362 Eh   ::
         :: zero point energy           1.091154189156 Eh   ::
         :: G(RRHO) w/o ZPVE           -0.087903564689 Eh   ::
         :: G(RRHO) contrib.            1.003250624466 Eh   ::
         :::::::::::::::::::::::::::::::::::::::::::::::::::::

           -------------------------------------------------
          | TOTAL ENERGY             -174.430768001362 Eh   |
          | TOTAL ENTHALPY           -173.275923599126 Eh   |
          | TOTAL FREE ENERGY        -173.427517376896 Eh   |
          | GRADIENT NORM               0.000061889483 Eh/α |
          | HOMO-LUMO GAP               0.543618800190 eV   |
           -------------------------------------------------

 * finished run on 2025/09/11 at 18:44:07.759
