   * xtb version 6.7.1 (edcfbbe) compiled by 'albert@albert-system' on 2024-07-22

   ID    Z sym.   atoms
    1    6 C      1-20, 22-29, 31-58
    2    7 N      21, 30
    3    1 H      59-114

          program call               : xtb data2507/toluene/PLQYs/PLQYs_toluene_T1_crest.xyz --gfn 2 --uhf 2 --gbsa toluene --ohess vtight --parallel 40 --molden --ceasefiles --namespace data2507/toluene/PLQYs/PLQYs_toluene_T1_finalOpt
      * Solvation model:               GBSA
        Solvent                        toluene
        Solvent mass                       9.2140E+01 g/mol
          :  Hamiltonian                  GFN2-xTB          :
 * total energy  :  -154.4941703 Eh     change       -0.2193178E-07 Eh
 * total energy  :  -154.4942026 Eh     change       -0.3228181E-04 Eh
 * total energy  :  -154.4942149 Eh     change       -0.1230725E-04 Eh
 * total energy  :  -154.4942207 Eh     change       -0.5843482E-05 Eh
 * total energy  :  -154.4942271 Eh     change       -0.6407334E-05 Eh
 * total energy  :  -154.4942279 Eh     change       -0.7433766E-06 Eh
 * total energy  :  -154.4942314 Eh     change       -0.3564886E-05 Eh
 * total energy  :  -154.4942349 Eh     change       -0.3445824E-05 Eh
 * total energy  :  -154.4942401 Eh     change       -0.5249450E-05 Eh
 * total energy  :  -154.4942448 Eh     change       -0.4638562E-05 Eh
 * total energy  :  -154.4942473 Eh     change       -0.2511614E-05 Eh
 * total energy  :  -154.4942491 Eh     change       -0.1797753E-05 Eh
 * total energy  :  -154.4942503 Eh     change       -0.1231872E-05 Eh
 * total energy  :  -154.4942511 Eh     change       -0.8076740E-06 Eh
 * total energy  :  -154.4942517 Eh     change       -0.5303386E-06 Eh
 * total energy  :  -154.4942519 Eh     change       -0.2375147E-06 Eh
 * total energy  :  -154.4942520 Eh     change       -0.8785241E-07 Eh
   *** GEOMETRY OPTIMIZATION CONVERGED AFTER 17 ITERATIONS ***

 final structure:
================
114
 xtb: 6.7.1 (edcfbbe)
C           10.24255569451442        3.57050536317918        0.14138847495325
C            8.81281983618009        4.11983976191959        0.17009214000507
C            8.62756977626005        5.02938030834722       -1.05423756546794
C            8.64379425478039        4.94062136528489        1.45756990242061
C            7.76115629144606        3.02029944015223        0.13235315319112
C            6.40581797591790        3.37766406832725        0.15640475053467
C            5.38411483721762        2.45114174751211        0.10797638534364
C            5.72506549344577        1.10856688397655        0.02153046683034
C            7.08269752781528        0.71969432232895        0.02601348002113
C            8.08941442828339        1.67265363570504        0.07762237484985
C            7.09200793258483       -0.71901568279258       -0.01921119237408
C            8.11117903026964       -1.65963678737859       -0.04517894694543
C            7.80073076385754       -3.01127523929557       -0.10547052578239
C            8.86637630905989       -4.09785865525848       -0.11562434511492
C           10.28777240937264       -3.53119441494124       -0.04298431610865
C            8.74480991447040       -4.91592074681646       -1.41016340360055
C            8.65690680750982       -5.01395329572189        1.09991648855724
C            6.45083041925966       -3.38513923099708       -0.16272018456737
C            5.41703532645174       -2.47116303978195       -0.13945652555612
C            5.73946756722117       -1.12447820666640       -0.04588387692114
N            4.92391476610931       -0.01297039105475       -0.02163324839849
C            3.51925487733635       -0.02041362006115       -0.02872302122170
C            2.83531235214403       -0.84403595221436        0.85443295225313
C            1.41450048385259       -0.87061182933166        0.86277787916103
C            0.69386301419588       -1.69266352948998        1.73552458238956
C           -0.69378973142273       -1.69191135386112        1.73630633707883
C           -1.41471615154934       -0.86920436839306        0.86449804898136
C           -2.83558352461166       -0.84201140491780        0.85730236641037
C           -3.51946896034245       -0.01562564646566       -0.02306819646450
N           -4.92423089517447       -0.00681637736176       -0.01511452704780
C           -5.74127845461973       -1.11674807625850       -0.05137770097634
C           -5.42036780255496       -2.46306917608431       -0.15473263248841
C           -6.45543127699007       -3.37521920400654       -0.19044914506924
C           -7.80501157851990       -2.99972003784352       -0.13610587435930
C           -8.87233141323572       -4.08445979033163       -0.16133242291330
C           -8.74334392571721       -4.89438351530436       -1.46028680540316
C           -8.67262946177483       -5.00883646663593        1.04958148012634
C          -10.29334294113393       -3.51603349016443       -0.09502718710107
C           -8.11369584735837       -1.64823854872737       -0.06391703646090
C           -7.09329574272798       -0.70939528181697       -0.02511665646774
C           -7.08186477022500        0.72882624142226        0.03387159898281
C           -8.08688234553034        1.68316968027477        0.09259879132220
C           -7.75617108606174        3.02958572699780        0.16170594301798
C           -8.80592599730456        4.13053425809720        0.21070830198228
C           -8.64239057005691        4.92982912800713        1.51237637185545
C           -8.61227185495902        5.05974390170415       -0.99743964578701
C          -10.23648910007154        3.58450720203083        0.16478730964464
C           -6.40023828975832        3.38428547319795        0.19198439081248
C           -5.38013615445891        2.45645004524556        0.13601920879019
C           -5.72359134578630        1.11543547949772        0.03630509983161
C           -2.83579962094236        0.80450103950045       -0.90958792494485
C           -1.41492186463108        0.82338287647546       -0.92520873227689
C           -0.69423921698944        1.64271245848889       -1.80045733726073
C            0.69340683321720        1.64071415239422       -1.80242919541409
C            1.41428212399632        0.82011339087568       -0.92856480506525
C            2.83518141618693        0.79816556076491       -0.91630025883667
C            0.70526766259013       -0.02516899888745       -0.03271601264765
C           -0.70575987158526       -0.02398000415181       -0.03145968149734
H           10.42505443070784        3.00008083646182       -0.76657870825800
H           10.43739987911747        2.93993553325282        1.00596170656951
H           10.94815558146463        4.39873801706677        0.16449970808413
H            8.72577429281545        4.45053929604153       -1.97075084167472
H            7.64922058219227        5.50201016545244       -1.05376225877143
H            9.38360381659403        5.81192618447035       -1.05695612524393
H            8.74775241501650        4.29835802849653        2.33011776635149
H            9.40423499193669        5.71728286273115        1.50798069038789
H            7.66854603501452        5.41753700094349        1.50071898751091
H            6.13474933372380        4.42058543194201        0.21789385029821
H            4.35193884959894        2.76581485787805        0.14574286680249
H            9.11460882917737        1.34248795050882        0.07665077678492
H            9.13193661205743       -1.31691292921378       -0.01985239308739
H           11.00383285185947       -4.35073004554933       -0.04467969060634
H           10.50167168616716       -2.89768372651997       -0.90086500819162
H           10.43498994087549       -2.95927524913109        0.87043380666734
H            9.51578185955059       -5.68316334015558       -1.44095189546647
H            7.77689179292788       -5.40409041144340       -1.48308082051313
H            8.86626688882169       -4.26924310008921       -2.27717424987792
H            8.71841058336381       -4.43662827639039        2.02058336430104
H            9.42395685236427       -5.78532998434313        1.12376724952557
H            7.68620998789511       -5.50100404200722        1.06815210587178
H            6.19413587578893       -4.43129936880597       -0.23030672967259
H            4.38991625331598       -2.79833111093312       -0.20124187028602
H            3.37726417984304       -1.44983869238425        1.56417402565268
H            1.23182403787098       -2.33659666119182        2.41680487504909
H           -1.23160492194740       -2.33529171743868        2.41823405479349
H           -3.37750056699881       -1.44967134977858        1.56551949289693
H           -4.39338663659843       -2.79105909927698       -0.21460818955329
H           -6.20005389355198       -4.42117858062322       -0.26570317211317
H           -7.77565886841214       -5.38342483273950       -1.53014516616646
H           -8.85853924389189       -4.24221942924396       -2.32405405324444
H           -9.51504107058303       -5.66045276294761       -1.50085350354117
H           -7.70215139566123       -5.49657996365557        1.02152589341528
H           -8.74021526265537       -4.43757232609074        1.97359568912299
H           -9.44061294013545       -5.77953631658111        1.06276248901104
H          -11.01064864627079       -4.33435760578064       -0.10945715818394
H          -10.49934737545735       -2.87478092775744       -0.94909843665739
H          -10.44700186547890       -2.95179041685646        0.82208854252061
H           -9.13405988324521       -1.30429854776909       -0.03934116500715
H           -9.11270710847810        1.35504243978817        0.08628415472834
H           -8.75566879233669        4.27435206698523        2.37388709202195
H           -7.66509381944468        5.40107583925981        1.56991441303149
H           -9.39950193641368        5.70924373274191        1.56984521636192
H           -9.36855873330338        5.84202418464526       -0.99275435769012
H           -8.70391307273877        4.49580330698025       -1.92386501143895
H           -7.63426533296525        5.53281884876987       -0.98251850952514
H          -10.41368445165103        3.02713569563267       -0.75230635916272
H          -10.94071199423921        4.41370031374920        0.19471634955503
H          -10.43853101277140        2.94233752790279        1.01910511885404
H           -6.12751641523577        4.42602777659761        0.26485900537714
H           -4.34731640215238        2.76849955544518        0.17837841409121
H           -3.37845042622658        1.41582582304649       -1.61410320658143
H           -1.23218553094463        2.28665519696477       -2.48174308112811
H            1.23121842561081        2.28302398021844       -2.48537176561715
H            3.37721026446212        1.40646591433441       -1.62384984898049

          :  Hamiltonian                  GFN2-xTB          :
         :: gradient norm              0.000077516876 Eh/a0 ::
         :: HOMO-LUMO gap              0.918260456475 eV    ::
         :: SCC energy              -157.224134882999 Eh    ::
         :: -> dispersion             -0.146942076049 Eh    ::
         :: -> Gsolv                  -0.058993577621 Eh    ::
         :: repulsion energy           2.729882763665 Eh    ::

    * Orbital Energies and Occupations

         #    Occupation            Energy/Eh            Energy/eV
      -------------------------------------------------------------
         1        2.0000           -0.6758641             -18.3912
       ...           ...                  ...                  ...
       134        2.0000           -0.4077266             -11.0948
       135        2.0000           -0.4061214             -11.0511
       136        2.0000           -0.4026309             -10.9561
       137        2.0000           -0.3986610             -10.8481
       138        2.0000           -0.3984618             -10.8427
       139        2.0000           -0.3960109             -10.7760
       140        2.0000           -0.3927238             -10.6866
       141        2.0000           -0.3757561             -10.2248
       142        2.0000           -0.3757385             -10.2244
       143        1.9932           -0.3599317              -9.7942
       144        1.6115           -0.3556299              -9.6772
       145        1.3953           -0.3547949              -9.6545
       146        1.0000           -0.2786953              -7.5837 (HOMO)
       147                         -0.2449492              -6.6654 (LUMO)
       148                         -0.2429750              -6.6117
       149                         -0.2351649              -6.3992
       150                         -0.2205120              -6.0004
       151                         -0.2204913              -5.9999
       152                         -0.2192527              -5.9662
       153                         -0.2031164              -5.5271
       154                         -0.1977604              -5.3813
       155                         -0.1904165              -5.1815
       156                         -0.1859203              -5.0591
       157                         -0.1858950              -5.0585
       ...                                ...                  ...
       288                          0.7399000              20.1337
      -------------------------------------------------------------
                  HL-Gap            0.0337461 Eh            0.9183 eV

     #   Z          covCN         q      C6AA      α(0)
     1   6 C        3.761    -0.108    22.603     6.777
     2   6 C        3.902     0.026    20.089     6.371
     3   6 C        3.761    -0.105    22.555     6.770
     4   6 C        3.761    -0.105    22.556     6.770
     5   6 C        2.972     0.002    27.969     8.675
     6   6 C        2.930    -0.039    28.981     8.829
     7   6 C        2.908    -0.050    29.232     8.865
     8   6 C        3.081     0.046    26.888     8.501
     9   6 C        3.066    -0.019    28.410     8.740
    10   6 C        2.917    -0.043    29.069     8.841
    11   6 C        3.066    -0.019    28.410     8.740
    12   6 C        2.917    -0.043    29.069     8.841
    13   6 C        2.972     0.002    27.968     8.675
    14   6 C        3.902     0.026    20.089     6.371
    15   6 C        3.761    -0.108    22.603     6.777
    16   6 C        3.761    -0.105    22.556     6.770
    17   6 C        3.761    -0.105    22.555     6.770
    18   6 C        2.930    -0.039    28.981     8.829
    19   6 C        2.908    -0.050    29.230     8.865
    20   6 C        3.080     0.046    26.888     8.501
    21   7 N        2.803    -0.036    21.939     6.957
    22   6 C        2.900     0.061    26.624     8.460
    23   6 C        2.920    -0.065    29.628     8.926
    24   6 C        2.976     0.005    27.897     8.664
    25   6 C        2.915    -0.046    29.154     8.854
    26   6 C        2.915    -0.046    29.154     8.854
    27   6 C        2.976     0.005    27.897     8.664
    28   6 C        2.920    -0.065    29.628     8.926
    29   6 C        2.900     0.061    26.624     8.460
    30   7 N        2.803    -0.036    21.941     6.957
    31   6 C        3.081     0.046    26.887     8.501
    32   6 C        2.908    -0.050    29.231     8.865
    33   6 C        2.930    -0.039    28.981     8.829
    34   6 C        2.972     0.002    27.969     8.675
    35   6 C        3.902     0.026    20.089     6.371
    36   6 C        3.761    -0.105    22.556     6.770
    37   6 C        3.761    -0.105    22.555     6.770
    38   6 C        3.761    -0.108    22.602     6.777
    39   6 C        2.917    -0.043    29.069     8.841
    40   6 C        3.066    -0.019    28.410     8.740
    41   6 C        3.066    -0.019    28.410     8.740
    42   6 C        2.917    -0.043    29.069     8.841
    43   6 C        2.972     0.002    27.969     8.675
    44   6 C        3.902     0.026    20.089     6.371
    45   6 C        3.761    -0.105    22.556     6.770
    46   6 C        3.761    -0.105    22.555     6.770
    47   6 C        3.761    -0.108    22.602     6.777
    48   6 C        2.930    -0.039    28.981     8.829
    49   6 C        2.908    -0.050    29.231     8.865
    50   6 C        3.081     0.046    26.887     8.501
    51   6 C        2.920    -0.065    29.627     8.926
    52   6 C        2.976     0.005    27.898     8.664
    53   6 C        2.915    -0.046    29.154     8.854
    54   6 C        2.915    -0.046    29.154     8.854
    55   6 C        2.976     0.005    27.897     8.664
    56   6 C        2.920    -0.065    29.630     8.926
    57   6 C        2.995    -0.002    28.067     8.690
    58   6 C        2.995    -0.002    28.067     8.690
    59   1 H        0.925     0.037     2.493     2.469
    60   1 H        0.925     0.037     2.494     2.470
    61   1 H        0.925     0.038     2.477     2.461
    62   1 H        0.925     0.033     2.544     2.494
    63   1 H        0.925     0.036     2.498     2.472
    64   1 H        0.925     0.039     2.459     2.452
    65   1 H        0.925     0.033     2.545     2.495
    66   1 H        0.925     0.039     2.459     2.452
    67   1 H        0.925     0.036     2.499     2.472
    68   1 H        0.926     0.034     2.534     2.489
    69   1 H        0.926     0.031     2.576     2.510
    70   1 H        0.926     0.043     2.406     2.426
    71   1 H        0.926     0.043     2.406     2.426
    72   1 H        0.925     0.038     2.478     2.462
    73   1 H        0.925     0.037     2.494     2.470
    74   1 H        0.925     0.037     2.493     2.469
    75   1 H        0.925     0.039     2.458     2.452
    76   1 H        0.925     0.036     2.499     2.472
    77   1 H        0.925     0.033     2.544     2.494
    78   1 H        0.925     0.033     2.545     2.495
    79   1 H        0.925     0.039     2.459     2.452
    80   1 H        0.925     0.036     2.498     2.471
    81   1 H        0.926     0.034     2.534     2.489
    82   1 H        0.926     0.031     2.577     2.510
    83   1 H        0.926     0.030     2.584     2.514
    84   1 H        0.926     0.024     2.671     2.556
    85   1 H        0.926     0.024     2.671     2.556
    86   1 H        0.926     0.030     2.585     2.514
    87   1 H        0.926     0.031     2.578     2.511
    88   1 H        0.926     0.034     2.534     2.489
    89   1 H        0.925     0.036     2.499     2.472
    90   1 H        0.925     0.033     2.544     2.494
    91   1 H        0.925     0.039     2.458     2.452
    92   1 H        0.925     0.036     2.498     2.472
    93   1 H        0.925     0.033     2.545     2.495
    94   1 H        0.925     0.039     2.459     2.452
    95   1 H        0.925     0.038     2.478     2.462
    96   1 H        0.925     0.037     2.495     2.470
    97   1 H        0.925     0.037     2.493     2.469
    98   1 H        0.926     0.043     2.407     2.426
    99   1 H        0.926     0.043     2.407     2.426
   100   1 H        0.925     0.033     2.545     2.495
   101   1 H        0.925     0.036     2.499     2.472
   102   1 H        0.925     0.039     2.458     2.452
   103   1 H        0.925     0.039     2.459     2.452
   104   1 H        0.925     0.033     2.544     2.494
   105   1 H        0.925     0.036     2.498     2.471
   106   1 H        0.925     0.037     2.493     2.469
   107   1 H        0.925     0.038     2.477     2.461
   108   1 H        0.925     0.037     2.494     2.470
   109   1 H        0.926     0.034     2.534     2.489
   110   1 H        0.926     0.031     2.577     2.511
   111   1 H        0.926     0.030     2.584     2.514
   112   1 H        0.926     0.024     2.671     2.556
   113   1 H        0.926     0.024     2.671     2.556
   114   1 H        0.926     0.030     2.583     2.513

molecular dipole:
                 x           y           z       tot (Debye)
 q only:        0.005       0.012       0.018
   full:        0.005       0.011       0.018       0.054

 projected vibrational frequencies (cm⁻¹)
eigval :       -0.00    -0.00     0.00     0.00     0.00     0.00
eigval :        6.44     8.14    12.92    21.74    24.95    28.81
eigval :       31.80    32.85    34.97    42.50    58.36    58.88
eigval :       60.75    67.99    77.95    84.17    85.26   107.74
eigval :      117.84   125.73   149.53   151.20   157.60   159.49
eigval :      163.97   172.62   174.79   189.35   190.31   192.20
eigval :      198.93   199.56   201.56   218.14   218.27   219.76
eigval :      222.30   223.81   227.71   229.21   232.90   256.95
eigval :      257.73   260.54   277.97   287.01   305.26   311.22
eigval :      314.73   317.51   318.25   322.08   323.11   334.94
eigval :      340.76   343.53   345.48   356.79   357.72   359.46
eigval :      361.18   370.93   373.50   382.74   396.31   399.06
eigval :      407.91   408.85   417.11   430.24   439.04   441.10
eigval :      442.27   442.96   445.72   453.58   460.91   464.64
eigval :      464.93   467.19   468.04   490.27   496.94   497.98
eigval :      501.37   502.43   515.21   529.53   535.27   552.85
eigval :      580.76   585.03   585.39   587.59   588.92   590.40
eigval :      614.71   630.90   634.42   640.39   640.53   643.67
eigval :      665.91   686.19   690.56   691.39   705.54   708.93
eigval :      710.71   711.14   716.56   741.43   750.47   755.89
eigval :      764.43   765.51   767.04   797.32   800.40   808.39
eigval :      811.36   816.93   823.62   824.48   827.27   828.06
eigval :      835.10   836.53   867.25   868.48   870.50   870.79
eigval :      871.68   872.30   873.15   873.43   914.92   915.17
eigval :      915.21   916.07   923.69   925.01   929.95   930.27
eigval :      958.43   958.75   959.08   959.47   960.06   961.44
eigval :      961.48   961.65   962.03   962.11   962.34   962.48
eigval :      963.11  1017.97  1020.64  1029.47  1031.23  1031.32
eigval :     1033.56  1034.04  1034.34  1034.62  1035.34  1037.42
eigval :     1040.00  1041.68  1111.17  1113.54  1125.68  1125.87
eigval :     1131.08  1137.03  1141.62  1148.08  1165.50  1165.96
eigval :     1174.81  1179.15  1181.47  1183.73  1201.01  1219.72
eigval :     1223.97  1224.08  1224.18  1224.22  1224.43  1228.56
eigval :     1228.72  1228.83  1230.02  1232.15  1232.29  1234.67
eigval :     1242.52  1249.03  1256.31  1265.10  1279.67  1280.20
eigval :     1288.66  1295.09  1297.60  1299.79  1300.60  1311.96
eigval :     1329.91  1340.86  1341.40  1345.69  1346.16  1354.06
eigval :     1354.98  1373.90  1389.84  1399.21  1399.71  1401.18
eigval :     1401.71  1401.81  1401.91  1402.66  1402.91  1404.39
eigval :     1406.84  1409.51  1411.80  1425.60  1426.14  1426.43
eigval :     1426.99  1438.14  1439.27  1441.63  1466.78  1466.82
eigval :     1478.78  1478.86  1480.31  1485.33  1487.89  1488.14
eigval :     1488.24  1488.53  1489.07  1491.61  1491.65  1491.78
eigval :     1491.82  1498.14  1498.32  1498.37  1498.52  1498.64
eigval :     1501.27  1501.44  1501.55  1501.94  1505.53  1511.04
eigval :     1511.09  1511.40  1511.61  1516.98  1517.26  1517.80
eigval :     1518.03  1537.17  1561.32  1561.44  1575.15  1575.46
eigval :     1584.66  1584.72  1598.93  1605.48  3019.14  3019.55
eigval :     3019.61  3019.69  3020.10  3020.12  3020.17  3020.35
eigval :     3023.59  3023.67  3023.78  3023.93  3024.59  3024.74
eigval :     3024.76  3024.90  3027.20  3027.27  3027.35  3027.47
eigval :     3030.74  3030.89  3031.02  3031.09  3035.62  3035.86
eigval :     3035.93  3036.01  3044.61  3044.67  3045.04  3045.12
eigval :     3047.97  3048.04  3048.19  3048.39  3063.07  3063.40
eigval :     3074.24  3075.47  3078.49  3078.50  3078.66  3078.75
eigval :     3088.95  3089.28  3090.99  3091.11  3091.26  3091.36
eigval :     3092.01  3093.55  3116.93  3117.10  3119.43  3119.70

   temp. (K)  partition function   enthalpy   heat capacity  entropy
                                   cal/mol     cal/K/mol   cal/K/mol   J/K/mol
 298.15  VIB  0.179E+25            32182.641    202.215    197.612
         ROT  0.243E+09              888.752      2.981     41.348
         INT  0.435E+33            33071.393    205.196    238.960
         TR   0.202E+29             1481.254      4.968     45.731
         TOT                       34552.6474   210.1641   284.6910  1191.1473

       T/K    H(0)-H(T)+PV         H(T)/Eh          T*S/Eh         G(T)/Eh
   ------------------------------------------------------------------------
    298.15    0.550631E-01    0.998828E+00    0.135266E+00    0.863562E+00
   ------------------------------------------------------------------------

         :::::::::::::::::::::::::::::::::::::::::::::::::::::
         ::                  THERMODYNAMIC                  ::
         :::::::::::::::::::::::::::::::::::::::::::::::::::::
         :: total free energy        -153.630689712854 Eh   ::
         ::.................................................::
         :: total energy             -154.494252116264 Eh   ::
         :: zero point energy           0.943765157403 Eh   ::
         :: G(RRHO) w/o ZPVE           -0.080202753992 Eh   ::
         :: G(RRHO) contrib.            0.863562403410 Eh   ::
         :::::::::::::::::::::::::::::::::::::::::::::::::::::

           -------------------------------------------------
          | TOTAL ENERGY             -154.494252116264 Eh   |
          | TOTAL ENTHALPY           -153.495423810312 Eh   |
          | TOTAL FREE ENERGY        -153.630689712854 Eh   |
          | GRADIENT NORM               0.000078537187 Eh/α |
          | HOMO-LUMO GAP               0.918278086679 eV   |
           -------------------------------------------------

 * finished run on 2025/09/07 at 22:00:00.812
