   * xtb version 6.7.1 (edcfbbe) compiled by 'albert@albert-system' on 2024-07-22

   ID    Z sym.   atoms
    1    6 C      1-20, 22-29, 31-58
    2    7 N      21, 30
    3    1 H      59-114

          program call               : xtb data2507/toluene/PLQYs/PLQYs_toluene_S0_finalOpt.xtbopt.xyz --gfn 2 --uhf 2 --gbsa toluene --ohess vtight --parallel 40 --molden --ceasefiles --namespace data2507/toluene/PLQYs/PLQYs_toluene_T1_preOpt
      * Solvation model:               GBSA
        Solvent                        toluene
        Solvent mass                       9.2140E+01 g/mol
          :  Hamiltonian                  GFN2-xTB          :
 * total energy  :  -154.4889792 Eh     change       -0.2433040E-08 Eh
 * total energy  :  -154.4930323 Eh     change       -0.4053114E-02 Eh
 * total energy  :  -154.4941649 Eh     change       -0.1132601E-02 Eh
 * total energy  :  -154.4942131 Eh     change       -0.4819497E-04 Eh
 * total energy  :  -154.4942349 Eh     change       -0.2185665E-04 Eh
 * total energy  :  -154.4942394 Eh     change       -0.4472317E-05 Eh
 * total energy  :  -154.4942408 Eh     change       -0.1437643E-05 Eh
 * total energy  :  -154.4942414 Eh     change       -0.5426710E-06 Eh
 * total energy  :  -154.4942418 Eh     change       -0.4023446E-06 Eh
 * total energy  :  -154.4942421 Eh     change       -0.3582324E-06 Eh
 * total energy  :  -154.4942426 Eh     change       -0.4446886E-06 Eh
 * total energy  :  -154.4942429 Eh     change       -0.3180040E-06 Eh
 * total energy  :  -154.4942431 Eh     change       -0.1771752E-06 Eh
 * total energy  :  -154.4942432 Eh     change       -0.9278190E-07 Eh
   *** GEOMETRY OPTIMIZATION CONVERGED AFTER 14 ITERATIONS ***

 final structure:
================
114
 xtb: 6.7.1 (edcfbbe)
C           10.21024336762920        3.60638067576967        0.21883420666749
C            8.77581826552501        4.14362840551940        0.24334339907237
C            8.59558152590350        5.07442219213744       -0.96559892761553
C            8.58698761756358        4.93894168090413        1.54405987015760
C            7.73376824679693        3.03632812945913        0.17606261888339
C            6.37528048060483        3.38221377842444        0.18767073451218
C            5.36199396783665        2.44783833294635        0.11740107752657
C            5.71530657799312        1.10911239510813        0.02145485752619
C            7.07602110876893        0.73153198846999        0.03576927843960
C            8.07400494039884        1.69220713124478        0.10909140429905
C            7.09780869586315       -0.70648530282271       -0.02369178369360
C            8.12506359391865       -1.63818903434153       -0.04984598735601
C            7.82663818451944       -2.99175720812399       -0.12571419995690
C            8.90190820700529       -4.06882477481194       -0.13884369311489
C           10.31774023265164       -3.49025633781325       -0.05212678238175
C            8.79586143621727       -4.87622916603770       -1.44144831301363
C            8.69308977043385       -4.99766689188632        1.06708475499885
C            6.48039645984641       -3.37648773130156       -0.19638326509170
C            5.43867199757800       -2.47149681207134       -0.17330926654666
C            5.74898991142473       -1.12295952908352       -0.06632793717588
N            4.92413637903273       -0.01857030257664       -0.04006538211225
C            3.51946302721384       -0.03568943198252       -0.05571252314960
C            2.83577813508848       -0.86455453313710        0.82256103603545
C            1.41496897293913       -0.89446736805839        0.82760508576140
C            0.69423671165869       -1.71732920296972        1.69946446969647
C           -0.69342536600986       -1.71696169552745        1.69996019096830
C           -1.41433079201658       -0.89424333260415        0.82809873279294
C           -2.83510263829649       -0.86375430454462        0.82390548974115
C           -3.51925962310097       -0.03729664811153       -0.05638779029157
N           -4.92380350952939       -0.02027779111310       -0.04031167969621
C           -5.74867044868219       -1.12500947831211       -0.05497695167552
C           -5.43880003044633       -2.47446167530556       -0.15139808420470
C           -6.48054863915142       -3.37965494229890       -0.16255885874362
C           -7.82655394061900       -2.99441854263224       -0.09038654424620
C           -8.90177709332398       -4.07158135838976       -0.08920537033490
C           -8.80245574749613       -4.88884914088120       -1.38616052274325
C           -8.68665074384321       -4.99115865009437        1.12269274078947
C          -10.31713166285254       -3.49234811044953        0.00072152134331
C           -8.12476922074484       -1.64018306896918       -0.02691551021475
C           -7.09743362247571       -0.70831016902198       -0.01300188105024
C           -7.07577503491928        0.73020164427740        0.03258510343366
C           -8.07402497275864        1.69120101550683        0.09758963839729
C           -7.73417276194753        3.03601494191778        0.15077107462905
C           -8.77638897232997        4.14379754957074        0.20574214562206
C           -8.58568567413102        4.95611693379773        1.49558570187131
C           -8.59816990997321        5.05855348609951       -1.01569050118010
C          -10.21071651011357        3.60598024671028        0.19068507371626
C           -6.37576859797501        3.38226887790935        0.15852579144696
C           -5.36229009454069        2.44752567202040        0.09650906226421
C           -5.71516254543991        1.10787100374909        0.01265199295916
C           -2.83544142426129        0.77740634547406       -0.94778706093196
C           -1.41455344722606        0.79496414748368       -0.96462450044051
C           -0.69387318189445        1.61301648736111       -1.84106593607417
C            0.69377094608244        1.61418076175390       -1.84017390102741
C            1.41471313009524        0.79677127763884       -0.96334578774055
C            2.83560884100584        0.78109437141155       -0.94511371958956
C            0.70575292951486       -0.05008072141584       -0.06893487720119
C           -0.70528792957720       -0.05047806323310       -0.06913426775100
H           10.40547817050115        3.05221762206589       -0.69655132861312
H           10.40254425117872        2.96346713655445        1.07485172308980
H           10.90884558393712        4.43974249751240        0.26174626377401
H            8.70748419600479        4.51366081018183       -1.89172360130086
H            7.61380927489384        5.53988555540496       -0.96622888475014
H            9.34559645533188        5.86249733833201       -0.94599077638459
H            9.33813918568972        5.72299828462329        1.61500163023991
H            7.60596982730256        5.40393553278395        1.58741326739209
H            8.69097525237451        4.28228844614179        2.40586384853495
H            6.09483814131374        4.42211249329630        0.25758704629490
H            4.32677685651925        2.75336316363672        0.14650529600819
H            9.10187232858339        1.37062057274120        0.11614116687751
H            9.14259944601463       -1.28709328047592       -0.01266620731163
H           11.04106135775236       -4.30337594334853       -0.05728614936833
H           10.53119468029358       -2.84660090754530       -0.90255472641926
H           10.45434883677413       -2.92595439985620        0.86765542527390
H            9.57390552402868       -5.63622215715903       -1.47409389507761
H            7.83285662642730       -5.37235398364255       -1.52494875412449
H            8.91708447535861       -4.22079837398445       -2.30190729610950
H            8.74525159675469       -4.42833140019080        1.99328682052050
H            9.46603156454744       -5.76322279320590        1.08799980624938
H            7.72638465569776       -5.49187593934609        1.02561957559623
H            6.23318062978955       -4.42416951780759       -0.27480864523016
H            4.41477603204627       -2.80660260688177       -0.24540198359945
H            3.37767915428296       -1.47048110520118        1.53228365621274
H            1.23212704672710       -2.36080005654660        2.38124236145034
H           -1.23116618082435       -2.36003384147210        2.38223297797515
H           -3.37657115593593       -1.46744519052952        1.53581297613658
H           -4.41525054571728       -2.81043074261015       -0.22419800403986
H           -6.23350819900618       -4.42797669070117       -0.23256056769053
H           -7.83989585570559       -5.38567924199228       -1.47071443568810
H           -8.92784326369770       -4.23982386993663       -2.25086574847714
H           -9.58074943891350       -5.64893480184804       -1.40915965026043
H           -7.72030029094984       -5.48592570381636        1.07997214301698
H           -8.73381537843064       -4.41471608027580        2.04475581035930
H           -9.45958904651238       -5.75638243470133        1.15360130676164
H          -11.04039173825955       -4.30550996328501        0.00739481432107
H          -10.53585567564916       -2.85654768494668       -0.85424826858986
H          -10.44814273339376       -2.91961348923150        0.91609906137451
H           -9.14217085174241       -1.28866810593534        0.01002569227399
H           -9.10177573059040        1.36932974657529        0.10866098967586
H           -8.68648243817908        4.31032109049636        2.36590823325306
H           -7.60537804888897        5.42326110215281        1.53064110700602
H           -9.33791158140691        5.73984286329883        1.55828061330044
H           -9.34751917876832        5.84743724113308       -1.00481188789432
H           -8.71248871097412        4.48576595987636       -1.93413100995805
H           -7.61597282271274        5.52305145608927       -1.02456315252224
H          -10.40771246523079        3.04059243883852       -0.71741360188667
H          -10.90942820930448        4.43965545267476        0.22473985911956
H          -10.40109305188807        2.97356357571732        1.05490919717679
H           -6.09546554169719        4.42284557205415        0.21830637087759
H           -4.32724311399318        2.75383665139976        0.12243497231766
H           -3.37789638463035        1.38737946467597       -1.65359063864461
H           -1.23177686188356        2.25466653920133       -2.52455744033598
H            1.23149013801513        2.25682456620104       -2.52287436186168
H            3.37819644474744        1.39376703173077       -1.64851967301195

          :  Hamiltonian                  GFN2-xTB          :
         :: gradient norm              0.000056717223 Eh/a0 ::
         :: HOMO-LUMO gap              0.918464270656 eV    ::
         :: SCC energy              -157.224092102331 Eh    ::
         :: -> dispersion             -0.146936413916 Eh    ::
         :: -> Gsolv                  -0.058996622607 Eh    ::
         :: repulsion energy           2.729848857535 Eh    ::

    * Orbital Energies and Occupations

         #    Occupation            Energy/Eh            Energy/eV
      -------------------------------------------------------------
         1        2.0000           -0.6758584             -18.3910
       ...           ...                  ...                  ...
       134        2.0000           -0.4077216             -11.0947
       135        2.0000           -0.4061213             -11.0511
       136        2.0000           -0.4026332             -10.9562
       137        2.0000           -0.3986626             -10.8482
       138        2.0000           -0.3984638             -10.8428
       139        2.0000           -0.3960131             -10.7761
       140        2.0000           -0.3927229             -10.6865
       141        2.0000           -0.3757521             -10.2247
       142        2.0000           -0.3757344             -10.2243
       143        1.9932           -0.3599363              -9.7944
       144        1.6117           -0.3556376              -9.6774
       145        1.3951           -0.3548014              -9.6546
       146        1.0000           -0.2786993              -7.5838 (HOMO)
       147                         -0.2449468              -6.6653 (LUMO)
       148                         -0.2429743              -6.6117
       149                         -0.2351716              -6.3993
       150                         -0.2205115              -6.0004
       151                         -0.2204888              -5.9998
       152                         -0.2192576              -5.9663
       153                         -0.2031076              -5.5268
       154                         -0.1977650              -5.3815
       155                         -0.1904271              -5.1818
       156                         -0.1859182              -5.0591
       157                         -0.1858931              -5.0584
       ...                                ...                  ...
       288                          0.7399386              20.1348
      -------------------------------------------------------------
                  HL-Gap            0.0337524 Eh            0.9185 eV

     #   Z          covCN         q      C6AA      α(0)
     1   6 C        3.761    -0.108    22.602     6.777
     2   6 C        3.902     0.026    20.089     6.371
     3   6 C        3.761    -0.105    22.555     6.770
     4   6 C        3.761    -0.105    22.555     6.770
     5   6 C        2.972     0.002    27.969     8.675
     6   6 C        2.930    -0.039    28.981     8.829
     7   6 C        2.908    -0.050    29.232     8.865
     8   6 C        3.081     0.046    26.887     8.501
     9   6 C        3.066    -0.019    28.410     8.740
    10   6 C        2.917    -0.043    29.069     8.841
    11   6 C        3.066    -0.019    28.410     8.740
    12   6 C        2.917    -0.043    29.069     8.841
    13   6 C        2.972     0.002    27.969     8.675
    14   6 C        3.902     0.026    20.089     6.371
    15   6 C        3.761    -0.108    22.603     6.777
    16   6 C        3.761    -0.105    22.556     6.770
    17   6 C        3.761    -0.105    22.555     6.770
    18   6 C        2.930    -0.039    28.981     8.829
    19   6 C        2.908    -0.050    29.230     8.865
    20   6 C        3.080     0.046    26.887     8.501
    21   7 N        2.803    -0.036    21.941     6.957
    22   6 C        2.900     0.061    26.624     8.460
    23   6 C        2.920    -0.065    29.627     8.926
    24   6 C        2.976     0.005    27.897     8.664
    25   6 C        2.915    -0.046    29.154     8.854
    26   6 C        2.915    -0.046    29.154     8.854
    27   6 C        2.976     0.005    27.897     8.664
    28   6 C        2.920    -0.065    29.628     8.926
    29   6 C        2.900     0.061    26.623     8.460
    30   7 N        2.803    -0.036    21.939     6.957
    31   6 C        3.080     0.046    26.888     8.501
    32   6 C        2.908    -0.050    29.230     8.865
    33   6 C        2.930    -0.039    28.981     8.829
    34   6 C        2.972     0.002    27.968     8.675
    35   6 C        3.902     0.026    20.089     6.371
    36   6 C        3.761    -0.105    22.555     6.770
    37   6 C        3.761    -0.105    22.555     6.770
    38   6 C        3.761    -0.108    22.603     6.777
    39   6 C        2.917    -0.043    29.069     8.841
    40   6 C        3.066    -0.019    28.410     8.740
    41   6 C        3.066    -0.019    28.410     8.740
    42   6 C        2.917    -0.043    29.069     8.841
    43   6 C        2.972     0.002    27.969     8.675
    44   6 C        3.902     0.026    20.089     6.371
    45   6 C        3.761    -0.105    22.556     6.770
    46   6 C        3.761    -0.105    22.555     6.770
    47   6 C        3.761    -0.108    22.603     6.777
    48   6 C        2.930    -0.039    28.981     8.829
    49   6 C        2.908    -0.050    29.232     8.865
    50   6 C        3.081     0.046    26.888     8.501
    51   6 C        2.920    -0.065    29.630     8.926
    52   6 C        2.976     0.005    27.897     8.664
    53   6 C        2.915    -0.046    29.154     8.854
    54   6 C        2.915    -0.046    29.154     8.854
    55   6 C        2.976     0.005    27.897     8.664
    56   6 C        2.920    -0.065    29.628     8.926
    57   6 C        2.995    -0.002    28.067     8.690
    58   6 C        2.995    -0.002    28.067     8.690
    59   1 H        0.925     0.037     2.494     2.469
    60   1 H        0.925     0.037     2.494     2.470
    61   1 H        0.925     0.038     2.477     2.461
    62   1 H        0.925     0.033     2.544     2.494
    63   1 H        0.925     0.036     2.498     2.472
    64   1 H        0.925     0.039     2.459     2.452
    65   1 H        0.925     0.039     2.458     2.452
    66   1 H        0.925     0.036     2.499     2.472
    67   1 H        0.925     0.033     2.545     2.495
    68   1 H        0.926     0.034     2.535     2.490
    69   1 H        0.926     0.031     2.577     2.511
    70   1 H        0.926     0.043     2.406     2.426
    71   1 H        0.926     0.043     2.406     2.426
    72   1 H        0.925     0.038     2.478     2.462
    73   1 H        0.925     0.037     2.494     2.470
    74   1 H        0.925     0.037     2.493     2.469
    75   1 H        0.925     0.039     2.458     2.452
    76   1 H        0.925     0.036     2.499     2.472
    77   1 H        0.925     0.033     2.544     2.494
    78   1 H        0.925     0.033     2.545     2.495
    79   1 H        0.925     0.039     2.459     2.452
    80   1 H        0.925     0.036     2.498     2.472
    81   1 H        0.926     0.034     2.534     2.489
    82   1 H        0.926     0.031     2.578     2.511
    83   1 H        0.926     0.030     2.585     2.514
    84   1 H        0.926     0.024     2.671     2.556
    85   1 H        0.926     0.024     2.671     2.556
    86   1 H        0.926     0.030     2.584     2.514
    87   1 H        0.926     0.031     2.577     2.510
    88   1 H        0.926     0.034     2.534     2.489
    89   1 H        0.925     0.036     2.499     2.472
    90   1 H        0.925     0.033     2.544     2.494
    91   1 H        0.925     0.039     2.458     2.452
    92   1 H        0.925     0.036     2.498     2.471
    93   1 H        0.925     0.033     2.545     2.495
    94   1 H        0.925     0.039     2.459     2.452
    95   1 H        0.925     0.038     2.478     2.462
    96   1 H        0.925     0.037     2.494     2.470
    97   1 H        0.925     0.037     2.493     2.469
    98   1 H        0.926     0.043     2.406     2.426
    99   1 H        0.926     0.043     2.406     2.426
   100   1 H        0.925     0.033     2.545     2.495
   101   1 H        0.925     0.036     2.499     2.472
   102   1 H        0.925     0.039     2.458     2.452
   103   1 H        0.925     0.039     2.459     2.452
   104   1 H        0.925     0.033     2.544     2.494
   105   1 H        0.925     0.036     2.498     2.472
   106   1 H        0.925     0.037     2.493     2.469
   107   1 H        0.925     0.038     2.477     2.461
   108   1 H        0.925     0.037     2.494     2.470
   109   1 H        0.926     0.034     2.534     2.489
   110   1 H        0.926     0.031     2.576     2.510
   111   1 H        0.926     0.030     2.583     2.513
   112   1 H        0.926     0.024     2.671     2.556
   113   1 H        0.926     0.024     2.671     2.556
   114   1 H        0.926     0.030     2.584     2.514

molecular dipole:
                 x           y           z       tot (Debye)
 q only:       -0.005       0.025       0.038
   full:       -0.005       0.022       0.038       0.111

 projected vibrational frequencies (cm⁻¹)
eigval :       -0.00    -0.00    -0.00    -0.00     0.00     0.00
eigval :        7.79     8.28    13.12    22.09    25.14    30.27
eigval :       30.63    33.18    36.28    41.81    58.01    59.31
eigval :       60.64    67.26    77.45    84.27    85.93   108.33
eigval :      118.00   126.20   149.29   150.74   158.13   160.90
eigval :      164.16   174.37   175.10   189.62   190.46   192.93
eigval :      199.87   201.63   203.21   217.10   218.72   219.79
eigval :      222.81   225.56   228.51   229.70   233.36   256.98
eigval :      257.74   260.55   277.94   286.88   305.30   311.49
eigval :      315.03   318.02   318.48   322.83   325.83   335.01
eigval :      340.66   343.80   345.64   356.65   357.72   359.23
eigval :      360.89   370.99   373.44   383.23   395.97   398.41
eigval :      408.27   408.94   417.31   430.42   439.06   441.18
eigval :      442.08   442.52   445.79   453.81   460.91   464.81
eigval :      464.97   467.35   467.74   490.71   496.87   497.93
eigval :      501.33   502.79   515.48   529.70   535.46   553.14
eigval :      580.83   585.36   585.56   587.60   589.33   590.38
eigval :      614.55   630.99   634.52   640.51   641.32   643.56
eigval :      665.83   686.28   690.83   691.15   705.47   708.62
eigval :      710.38   711.20   716.64   741.37   750.42   755.31
eigval :      763.91   765.40   766.93   796.84   800.64   808.28
eigval :      811.35   817.17   823.25   824.08   826.98   827.81
eigval :      835.19   836.45   867.42   868.73   869.64   870.37
eigval :      871.86   872.51   873.85   874.13   914.64   914.70
eigval :      914.96   915.46   923.81   925.12   930.41   930.72
eigval :      959.20   959.22   959.30   959.50   961.20   961.43
eigval :      961.52   961.79   961.82   962.14   962.30   962.97
eigval :      963.04  1017.98  1020.57  1029.91  1031.21  1031.80
eigval :     1033.86  1034.40  1034.44  1034.49  1036.05  1038.09
eigval :     1040.28  1041.80  1111.26  1113.49  1126.02  1126.11
eigval :     1131.04  1136.71  1141.47  1148.06  1165.37  1165.88
eigval :     1174.52  1179.03  1181.38  1183.68  1200.62  1219.89
eigval :     1224.15  1224.30  1224.32  1224.36  1224.37  1228.64
eigval :     1228.81  1228.86  1230.19  1232.16  1232.29  1234.66
eigval :     1242.59  1248.99  1256.12  1264.97  1279.61  1280.14
eigval :     1288.65  1294.98  1297.52  1299.65  1300.59  1311.86
eigval :     1329.78  1340.85  1341.47  1345.67  1346.17  1354.01
eigval :     1354.92  1373.98  1389.74  1399.12  1399.59  1401.42
eigval :     1401.53  1401.86  1402.00  1402.04  1402.39  1404.41
eigval :     1406.82  1409.40  1411.77  1426.04  1426.16  1426.16
eigval :     1426.20  1438.09  1439.25  1441.64  1466.76  1466.82
eigval :     1478.77  1478.86  1480.42  1485.35  1487.96  1488.21
eigval :     1488.76  1488.79  1489.01  1491.63  1491.71  1492.02
eigval :     1492.06  1498.28  1498.51  1498.64  1498.65  1498.72
eigval :     1501.32  1501.37  1502.01  1502.10  1505.49  1510.99
eigval :     1511.07  1511.60  1512.64  1517.42  1517.56  1518.01
eigval :     1518.50  1537.22  1561.30  1561.43  1575.18  1575.43
eigval :     1584.64  1584.69  1599.02  1605.48  3019.26  3019.50
eigval :     3019.59  3020.08  3020.13  3020.26  3020.34  3020.58
eigval :     3023.66  3023.85  3023.89  3024.01  3024.69  3024.70
eigval :     3024.82  3025.44  3027.16  3027.29  3027.45  3027.75
eigval :     3031.05  3031.09  3031.32  3031.52  3035.80  3035.93
eigval :     3036.16  3036.47  3044.30  3044.46  3045.13  3045.23
eigval :     3047.64  3048.01  3048.37  3048.41  3063.08  3063.39
eigval :     3074.26  3075.49  3078.78  3078.98  3079.03  3079.16
eigval :     3088.83  3089.16  3091.00  3091.25  3091.48  3091.51
eigval :     3091.92  3093.59  3117.23  3117.24  3119.96  3120.18

   temp. (K)  partition function   enthalpy   heat capacity  entropy
                                   cal/mol     cal/K/mol   cal/K/mol   J/K/mol
 298.15  VIB  0.129E+25            32159.823    202.193    197.199
         ROT  0.243E+09              888.752      2.981     41.348
         INT  0.314E+33            33048.575    205.174    238.547
         TR   0.202E+29             1481.254      4.968     45.731
         TOT                       34529.8290   210.1425   284.2786  1189.4217

       T/K    H(0)-H(T)+PV         H(T)/Eh          T*S/Eh         G(T)/Eh
   ------------------------------------------------------------------------
    298.15    0.550268E-01    0.998879E+00    0.135070E+00    0.863809E+00
   ------------------------------------------------------------------------

         :::::::::::::::::::::::::::::::::::::::::::::::::::::
         ::                  THERMODYNAMIC                  ::
         :::::::::::::::::::::::::::::::::::::::::::::::::::::
         :: total free energy        -153.630434197443 Eh   ::
         ::.................................................::
         :: total energy             -154.494243242086 Eh   ::
         :: zero point energy           0.943852194477 Eh   ::
         :: G(RRHO) w/o ZPVE           -0.080043149833 Eh   ::
         :: G(RRHO) contrib.            0.863809044644 Eh   ::
         :::::::::::::::::::::::::::::::::::::::::::::::::::::

           -------------------------------------------------
          | TOTAL ENERGY             -154.494243242086 Eh   |
          | TOTAL ENTHALPY           -153.495364262423 Eh   |
          | TOTAL FREE ENERGY        -153.630434197443 Eh   |
          | GRADIENT NORM               0.000057251787 Eh/α |
          | HOMO-LUMO GAP               0.918450440232 eV   |
           -------------------------------------------------

 * finished run on 2025/09/07 at 21:39:27.139
