   * xtb version 6.7.1 (edcfbbe) compiled by 'albert@albert-system' on 2024-07-22

   ID    Z sym.   atoms
    1    6 C      1-20, 22-29, 31-58
    2    7 N      21, 30
    3    1 H      59-114

          program call               : xtb data2507/toluene/PLQYs/PLQYs_toluene_S0_crest.xyz --gfn 2 --gbsa toluene --ohess vtight --parallel 40 --molden --ceasefiles --namespace data2507/toluene/PLQYs/PLQYs_toluene_S0_finalOpt
      * Solvation model:               GBSA
        Solvent                        toluene
        Solvent mass                       9.2140E+01 g/mol
          :  Hamiltonian                  GFN2-xTB          :
 * total energy  :  -154.5718479 Eh     change       -0.4360857E-08 Eh
 * total energy  :  -154.5718777 Eh     change       -0.2985872E-04 Eh
 * total energy  :  -154.5718925 Eh     change       -0.1474721E-04 Eh
 * total energy  :  -154.5718987 Eh     change       -0.6224603E-05 Eh
 * total energy  :  -154.5719039 Eh     change       -0.5178883E-05 Eh
 * total energy  :  -154.5719067 Eh     change       -0.2833234E-05 Eh
 * total energy  :  -154.5719105 Eh     change       -0.3786893E-05 Eh
 * total energy  :  -154.5719143 Eh     change       -0.3785718E-05 Eh
 * total energy  :  -154.5719159 Eh     change       -0.1641925E-05 Eh
 * total energy  :  -154.5719169 Eh     change       -0.9278724E-06 Eh
 * total energy  :  -154.5719212 Eh     change       -0.9755321E-06 Eh
 * total energy  :  -154.5719218 Eh     change       -0.5864837E-06 Eh
 * total energy  :  -154.5719222 Eh     change       -0.3749823E-06 Eh
 * total energy  :  -154.5719222 Eh     change        0.3062183E-08 Eh
 * total energy  :  -154.5719225 Eh     change       -0.3629522E-06 Eh
 * total energy  :  -154.5719229 Eh     change       -0.4057350E-06 Eh
 * total energy  :  -154.5719233 Eh     change       -0.3184059E-06 Eh
 * total energy  :  -154.5719236 Eh     change       -0.3261880E-06 Eh
 * total energy  :  -154.5719236 Eh     change       -0.3615526E-08 Eh
   *** GEOMETRY OPTIMIZATION CONVERGED AFTER 22 ITERATIONS ***

 final structure:
================
114
 xtb: 6.7.1 (edcfbbe)
C           10.19946244662424        3.60317430594733        0.21957894407102
C            8.76544541383172        4.14158812638375        0.24467380835801
C            8.58769738726211        5.07509421868729       -0.96232430572461
C            8.57791939014637        4.93481551996989        1.54667064639632
C            7.72244813278984        3.03397587809812        0.17536547991457
C            6.36435126228688        3.38142849106818        0.18573536224701
C            5.34961442901732        2.44872411867552        0.11414091044201
C            5.69970722772979        1.11029584929204        0.01915949216868
C            7.05844464917475        0.73087890991604        0.03514973183579
C            8.05913240969640        1.69191750863506        0.10875652146770
C            7.08099314039479       -0.70503087983921       -0.02251434179714
C            8.11197730225420       -1.63595148000247       -0.04765145088235
C            7.81849390897731       -2.98764803120255       -0.12347053219730
C            8.89586418758449       -4.06396767209874       -0.13684331429643
C           10.31062160744122       -3.48278255377850       -0.04953139182442
C            8.79264959628198       -4.87101187896062       -1.43971359885234
C            8.68977980105781       -4.99404820526940        1.06837590606096
C            6.47313604451411       -3.37534277644220       -0.19459272973454
C            5.42900590263648       -2.47313303807427       -0.17156495700023
C            5.73466551175317       -1.12471027305241       -0.06516646303149
N            4.90577471616923       -0.01934535334851       -0.04147247628992
C            3.50432004881901       -0.03735104556683       -0.05768783927895
C            2.81108621810617       -0.86785437587192        0.81652568064988
C            1.41825431030907       -0.89692623672178        0.81674949516361
C            0.67677950426622       -1.73899228069265        1.69955584190523
C           -0.67620843705238       -1.73896927410308        1.69959798376597
C           -1.41770839786023       -0.89715656835795        0.81655953761084
C           -2.81051237324699       -0.86790311185413        0.81661991047557
C           -3.50407322740619       -0.03950396936356       -0.05943737631381
N           -4.90538088400137       -0.02151488873431       -0.04298736667756
C           -5.73436133211088       -1.12718056923104       -0.05415588667713
C           -5.42932824177518       -2.47654632852116       -0.15016653313427
C           -6.47354871002945       -3.37890222819676       -0.16045046195563
C           -7.81857343220999       -2.99059837478403       -0.08672060445814
C           -8.89600463036447       -4.06690248922881       -0.08469701420436
C           -8.80093605419207       -4.88378416327875       -1.38203220585603
C           -8.68240543083972       -4.98773613419131        1.12630189179438
C          -10.31009439895163       -3.48482379372815        0.00731019337236
C           -8.11170133186627       -1.63820166678047       -0.02325585822403
C           -7.08057100456560       -0.70719593363378       -0.01134405060863
C           -7.05807319491303        0.72920905586944        0.03183218575050
C           -8.05900338787995        1.69060036373838        0.09698488678116
C           -7.72269296548988        3.03339808800138        0.14851148063513
C           -8.76584254311926        4.14156972263391        0.20452647273458
C           -8.57583407777476        4.95363227134909        1.49444627730682
C           -8.59063976155529        5.05730508070513       -1.01639445114568
C          -10.19974056232172        3.60248547734338        0.19030310352106
C           -6.36468207900278        3.38120373422972        0.15424431411528
C           -5.34978035445213        2.44806472614691        0.09114781586422
C           -5.69944704959849        1.10865838876318        0.00918200048109
C           -2.81070727912395        0.77608384159383       -0.94754782748189
C           -1.41771265010722        0.79015454314068       -0.96205379811720
C           -0.67636774637412        1.62616926407954       -1.85066704399827
C            0.67662056950566        1.62749348832839       -1.84949090754418
C            1.41808308387005        0.79226357873970       -0.96024409520633
C            2.81108285635205        0.78001817636656       -0.94416282235496
C            0.70699264643002       -0.05429540448039       -0.07356546408469
C           -0.70646291355789       -0.05486957054626       -0.07406234418425
H           10.39381037922647        3.04955920682694       -0.69642325668480
H           10.39065992838595        2.95818667096486        1.07437953084491
H           10.89945189515096        4.43547614236787        0.26385388924577
H            8.70050198984885        4.51598461295466       -1.88941820875535
H            7.60589386487882        5.54068314954519       -0.96320392205914
H            9.33780220019631        5.86324124785531       -0.94062903302320
H            9.32810801937636        5.71991329443612        1.61863969478202
H            7.59616513487349        5.39831942679476        1.59184951834992
H            8.68342564223929        4.27665031361258        2.40723905280834
H            6.08512792733351        4.42199188072865        0.25556079283740
H            4.31585362038240        2.75998438142340        0.14385274451273
H            9.08610496968619        1.36657305039395        0.11632065169208
H            9.12812601196723       -1.28008792474044       -0.00984444201415
H           11.03616588379197       -4.29409856404124       -0.05497941486417
H           10.52251460351209       -2.83761917289050       -0.89930802788539
H           10.44545439538948       -2.91810614972932        0.87037680954874
H            9.57136765388869       -5.63052337212391       -1.47257667738730
H            7.82998473475403       -5.36779921687904       -1.52445469929316
H            8.91386963069080       -4.21478094986203       -2.29966070751976
H            8.74248925708808       -4.42514286976666        1.99489324163706
H            9.46309264294012       -5.75947091922622        1.08832734924690
H            7.72313449645734       -5.48861391894663        1.02756670874427
H            6.22833666370515       -4.42390126007182       -0.27325824670293
H            4.40715342033683       -2.81484792663488       -0.24553729500735
H            3.35886661966269       -1.48444120210700        1.51395416864994
H            1.22847142219938       -2.37918336183937        2.37341069787912
H           -1.22786943510247       -2.37909575921450        2.37354203481202
H           -3.35795473154906       -1.48279345782521        1.51576482446455
H           -4.40792591778149       -2.81921832551914       -0.22565255189713
H           -6.22907364527419       -4.42811781317053       -0.23091876638698
H           -7.83957368602985       -5.38293434059883       -1.46786412570255
H           -8.92520953227095       -4.23363532589810       -2.24615788192822
H           -9.58120120771446       -5.64205068713610       -1.40534915931911
H           -7.71689349168032       -5.48422357196934        1.08235157832594
H           -8.72740235780996       -4.41143506433475        2.04864512315222
H           -9.45671885531994       -5.75174734081894        1.15802920218656
H          -11.03570898049531       -4.29606194649330        0.01462287373238
H          -10.52811582422382       -2.84760391107565       -0.84688309686364
H          -10.43819552710491       -2.91157732911713        0.92287329890853
H           -9.12765540504116       -1.28183413477330        0.01498604112348
H           -9.08584390912836        1.36496951952781        0.10941823354570
H           -8.67588419371750        4.30718432093480        2.36447194113341
H           -7.59545828559871        5.42088415700740        1.52935706152696
H           -9.32820829941303        5.73733137712850        1.55831116525655
H           -9.34042003286943        5.84597506302238       -1.00455920001205
H           -8.70567957786152        4.48471120912637       -1.93494727637547
H           -7.60861063413257        5.52233626710705       -1.02630371934949
H          -10.39615882102608        3.03614342586659       -0.71742191444315
H          -10.89987093865742        4.43513508844865        0.22459843808087
H          -10.38865545803237        2.96939500719682        1.05445073490751
H           -6.08558161206236        4.42249092635797        0.21299873384756
H           -4.31620873728601        2.76019512104746        0.11703725751469
H           -3.35879780731491        1.39732736343888       -1.64055475973954
H           -1.22810118523308        2.26352743368982       -2.52717285395571
H            1.22829982858280        2.26593182737643       -2.52501400960034
H            3.35940570754632        1.40371700326507       -1.63483572077513

          :  Hamiltonian                  GFN2-xTB          :
         :: gradient norm              0.000053645601 Eh/a0 ::
         :: HOMO-LUMO gap              1.896469088981 eV    ::
         :: SCC energy              -157.319291902690 Eh    ::
         :: -> dispersion             -0.147104602134 Eh    ::
         :: -> Gsolv                  -0.058507766798 Eh    ::
         :: repulsion energy           2.747368315504 Eh    ::

    * Orbital Energies and Occupations

         #    Occupation            Energy/Eh            Energy/eV
      -------------------------------------------------------------
         1        2.0000           -0.6706106             -18.2482
       ...           ...                  ...                  ...
       133        2.0000           -0.4104757             -11.1696
       134        2.0000           -0.4067563             -11.0684
       135        2.0000           -0.4061861             -11.0529
       136        2.0000           -0.4043517             -11.0030
       137        2.0000           -0.4041901             -10.9986
       138        2.0000           -0.3965062             -10.7895
       139        2.0000           -0.3938639             -10.7176
       140        2.0000           -0.3938079             -10.7161
       141        2.0000           -0.3723853             -10.1331
       142        2.0000           -0.3704961             -10.0817
       143        2.0000           -0.3704639             -10.0808
       144        2.0000           -0.3565279              -9.7016
       145        2.0000           -0.3524787              -9.5914 (HOMO)
       146                         -0.2827847              -7.6950 (LUMO)
       147                         -0.2508379              -6.8256
       148                         -0.2384229              -6.4878
       149                         -0.2365090              -6.4357
       150                         -0.2255706              -6.1381
       151                         -0.2148462              -5.8463
       152                         -0.2148082              -5.8452
       153                         -0.2075839              -5.6486
       154                         -0.2035633              -5.5392
       155                         -0.1866172              -5.0781
       156                         -0.1809329              -4.9234
       ...                                ...                  ...
       288                          0.7449396              20.2708
      -------------------------------------------------------------
                  HL-Gap            0.0696939 Eh            1.8965 eV

     #   Z          covCN         q      C6AA      α(0)
     1   6 C        3.761    -0.106    22.571     6.773
     2   6 C        3.902     0.025    20.105     6.374
     3   6 C        3.761    -0.104    22.536     6.767
     4   6 C        3.761    -0.104    22.536     6.767
     5   6 C        2.972    -0.004    28.114     8.697
     6   6 C        2.931    -0.041    29.023     8.835
     7   6 C        2.908    -0.055    29.372     8.887
     8   6 C        3.079     0.044    26.931     8.508
     9   6 C        3.067    -0.022    28.485     8.752
    10   6 C        2.918    -0.046    29.138     8.852
    11   6 C        3.067    -0.022    28.485     8.752
    12   6 C        2.918    -0.046    29.137     8.852
    13   6 C        2.972    -0.004    28.114     8.697
    14   6 C        3.902     0.025    20.105     6.374
    15   6 C        3.761    -0.106    22.570     6.772
    16   6 C        3.761    -0.104    22.536     6.767
    17   6 C        3.761    -0.104    22.536     6.767
    18   6 C        2.931    -0.041    29.023     8.835
    19   6 C        2.908    -0.055    29.370     8.886
    20   6 C        3.079     0.044    26.931     8.508
    21   7 N        2.802    -0.052    22.237     7.004
    22   6 C        2.906     0.064    26.557     8.450
    23   6 C        2.923    -0.052    29.285     8.874
    24   6 C        2.981     0.012    27.746     8.640
    25   6 C        2.913    -0.035    28.877     8.812
    26   6 C        2.913    -0.035    28.877     8.812
    27   6 C        2.981     0.012    27.746     8.640
    28   6 C        2.923    -0.052    29.287     8.875
    29   6 C        2.906     0.064    26.557     8.450
    30   7 N        2.802    -0.052    22.234     7.003
    31   6 C        3.078     0.044    26.932     8.508
    32   6 C        2.908    -0.055    29.370     8.886
    33   6 C        2.931    -0.041    29.023     8.835
    34   6 C        2.972    -0.004    28.114     8.697
    35   6 C        3.902     0.025    20.105     6.374
    36   6 C        3.761    -0.104    22.535     6.767
    37   6 C        3.761    -0.104    22.536     6.767
    38   6 C        3.761    -0.106    22.571     6.773
    39   6 C        2.918    -0.046    29.137     8.852
    40   6 C        3.067    -0.022    28.484     8.751
    41   6 C        3.067    -0.022    28.484     8.751
    42   6 C        2.918    -0.046    29.137     8.852
    43   6 C        2.972    -0.004    28.113     8.697
    44   6 C        3.902     0.025    20.105     6.374
    45   6 C        3.761    -0.104    22.536     6.767
    46   6 C        3.761    -0.104    22.536     6.767
    47   6 C        3.761    -0.106    22.571     6.773
    48   6 C        2.931    -0.041    29.023     8.835
    49   6 C        2.908    -0.055    29.372     8.887
    50   6 C        3.079     0.044    26.932     8.508
    51   6 C        2.923    -0.052    29.287     8.875
    52   6 C        2.981     0.012    27.746     8.640
    53   6 C        2.913    -0.035    28.877     8.812
    54   6 C        2.913    -0.035    28.877     8.812
    55   6 C        2.981     0.012    27.746     8.640
    56   6 C        2.923    -0.052    29.285     8.874
    57   6 C        2.997    -0.000    28.025     8.684
    58   6 C        2.997    -0.000    28.026     8.684
    59   1 H        0.925     0.035     2.515     2.480
    60   1 H        0.925     0.035     2.517     2.481
    61   1 H        0.925     0.036     2.504     2.475
    62   1 H        0.925     0.032     2.562     2.503
    63   1 H        0.925     0.035     2.513     2.479
    64   1 H        0.925     0.037     2.490     2.468
    65   1 H        0.925     0.037     2.488     2.467
    66   1 H        0.925     0.035     2.516     2.480
    67   1 H        0.925     0.032     2.565     2.504
    68   1 H        0.926     0.028     2.612     2.527
    69   1 H        0.926     0.025     2.662     2.551
    70   1 H        0.926     0.036     2.501     2.473
    71   1 H        0.926     0.036     2.501     2.473
    72   1 H        0.925     0.036     2.504     2.475
    73   1 H        0.925     0.035     2.517     2.481
    74   1 H        0.925     0.035     2.515     2.480
    75   1 H        0.925     0.037     2.488     2.467
    76   1 H        0.925     0.035     2.516     2.480
    77   1 H        0.925     0.032     2.564     2.504
    78   1 H        0.925     0.032     2.562     2.503
    79   1 H        0.925     0.037     2.490     2.467
    80   1 H        0.925     0.035     2.513     2.479
    81   1 H        0.926     0.028     2.612     2.527
    82   1 H        0.926     0.025     2.663     2.552
    83   1 H        0.926     0.042     2.421     2.433
    84   1 H        0.926     0.038     2.480     2.462
    85   1 H        0.926     0.038     2.480     2.462
    86   1 H        0.926     0.042     2.421     2.433
    87   1 H        0.926     0.025     2.661     2.551
    88   1 H        0.926     0.028     2.612     2.527
    89   1 H        0.925     0.035     2.516     2.480
    90   1 H        0.925     0.032     2.564     2.504
    91   1 H        0.925     0.037     2.488     2.467
    92   1 H        0.925     0.035     2.513     2.479
    93   1 H        0.925     0.032     2.562     2.503
    94   1 H        0.925     0.037     2.489     2.467
    95   1 H        0.925     0.036     2.504     2.475
    96   1 H        0.925     0.035     2.517     2.481
    97   1 H        0.925     0.035     2.515     2.480
    98   1 H        0.926     0.036     2.501     2.473
    99   1 H        0.926     0.036     2.500     2.473
   100   1 H        0.925     0.032     2.564     2.504
   101   1 H        0.925     0.035     2.516     2.480
   102   1 H        0.925     0.037     2.488     2.467
   103   1 H        0.925     0.037     2.489     2.467
   104   1 H        0.925     0.032     2.562     2.503
   105   1 H        0.925     0.035     2.513     2.479
   106   1 H        0.925     0.035     2.515     2.480
   107   1 H        0.925     0.036     2.504     2.475
   108   1 H        0.925     0.035     2.517     2.481
   109   1 H        0.926     0.028     2.612     2.527
   110   1 H        0.926     0.025     2.660     2.551
   111   1 H        0.926     0.042     2.419     2.432
   112   1 H        0.926     0.038     2.479     2.462
   113   1 H        0.926     0.038     2.479     2.462
   114   1 H        0.926     0.042     2.420     2.433

molecular dipole:
                 x           y           z       tot (Debye)
 q only:       -0.008       0.001       0.004
   full:       -0.008      -0.002       0.005       0.024

 projected vibrational frequencies (cm⁻¹)
eigval :       -0.00    -0.00    -0.00     0.00     0.00     0.00
eigval :        7.33     8.61    12.80    21.77    25.89    30.40
eigval :       31.94    32.92    37.17    44.59    57.72    59.25
eigval :       61.53    69.54    77.91    84.09    86.50   109.06
eigval :      119.23   127.16   149.94   155.15   159.36   162.19
eigval :      166.33   175.55   178.19   190.36   193.40   195.58
eigval :      202.27   203.10   205.19   219.31   220.02   223.20
eigval :      225.88   229.19   229.83   233.67   242.13   258.14
eigval :      259.26   259.97   277.71   287.17   304.81   310.04
eigval :      315.67   317.30   317.83   321.79   325.28   335.42
eigval :      341.02   344.98   346.60   358.80   359.75   362.04
eigval :      367.43   371.31   373.95   386.96   398.38   400.86
eigval :      412.04   412.59   423.73   441.51   441.83   442.91
eigval :      443.40   448.86   454.12   461.63   464.91   465.04
eigval :      466.83   467.46   482.51   494.59   497.40   498.87
eigval :      501.41   508.64   518.57   534.58   555.26   559.14
eigval :      581.01   584.98   585.56   587.98   594.91   608.13
eigval :      635.85   639.21   640.33   644.54   644.83   649.85
eigval :      679.17   688.35   688.80   689.05   705.90   707.57
eigval :      710.49   715.34   719.07   755.62   755.93   764.61
eigval :      806.41   812.92   819.04   819.64   821.82   822.10
eigval :      822.56   832.95   836.08   837.86   854.05   861.17
eigval :      870.14   870.92   872.69   873.37   877.18   877.74
eigval :      886.25   892.65   914.08   914.74   915.38   916.30
eigval :      923.45   924.51   924.69   926.75   931.86   931.96
eigval :      959.10   959.18   959.22   959.40   960.99   961.15
eigval :      961.63   961.76   961.86   962.10   962.77   962.85
eigval :      989.02  1021.22  1022.20  1030.76  1031.16  1032.89
eigval :     1034.50  1034.93  1034.98  1035.13  1036.23  1038.09
eigval :     1041.04  1043.09  1113.71  1117.32  1124.44  1128.15
eigval :     1128.51  1134.96  1139.98  1155.95  1174.02  1175.10
eigval :     1178.67  1185.21  1186.93  1203.35  1204.99  1225.52
eigval :     1225.57  1225.62  1225.73  1226.61  1227.84  1230.19
eigval :     1230.20  1231.09  1233.94  1236.55  1236.64  1249.55
eigval :     1252.57  1264.52  1276.61  1282.99  1283.20  1302.01
eigval :     1308.27  1308.70  1308.80  1323.80  1325.65  1336.30
eigval :     1345.47  1345.73  1355.93  1356.91  1359.77  1386.35
eigval :     1388.29  1395.18  1399.99  1400.92  1401.58  1401.61
eigval :     1402.06  1402.12  1402.49  1402.64  1411.84  1413.07
eigval :     1426.39  1426.48  1426.51  1426.73  1429.51  1429.75
eigval :     1445.48  1451.80  1452.53  1471.36  1474.51  1481.93
eigval :     1483.03  1484.00  1484.03  1488.89  1489.09  1489.55
eigval :     1489.81  1492.47  1492.54  1492.77  1492.91  1499.61
eigval :     1499.69  1500.02  1500.05  1502.27  1502.30  1502.79
eigval :     1503.28  1511.38  1511.43  1511.87  1512.84  1518.41
eigval :     1518.60  1519.27  1519.64  1550.24  1556.45  1567.64
eigval :     1568.34  1579.63  1580.80  1581.91  1598.73  1603.35
eigval :     1603.72  1604.65  1616.04  1616.24  3017.09  3017.40
eigval :     3017.49  3018.17  3018.18  3018.27  3018.31  3018.55
eigval :     3022.11  3022.21  3022.43  3022.57  3023.10  3023.24
eigval :     3023.31  3023.75  3025.74  3025.91  3026.08  3026.60
eigval :     3029.70  3029.79  3029.97  3030.24  3034.86  3034.88
eigval :     3035.15  3035.47  3043.04  3043.10  3043.46  3043.98
eigval :     3046.34  3046.58  3046.65  3047.19  3066.14  3066.37
eigval :     3074.07  3074.37  3074.55  3074.72  3078.16  3079.53
eigval :     3085.32  3085.67  3086.59  3087.29  3087.35  3087.67
eigval :     3088.34  3089.13  3113.03  3113.04  3116.06  3116.24

   temp. (K)  partition function   enthalpy   heat capacity  entropy
                                   cal/mol     cal/K/mol   cal/K/mol   J/K/mol
 298.15  VIB  0.804E+24            31870.300    200.404    195.537
         ROT  0.242E+09              888.752      2.981     41.342
         INT  0.194E+33            32759.053    203.385    236.879
         TR   0.202E+29             1481.254      4.968     45.731
         TOT                       34240.3067   208.3533   282.6099  1182.4399

       T/K    H(0)-H(T)+PV         H(T)/Eh          T*S/Eh         G(T)/Eh
   ------------------------------------------------------------------------
    298.15    0.545654E-01    0.100290E+01    0.134277E+00    0.868622E+00
   ------------------------------------------------------------------------

         :::::::::::::::::::::::::::::::::::::::::::::::::::::
         ::                  THERMODYNAMIC                  ::
         :::::::::::::::::::::::::::::::::::::::::::::::::::::
         :: total free energy        -153.703301131546 Eh   ::
         ::.................................................::
         :: total energy             -154.571923585014 Eh   ::
         :: zero point energy           0.948334145859 Eh   ::
         :: G(RRHO) w/o ZPVE           -0.079711692391 Eh   ::
         :: G(RRHO) contrib.            0.868622453468 Eh   ::
         :::::::::::::::::::::::::::::::::::::::::::::::::::::

           -------------------------------------------------
          | TOTAL ENERGY             -154.571923585014 Eh   |
          | TOTAL ENTHALPY           -153.569024037238 Eh   |
          | TOTAL FREE ENERGY        -153.703301131546 Eh   |
          | GRADIENT NORM               0.000054650150 Eh/α |
          | HOMO-LUMO GAP               1.896468807416 eV   |
           -------------------------------------------------

 * finished run on 2025/09/07 at 21:39:15.769
