   * xtb version 6.7.1 (edcfbbe) compiled by 'albert@albert-system' on 2024-07-22

   ID    Z sym.   atoms
    1    6 C      1-20, 22-29, 31-58
    2    7 N      21, 30
    3    1 H      59-114

          program call               : xtb data2507/toluene/PLQYs/PLQYs.xyz --gfn 2 --gbsa toluene --ohess vtight --parallel 40 --molden --ceasefiles --namespace data2507/toluene/PLQYs/PLQYs_toluene_S0_preOpt
      * Solvation model:               GBSA
        Solvent                        toluene
        Solvent mass                       9.2140E+01 g/mol
          :  Hamiltonian                  GFN2-xTB          :
 * total energy  :  -154.5456885 Eh     change       -0.1237154E-07 Eh
 * total energy  :  -154.5636500 Eh     change       -0.1796150E-01 Eh
 * total energy  :  -154.5686002 Eh     change       -0.4950122E-02 Eh
 * total energy  :  -154.5697500 Eh     change       -0.1149819E-02 Eh
 * total energy  :  -154.5704717 Eh     change       -0.7217249E-03 Eh
 * total energy  :  -154.5707426 Eh     change       -0.2709250E-03 Eh
 * total energy  :  -154.5709210 Eh     change       -0.1783971E-03 Eh
 * total energy  :  -154.5710364 Eh     change       -0.1154080E-03 Eh
 * total energy  :  -154.5711228 Eh     change       -0.8631359E-04 Eh
 * total energy  :  -154.5711670 Eh     change       -0.4429976E-04 Eh
 * total energy  :  -154.5713736 Eh     change       -0.6230198E-06 Eh
 * total energy  :  -154.5713741 Eh     change       -0.4576773E-06 Eh
 * total energy  :  -154.5713746 Eh     change       -0.5057214E-06 Eh
 * total energy  :  -154.5713753 Eh     change       -0.6906029E-06 Eh
 * total energy  :  -154.5713761 Eh     change       -0.8061220E-06 Eh
 * total energy  :  -154.5713768 Eh     change       -0.7663041E-06 Eh
 * total energy  :  -154.5713774 Eh     change       -0.5328163E-06 Eh
 * total energy  :  -154.5713777 Eh     change       -0.2738802E-06 Eh
 * total energy  :  -154.5713777 Eh     change       -0.3844829E-07 Eh
   *** GEOMETRY OPTIMIZATION CONVERGED AFTER 33 ITERATIONS ***

 final structure:
================
114
 xtb: 6.7.1 (edcfbbe)
C            8.35427988953944        5.52047343988364       -0.28823463964893
C            8.86820341812588        4.07949631475348       -0.20955300375766
C            9.72696560874809        3.95027974701580        1.05768636278101
C            9.73292779416879        3.81485366703268       -1.45131532339038
C            7.74615436207796        3.05036771618261       -0.15477728045831
C            6.39529574547842        3.40924266445910       -0.18417103918561
C            5.37349799043550        2.47864711769535       -0.12464080561219
C            5.70968930130029        1.13890942758812       -0.02413036935988
C            7.06660021463868        0.74715711449153       -0.01959934448464
C            8.06983394377935        1.70174127269122       -0.08021544848353
C            7.07601793893700       -0.68917356217780        0.03976191634707
C            8.09830081787065       -1.62868970678263        0.08137429020167
C            7.79215966209089       -2.97796240744472        0.15337272616231
C            8.85978032089823       -4.06361579458330        0.18189572923346
C            8.66619189853216       -4.98701235604539       -1.03052802762216
C            8.72713288208919       -4.87484333484653        1.47944978858474
C           10.28085910017973       -3.49453865412755        0.12191270897816
C            6.44272675738231       -3.35381702680332        0.20411329512565
C            5.40688808309274       -2.44248206836706        0.16491134454593
C            5.72573272022190       -1.09688419904256        0.06232225676973
N            4.90618872367269        0.01530667985538        0.02515991920905
C            3.50452808696589        0.00521069657912        0.02603867675071
C            2.80564237597052        0.82394141064879        0.90676120188331
C            1.41254332848623        0.83615595897387        0.91383519822686
C            0.66525961778830        1.66968836454388        1.79979645293064
C           -0.68771583060316        1.66260121766780        1.79760476123155
C           -1.42335939612118        0.82204082534102        0.90853628783460
C           -2.81618431718627        0.79576321301937        0.89650438888730
C           -3.50404644432466       -0.02697972225881        0.01065696736337
N           -4.90554707543543       -0.02912342218907        0.00398553179742
C           -5.71697175720382       -1.14794256561354        0.03129952363021
C           -5.39120243159582       -2.49110282156017        0.12001564961207
C           -6.41980869360051       -3.41542539655007        0.15463605397201
C           -7.76776519898945       -3.04714604769325        0.11226080769684
C           -8.89725791882361       -4.06922569419291        0.13755557392987
C           -8.39392749244822       -5.51494414201011        0.19493016228557
C           -9.77204860204178       -3.82043618333579        1.37549161981462
C           -9.74275822803497       -3.91144049638254       -1.13540927588324
C           -8.08142082256142       -1.69542840832908        0.05276853615625
C           -7.07115326786276       -0.74710894861848        0.01638886225382
C           -7.07065033049991        0.68983901241538       -0.02602931478127
C           -8.08660855632509        1.63619231074767       -0.06806484110158
C           -7.77133423223077        2.98416012755894       -0.12246278718073
C           -8.83159457881989        4.07698008257222       -0.15018305961795
C           -8.64280338060577        4.98836290437603        1.07203362348299
C           -8.68190351639132        4.89864438437718       -1.43928353160492
C          -10.25678468710613        3.51671973775815       -0.10745589004347
C           -6.41913034204929        3.35176256269227       -0.15620210520954
C           -5.38950287919304        2.43344145665290       -0.11629931123641
C           -5.71763229744390        1.08891626956168       -0.03008299224130
C           -2.80479209364189       -0.84630403008345       -0.86934418395342
C           -1.41177034199587       -0.86333390509225       -0.87181196538946
C           -0.66456344663816       -1.69860742756890       -1.75620418558206
C            0.68840455957785       -1.69334743815580       -1.75236780463917
C            1.42409187587586       -0.85156672890922       -0.86449948279967
C            2.81688006941619       -0.82278106200141       -0.85494389929417
C            0.70713916920912       -0.01132698035067        0.02347082862196
C           -0.70629334054104       -0.01777965170681        0.02029947313090
H            9.20052556978033        6.20445240234216       -0.31752224927291
H            7.75178478144975        5.77030555351072        0.58231313368210
H            7.76468902862340        5.67844736835305       -1.18867127739799
H            9.11723630479892        4.11838002091799        1.94352946996294
H           10.17330302665829        2.96263798502303        1.13513764508070
H           10.52852997253223        4.68625017956809        1.04520903239871
H           10.52923092205792        4.55353268180913       -1.51893846993952
H           10.18689269681510        2.82830811226249       -1.41547353217424
H            9.12580165063282        3.87742958047364       -2.35257745442110
H            6.11632352025955        4.44737759159656       -0.25945384951365
H            4.34277281882350        2.79832521776779       -0.16839526800921
H            9.09907937195594        1.37701494158094       -0.07236630697945
H            9.11804997775242       -1.28182199161579        0.05901740495248
H            9.43340475006942       -5.75871426635220       -1.04097010880916
H            7.69487731342428       -5.47355555135128       -1.00774875543143
H            8.73886515990347       -4.41476179662100       -1.95362581202922
H            9.49910976916579       -5.64067906606341        1.52293391371971
H            8.83828787857042       -4.22311475428471        2.34419504426872
H            7.75935304615659       -5.36444653370303        1.54510950317308
H           10.43787411609341       -2.92975587225645       -0.79441483988798
H           10.99909286217865       -4.31214374284012        0.13952054458083
H           10.48235397728747       -2.85251835366874        0.97663251543167
H            6.18755673371012       -4.40016672899609        0.27911898072207
H            4.38114819117982       -2.77531214229389        0.22379772661107
H            3.34948057234090        1.44706120353539        1.60145399111671
H            1.21245517149392        2.31062865824262        2.47658827482561
H           -1.24373306369862        2.29773321144257        2.47269517257107
H           -3.36826129036230        1.41129245227560        1.59143733058008
H           -4.36340970863747       -2.81861167793817        0.17314260400519
H           -6.14867540176554       -4.45630020279778        0.22004187163900
H           -7.81604700677691       -5.69405457597608        1.09896810115296
H           -7.78285979525597       -5.75230490597362       -0.67315108255316
H           -9.24491990792555       -6.19361558920586        0.20150912765121
H           -9.17445928170135       -3.90527037024459        2.28130818265706
H          -10.21692789929242       -2.82932759508557        1.35371947221105
H          -10.57537049269678       -4.55316105878029        1.42124686461240
H          -10.54806405477236       -4.64334315412019       -1.14496739694164
H           -9.12516345755653       -4.06569519825467       -2.01833869706017
H          -10.18357390901233       -2.92031758287740       -1.19838494474745
H           -9.10827846704413       -1.36353158087791        0.03731555922439
H           -9.10867527522770        1.29556389405614       -0.05983051212422
H           -8.72679216527555        4.40848203999221        1.98939790856330
H           -7.66843019532458        5.46916486911628        1.06182301877226
H           -9.40533750571566        5.76469810830123        1.08279624941090
H           -7.71045463447930        5.38254446217796       -1.49197079910997
H           -9.44856009882535        5.66976155616230       -1.48317868516341
H           -8.78925660811535        4.25498010656226       -2.31049129371300
H          -10.45510118333849        2.88438764944663       -0.97007662370945
H          -10.96953037255723        4.33914612006460       -0.12327351435352
H          -10.42530873009926        2.94408330556554        0.80195743002407
H           -6.15655660883633        4.39713318188708       -0.21828930887361
H           -4.36134617867811        2.76068063572399       -0.16257111717645
H           -3.34811959856627       -1.46539159277164       -1.56795486919343
H           -1.21180918177449       -2.33935150631716       -2.43314161231046
H            1.24442168828613       -2.32984755117235       -2.42616210318339
H            3.36913644507756       -1.43921066162545       -1.54899119639270

          :  Hamiltonian                  GFN2-xTB          :
         :: gradient norm              0.000135639400 Eh/a0 ::
         :: HOMO-LUMO gap              1.889536405480 eV    ::
         :: SCC energy              -157.318739195229 Eh    ::
         :: -> dispersion             -0.147114430027 Eh    ::
         :: -> Gsolv                  -0.058544035516 Eh    ::
         :: repulsion energy           2.747361502628 Eh    ::

    * Orbital Energies and Occupations

         #    Occupation            Energy/Eh            Energy/eV
      -------------------------------------------------------------
         1        2.0000           -0.6706428             -18.2491
       ...           ...                  ...                  ...
       133        2.0000           -0.4103164             -11.1653
       134        2.0000           -0.4063897             -11.0584
       135        2.0000           -0.4059422             -11.0462
       136        2.0000           -0.4046684             -11.0116
       137        2.0000           -0.4044555             -11.0058
       138        2.0000           -0.3964305             -10.7874
       139        2.0000           -0.3932251             -10.7002
       140        2.0000           -0.3931328             -10.6977
       141        2.0000           -0.3723038             -10.1309
       142        2.0000           -0.3712884             -10.1033
       143        2.0000           -0.3712456             -10.1021
       144        2.0000           -0.3561651              -9.6917
       145        2.0000           -0.3521444              -9.5823 (HOMO)
       146                         -0.2827053              -7.6928 (LUMO)
       147                         -0.2506796              -6.8213
       148                         -0.2385868              -6.4923
       149                         -0.2368258              -6.4444
       150                         -0.2254888              -6.1359
       151                         -0.2154318              -5.8622
       152                         -0.2153844              -5.8609
       153                         -0.2074969              -5.6463
       154                         -0.2037176              -5.5434
       155                         -0.1868496              -5.0844
       156                         -0.1804441              -4.9101
       ...                                ...                  ...
       288                          0.7472345              20.3333
      -------------------------------------------------------------
                  HL-Gap            0.0694392 Eh            1.8895 eV

     #   Z          covCN         q      C6AA      α(0)
     1   6 C        3.761    -0.106    22.572     6.773
     2   6 C        3.902     0.025    20.105     6.374
     3   6 C        3.761    -0.104    22.534     6.767
     4   6 C        3.761    -0.104    22.533     6.767
     5   6 C        2.971    -0.004    28.114     8.697
     6   6 C        2.928    -0.046    29.133     8.852
     7   6 C        2.909    -0.056    29.387     8.889
     8   6 C        3.076     0.044    26.930     8.508
     9   6 C        3.066    -0.021    28.472     8.750
    10   6 C        2.920    -0.042    29.031     8.836
    11   6 C        3.065    -0.022    28.484     8.752
    12   6 C        2.918    -0.046    29.131     8.851
    13   6 C        2.972    -0.004    28.115     8.697
    14   6 C        3.902     0.025    20.105     6.374
    15   6 C        3.761    -0.104    22.536     6.767
    16   6 C        3.761    -0.104    22.537     6.767
    17   6 C        3.761    -0.106    22.567     6.772
    18   6 C        2.931    -0.041    29.020     8.835
    19   6 C        2.908    -0.055    29.371     8.887
    20   6 C        3.078     0.044    26.923     8.507
    21   7 N        2.802    -0.052    22.244     7.005
    22   6 C        2.906     0.064    26.558     8.450
    23   6 C        2.923    -0.052    29.285     8.874
    24   6 C        2.981     0.012    27.746     8.640
    25   6 C        2.913    -0.035    28.877     8.812
    26   6 C        2.913    -0.035    28.877     8.812
    27   6 C        2.981     0.012    27.746     8.640
    28   6 C        2.923    -0.052    29.288     8.875
    29   6 C        2.906     0.064    26.558     8.450
    30   7 N        2.801    -0.052    22.241     7.004
    31   6 C        3.076     0.044    26.931     8.508
    32   6 C        2.909    -0.056    29.387     8.889
    33   6 C        2.928    -0.046    29.133     8.852
    34   6 C        2.972    -0.004    28.114     8.697
    35   6 C        3.902     0.025    20.105     6.374
    36   6 C        3.761    -0.106    22.572     6.773
    37   6 C        3.761    -0.104    22.533     6.767
    38   6 C        3.761    -0.104    22.534     6.767
    39   6 C        2.920    -0.041    29.031     8.836
    40   6 C        3.066    -0.021    28.470     8.749
    41   6 C        3.065    -0.022    28.483     8.751
    42   6 C        2.918    -0.046    29.130     8.851
    43   6 C        2.972    -0.004    28.114     8.697
    44   6 C        3.902     0.025    20.105     6.374
    45   6 C        3.761    -0.104    22.537     6.767
    46   6 C        3.761    -0.104    22.537     6.767
    47   6 C        3.761    -0.106    22.567     6.772
    48   6 C        2.931    -0.041    29.020     8.835
    49   6 C        2.908    -0.055    29.372     8.887
    50   6 C        3.078     0.044    26.924     8.507
    51   6 C        2.923    -0.052    29.288     8.875
    52   6 C        2.981     0.012    27.746     8.640
    53   6 C        2.913    -0.035    28.877     8.812
    54   6 C        2.913    -0.035    28.877     8.812
    55   6 C        2.981     0.012    27.746     8.640
    56   6 C        2.923    -0.052    29.285     8.875
    57   6 C        2.997    -0.000    28.025     8.684
    58   6 C        2.997    -0.000    28.026     8.684
    59   1 H        0.925     0.036     2.501     2.473
    60   1 H        0.925     0.035     2.519     2.482
    61   1 H        0.925     0.035     2.522     2.483
    62   1 H        0.925     0.031     2.566     2.505
    63   1 H        0.925     0.036     2.509     2.477
    64   1 H        0.925     0.037     2.491     2.468
    65   1 H        0.925     0.037     2.490     2.468
    66   1 H        0.925     0.036     2.509     2.477
    67   1 H        0.925     0.031     2.568     2.506
    68   1 H        0.926     0.036     2.509     2.477
    69   1 H        0.926     0.025     2.661     2.551
    70   1 H        0.926     0.029     2.604     2.523
    71   1 H        0.926     0.035     2.513     2.479
    72   1 H        0.925     0.037     2.488     2.467
    73   1 H        0.925     0.035     2.512     2.478
    74   1 H        0.925     0.032     2.562     2.503
    75   1 H        0.925     0.037     2.488     2.467
    76   1 H        0.925     0.032     2.564     2.504
    77   1 H        0.925     0.035     2.514     2.480
    78   1 H        0.925     0.035     2.518     2.481
    79   1 H        0.925     0.036     2.504     2.474
    80   1 H        0.925     0.035     2.520     2.483
    81   1 H        0.926     0.028     2.609     2.526
    82   1 H        0.926     0.025     2.659     2.550
    83   1 H        0.926     0.042     2.421     2.433
    84   1 H        0.926     0.038     2.480     2.462
    85   1 H        0.926     0.038     2.480     2.463
    86   1 H        0.926     0.042     2.420     2.433
    87   1 H        0.926     0.025     2.659     2.550
    88   1 H        0.926     0.036     2.509     2.477
    89   1 H        0.925     0.035     2.522     2.483
    90   1 H        0.925     0.035     2.519     2.482
    91   1 H        0.925     0.036     2.501     2.473
    92   1 H        0.925     0.031     2.568     2.506
    93   1 H        0.925     0.036     2.509     2.477
    94   1 H        0.925     0.037     2.490     2.467
    95   1 H        0.925     0.037     2.491     2.468
    96   1 H        0.925     0.031     2.566     2.505
    97   1 H        0.925     0.036     2.508     2.477
    98   1 H        0.926     0.029     2.603     2.523
    99   1 H        0.926     0.035     2.512     2.479
   100   1 H        0.925     0.032     2.562     2.503
   101   1 H        0.925     0.035     2.512     2.478
   102   1 H        0.925     0.037     2.488     2.467
   103   1 H        0.925     0.035     2.514     2.479
   104   1 H        0.925     0.037     2.488     2.466
   105   1 H        0.925     0.032     2.564     2.504
   106   1 H        0.925     0.035     2.520     2.483
   107   1 H        0.925     0.036     2.503     2.474
   108   1 H        0.925     0.035     2.518     2.481
   109   1 H        0.926     0.028     2.608     2.526
   110   1 H        0.926     0.025     2.657     2.549
   111   1 H        0.926     0.042     2.420     2.433
   112   1 H        0.926     0.038     2.480     2.462
   113   1 H        0.926     0.038     2.480     2.463
   114   1 H        0.926     0.042     2.422     2.433

molecular dipole:
                 x           y           z       tot (Debye)
 q only:       -0.010       0.000      -0.001
   full:       -0.010      -0.000      -0.001       0.025

 projected vibrational frequencies (cm⁻¹)
eigval :       -0.00    -0.00    -0.00    -0.00     0.00     0.00
eigval :        7.61     9.24    14.22    22.76    25.64    29.15
eigval :       30.61    32.88    32.94    44.36    57.11    59.96
eigval :       64.91    71.76    77.87    80.58    81.70   108.49
eigval :      122.17   124.47   150.52   153.51   158.81   161.14
eigval :      165.79   174.30   177.58   186.00   188.04   192.27
eigval :      193.85   196.14   202.67   217.43   219.07   221.17
eigval :      224.48   225.36   240.04   241.62   242.69   261.42
eigval :      266.27   266.91   290.68   296.01   303.13   304.18
eigval :      315.92   317.31   318.44   318.95   324.72   325.08
eigval :      336.96   344.24   347.27   356.52   357.20   364.69
eigval :      367.79   371.65   373.77   386.01   399.36   401.98
eigval :      412.29   413.01   423.31   442.28   442.80   444.18
eigval :      444.78   448.84   456.08   462.08   465.05   465.93
eigval :      466.98   468.12   482.50   494.49   497.19   498.62
eigval :      501.38   508.49   518.34   534.01   554.22   558.47
eigval :      581.44   584.71   585.31   587.07   594.34   607.62
eigval :      634.81   638.85   639.38   643.47   644.49   649.74
eigval :      678.98   688.09   688.77   689.30   706.07   708.39
eigval :      710.52   715.12   718.81   755.57   755.65   764.43
eigval :      805.95   812.83   816.80   818.32   819.44   821.54
eigval :      822.58   832.67   836.59   838.17   854.18   861.34
eigval :      872.13   872.93   873.19   873.57   881.07   881.88
eigval :      886.38   892.15   908.97   909.52   915.48   916.34
eigval :      923.22   924.19   924.51   926.56   930.41   930.52
eigval :      958.86   958.93   959.03   959.07   961.56   961.62
eigval :      961.66   961.76   961.77   962.29   962.29   962.59
eigval :      988.96  1021.22  1022.16  1030.73  1031.78  1034.10
eigval :     1034.85  1034.87  1034.93  1035.08  1036.83  1038.41
eigval :     1039.30  1041.87  1114.07  1117.49  1124.20  1128.19
eigval :     1128.58  1134.63  1139.87  1155.51  1174.83  1176.64
eigval :     1178.90  1186.87  1188.62  1203.29  1205.06  1223.51
eigval :     1224.51  1225.48  1225.49  1225.62  1225.72  1230.10
eigval :     1230.25  1232.54  1233.96  1236.29  1238.80  1251.05
eigval :     1252.80  1264.89  1277.57  1283.60  1283.73  1299.20
eigval :     1303.35  1307.54  1309.10  1323.63  1325.42  1336.07
eigval :     1344.80  1346.14  1354.95  1361.16  1362.88  1385.82
eigval :     1388.23  1395.15  1400.20  1401.18  1401.83  1401.97
eigval :     1402.43  1402.66  1402.95  1403.24  1411.98  1413.29
eigval :     1426.61  1426.82  1426.99  1427.10  1428.81  1429.30
eigval :     1445.47  1451.39  1452.18  1471.03  1472.60  1474.72
eigval :     1476.88  1482.76  1483.27  1489.00  1489.03  1489.10
eigval :     1490.05  1492.34  1492.44  1492.61  1492.66  1499.47
eigval :     1499.71  1499.83  1500.83  1502.38  1502.41  1503.08
eigval :     1503.55  1511.63  1511.82  1512.04  1512.16  1518.30
eigval :     1518.67  1518.78  1519.01  1550.24  1556.32  1568.68
eigval :     1569.35  1580.12  1582.91  1583.40  1598.69  1603.71
eigval :     1604.06  1604.62  1617.57  1617.77  3016.56  3016.60
eigval :     3017.43  3017.50  3018.14  3018.30  3018.45  3018.47
eigval :     3022.01  3022.07  3022.18  3022.46  3023.09  3023.18
eigval :     3023.49  3023.62  3025.80  3025.83  3025.93  3026.25
eigval :     3029.23  3029.35  3029.50  3029.63  3034.49  3034.52
eigval :     3034.67  3034.73  3042.07  3042.24  3043.62  3043.67
eigval :     3045.18  3045.40  3047.04  3047.09  3066.08  3066.31
eigval :     3074.15  3074.18  3076.29  3076.88  3078.15  3079.48
eigval :     3084.56  3084.70  3085.39  3085.73  3086.69  3087.54
eigval :     3087.87  3088.90  3113.29  3113.48  3114.21  3115.35

   temp. (K)  partition function   enthalpy   heat capacity  entropy
                                   cal/mol     cal/K/mol   cal/K/mol   J/K/mol
 298.15  VIB  0.823E+24            31893.336    200.344    195.595
         ROT  0.241E+09              888.752      2.981     41.338
         INT  0.199E+33            32782.088    203.324    236.933
         TR   0.202E+29             1481.254      4.968     45.731
         TOT                       34263.3424   208.2926   282.6646  1182.6688

       T/K    H(0)-H(T)+PV         H(T)/Eh          T*S/Eh         G(T)/Eh
   ------------------------------------------------------------------------
    298.15    0.546021E-01    0.100283E+01    0.134303E+00    0.868524E+00
   ------------------------------------------------------------------------

         :::::::::::::::::::::::::::::::::::::::::::::::::::::
         ::                  THERMODYNAMIC                  ::
         :::::::::::::::::::::::::::::::::::::::::::::::::::::
         :: total free energy        -153.702853263713 Eh   ::
         ::.................................................::
         :: total energy             -154.571377699820 Eh   ::
         :: zero point energy           0.948225408353 Eh   ::
         :: G(RRHO) w/o ZPVE           -0.079700972246 Eh   ::
         :: G(RRHO) contrib.            0.868524436107 Eh   ::
         :::::::::::::::::::::::::::::::::::::::::::::::::::::

           -------------------------------------------------
          | TOTAL ENERGY             -154.571377699820 Eh   |
          | TOTAL ENTHALPY           -153.568550179834 Eh   |
          | TOTAL FREE ENERGY        -153.702853263713 Eh   |
          | GRADIENT NORM               0.000135634081 Eh/α |
          | HOMO-LUMO GAP               1.889536118359 eV   |
           -------------------------------------------------

 * finished run on 2025/09/07 at 21:23:21.866
