   * xtb version 6.7.1 (edcfbbe) compiled by 'albert@albert-system' on 2024-07-22

   ID    Z sym.   atoms
    1    6 C      1, 2, 4-9, 11-14, 16-33, 35-52, 54-70
    2    7 N      3, 15, 34, 53
    3   14 Si     10
    4    1 H      71-114

          program call               : xtb data2507/toluene/SiCz3Py1/SiCz3Py1_toluene_S0_finalOpt.xtbopt.xyz --gfn 2 --uhf 2 --gbsa toluene --ohess vtight --parallel 40 --molden --ceasefiles --namespace data2507/toluene/SiCz3Py1/SiCz3Py1_toluene_T1_preOpt
      * Solvation model:               GBSA
        Solvent                        toluene
        Solvent mass                       9.2140E+01 g/mol
          :  Hamiltonian                  GFN2-xTB          :
 * total energy  :  -175.0705489 Eh     change       -0.8929192E-08 Eh
 * total energy  :  -175.0717980 Eh     change       -0.1249182E-02 Eh
 * total energy  :  -175.0723813 Eh     change       -0.5832163E-03 Eh
 * total energy  :  -175.0727044 Eh     change       -0.3231635E-03 Eh
 * total energy  :  -175.0733695 Eh     change       -0.6650962E-03 Eh
 * total energy  :  -175.0735445 Eh     change       -0.1749473E-03 Eh
 * total energy  :  -175.0742447 Eh     change       -0.7001968E-03 Eh
 * total energy  :  -175.0744747 Eh     change       -0.2300126E-03 Eh
 * total energy  :  -175.0748789 Eh     change       -0.4042699E-03 Eh
 * total energy  :  -175.0751267 Eh     change       -0.2477436E-03 Eh
 * total energy  :  -175.0756176 Eh     change       -0.2124481E-06 Eh
 * total energy  :  -175.0756178 Eh     change       -0.2328958E-06 Eh
 * total energy  :  -175.0756181 Eh     change       -0.2528485E-06 Eh
 * total energy  :  -175.0756183 Eh     change       -0.2214377E-06 Eh
 * total energy  :  -175.0756184 Eh     change       -0.1553110E-06 Eh
 * total energy  :  -175.0756186 Eh     change       -0.1266629E-06 Eh
 * total energy  :  -175.0756187 Eh     change       -0.1225877E-06 Eh
 * total energy  :  -175.0756188 Eh     change       -0.1158560E-06 Eh
 * total energy  :  -175.0756189 Eh     change       -0.8647677E-07 Eh
   *** GEOMETRY OPTIMIZATION CONVERGED AFTER 89 ITERATIONS ***

 final structure:
================
114
 xtb: 6.7.1 (edcfbbe)
C            1.35515605641313        0.43139346319217        9.13249741639076
C            2.08125106909975       -0.69499170146483        9.55456917730393
N            2.39202231611905       -1.64966568758692        8.68049535668570
C            2.10491304491433       -1.54639841569358        7.42256096210929
C            1.44683962428725       -0.41005637544279        6.84167170000992
C            1.11750692909419       -0.35441964532814        5.47295933943807
C            0.14801195290954        0.56889979894549        4.95987705136461
C           -0.11099455011954        0.66902974296586        3.62684825030926
C            0.53495063955608       -0.14581934231911        2.67070040150061
Si           0.17138445211309       -0.05219015882911        0.84061262636430
C            1.81105062957822       -0.06326293199504       -0.12154045870825
C            2.00821465395500       -0.86385368787910       -1.24206681950920
C            3.21147530416251       -0.86870839760243       -1.92134863463832
C            4.25586429372443       -0.05699670621709       -1.48821888731913
N            5.48001580234521       -0.05180727819718       -2.17474786977774
C            6.72409827442110       -0.23414598551212       -1.60668276615721
C            7.06128706724741       -0.50829783622697       -0.28779813080257
C            8.39945039577910       -0.67875401785979        0.01342749148133
C            9.38341967486343       -0.58810370912666       -0.96900298717985
C            9.05201635604394       -0.33626492747853       -2.28713348584206
C            7.71447530137086       -0.16161135010310       -2.61465418583731
C            7.02079105618413        0.08460750172428       -3.84980157029551
C            7.43786224113477        0.26934376455702       -5.16084732941781
C            6.48375704001959        0.51103843542843       -6.13138288661223
C            5.13104007534853        0.58336079438822       -5.80521584526860
C            4.69144344224605        0.40448503604771       -4.50706491659363
C            5.64327789428302        0.13940552644717       -3.53145958010286
C            4.07784976594324        0.74742552127312       -0.36559010055891
C            2.87120775654098        0.73281434112756        0.30554604976925
C           -0.79446437491343        1.52643239712352        0.42646202200637
C           -2.14433809217410        1.61803160966338        0.75688369546519
C           -2.87649709624221        2.75780991685756        0.48974565850870
C           -2.26612700552181        3.84235709370973       -0.13483974321106
N           -3.00518930710661        5.00138389258112       -0.41874994839080
C           -4.21366910152215        5.04370152538557       -1.08332713345554
C           -4.94547830498446        4.01053286176003       -1.65365042795148
C           -6.12754259985330        4.33351764529966       -2.29305238599225
C           -6.57409430391964        5.65086438923301       -2.37425473544072
C           -5.83849315750523        6.68627130036691       -1.82889663838116
C           -4.64768008331928        6.38685171706481       -1.18137447913914
C           -3.64342548830130        7.18706841145383       -0.53488741540644
C           -3.51153687612887        8.54850830605653       -0.29827977419715
C           -2.39830692301781        8.99661116379838        0.38763770393513
C           -1.43271361416257        8.10412416269353        0.84889176847552
C           -1.54246250247326        6.74428583146247        0.62687348262574
C           -2.64669830384981        6.29048061102063       -0.08232382034344
C           -0.91914071495088        3.76532200465077       -0.47831242283768
C           -0.19968662302394        2.62079601326440       -0.19289480563347
C           -0.88623500616215       -1.50749506506800        0.22192365578919
C           -1.02314984024814       -2.67434787642120        0.96779457087840
C           -1.80239811958971       -3.72544900093191        0.52442625086772
C           -2.46564001495647       -3.63128056548206       -0.69630539487189
N           -3.25296607188482       -4.69686953120361       -1.15934235835996
C           -2.85242585198766       -6.01411273336295       -1.25080967719218
C           -1.61832969093110       -6.58422143951043       -0.96740661039587
C           -1.47322584918476       -7.94330366299563       -1.17300927735619
C           -2.52230633195264       -8.72171348562684       -1.65776678659229
C           -3.74555037872637       -8.15573099744526       -1.96445193297564
C           -3.91591359913299       -6.79255394870092       -1.76560891866775
C           -5.01172170371902       -5.88862176094254       -1.98725006751469
C           -6.30775284915329       -6.05387971780318       -2.45614798772821
C           -7.13244466743254       -4.94687547806564       -2.52719741235757
C           -6.68306740889546       -3.69084118721625       -2.12496941872016
C           -5.39737911717768       -3.50135503547884       -1.65423094992847
C           -4.55654178244068       -4.60528549726409       -1.60237573629857
C           -2.34226808522166       -2.46981082223072       -1.45457203372748
C           -1.56718931619627       -1.42535841029013       -0.99095604076653
C            1.49730151391660       -1.05811346136239        3.16670456331321
C            1.76390939984684       -1.17799547402336        4.49592572132740
C            1.06804117868401        0.58504092787841        7.80722634434023
H            1.09313333266368        1.19109525509317        9.85406831904574
H            2.42853916351989       -0.82185481839015       10.56716226950416
H            2.30563050030083       -2.42357268847029        6.82337254390980
H           -0.38903010774919        1.20115202555690        5.65115888695595
H           -0.84083834801903        1.38912843804922        3.28236526046888
H            1.20729547553151       -1.50284764226210       -1.58376182053790
H            3.35600111355188       -1.51076187600200       -2.77809997380959
H            6.30454902781238       -0.59653517757863        0.47703273102413
H            8.68818418544478       -0.89067266717567        1.03255681007816
H           10.41868974297506       -0.72567394990890       -0.69357699188626
H            9.81474442050252       -0.28085454362275       -3.04927683263431
H            8.48684760282681        0.22830723015115       -5.41308522784805
H            6.78794953928845        0.65488391118342       -7.15770512127965
H            4.41036283336585        0.78746372345945       -6.58357235108827
H            3.64325958131771        0.47851581219444       -4.26013553312603
H            4.88282984397655        1.38821480391187       -0.03602385518321
H            2.74417579067793        1.35449245021934        1.18023699532315
H           -2.62758039400984        0.77978157327795        1.23781221055499
H           -3.91679437220750        2.82276694343420        0.77424221793385
H           -4.59974011572897        2.98898444905458       -1.60887543301986
H           -6.71694978893428        3.54746514322820       -2.74206577646320
H           -7.50469528015276        5.86276815433911       -2.87987165691491
H           -6.17809722303672        7.70828331599854       -1.90623811235168
H           -4.26661299604479        9.23988426443331       -0.64121383796938
H           -2.27587216953467       10.05251639681141        0.57919204221647
H           -0.58114687683539        8.48277151437948        1.39507382181385
H           -0.79846701727024        6.05843619879855        1.00285322341982
H           -0.44956427723703        4.59806339021032       -0.98155707171670
H            0.84354893399031        2.57059258811010       -0.46788223643301
H           -0.51803809481752       -2.75353394852820        1.91922711986657
H           -1.91612005755444       -4.61596715010007        1.12542763264869
H           -0.79517433453315       -5.98627587185849       -0.60680251944127
H           -0.52420515095992       -8.41168152828800       -0.95637032759420
H           -2.37053199923298       -9.78122492108353       -1.80255577342528
H           -4.55231105408919       -8.75786615080292       -2.35467561855772
H           -6.66268010355770       -7.02908428099487       -2.75403444885983
H           -8.14348536389426       -5.05461113837343       -2.89152676830541
H           -7.35587887891889       -2.84737347888943       -2.17814899651251
H           -5.06327725804682       -2.52778587589975       -1.32912966074808
H           -2.84254548659357       -2.40138621100284       -2.40967819468796
H           -1.47976291796550       -0.52720440018562       -1.58567244897485
H            2.02292278862340       -1.68639642276447        2.45961779581694
H            2.50233620863506       -1.89583635084288        4.82246491547359
H            0.59485322645351        1.49367112302214        7.46805002995968

          :  Hamiltonian                  GFN2-xTB          :
         :: gradient norm              0.000071401883 Eh/a0 ::
         :: HOMO-LUMO gap              0.362492910459 eV    ::
         :: SCC energy              -178.372436721510 Eh    ::
         :: -> dispersion             -0.162857902018 Eh    ::
         :: -> Gsolv                  -0.074735254749 Eh    ::
         :: repulsion energy           3.296817843748 Eh    ::

    * Orbital Energies and Occupations

         #    Occupation            Energy/Eh            Energy/eV
      -------------------------------------------------------------
         1        2.0000           -0.7509613             -20.4347
       ...           ...                  ...                  ...
       153        2.0000           -0.3947984             -10.7430
       154        2.0000           -0.3915052             -10.6534
       155        2.0000           -0.3896090             -10.6018
       156        2.0000           -0.3864516             -10.5159
       157        2.0000           -0.3826047             -10.4112
       158        2.0000           -0.3825391             -10.4094
       159        2.0000           -0.3824848             -10.4079
       160        1.9999           -0.3724505             -10.1349
       161        1.9424           -0.3660162              -9.9598
       162        1.9220           -0.3657085              -9.9514
       163        1.8670           -0.3651428              -9.9360
       164        1.2686           -0.3624099              -9.8617
       165        0.9989           -0.2644657              -7.1965 (HOMO)
       166        0.0007           -0.2511430              -6.8339 (LUMO)
       167        0.0002           -0.2501351              -6.8065
       168        0.0002           -0.2497997              -6.7974
       169        0.0000           -0.2441367              -6.6433
       170                         -0.2413411              -6.5672
       171                         -0.2394028              -6.5145
       172                         -0.2327199              -6.3326
       173                         -0.2296001              -6.2477
       174                         -0.2287484              -6.2246
       175                         -0.2278490              -6.2001
       176                         -0.2261617              -6.1542
       ...                                ...                  ...
       329                          0.7406229              20.1534
      -------------------------------------------------------------
                  HL-Gap            0.0133227 Eh            0.3625 eV

     #   Z          covCN         q      C6AA      α(0)
     1   6 C        2.905    -0.040    28.988     8.828
     2   6 C        2.892     0.019    27.586     8.611
     3   7 N        1.835    -0.190    25.944     7.548
     4   6 C        2.894     0.048    26.918     8.506
     5   6 C        2.963    -0.018    28.454     8.749
     6   6 C        2.966    -0.008    28.213     8.713
     7   6 C        2.914    -0.044    29.096     8.845
     8   6 C        2.922    -0.037    28.927     8.820
     9   6 C        2.861    -0.109    30.744     9.088
    10  14 Si       3.609     0.479    98.490    19.054
    11   6 C        2.861    -0.093    30.336     9.028
    12   6 C        2.934    -0.032    28.790     8.800
    13   6 C        2.919    -0.043    29.060     8.840
    14   6 C        2.914     0.062    26.608     8.459
    15   7 N        2.802    -0.037    21.950     6.958
    16   6 C        3.075     0.048    26.851     8.496
    17   6 C        2.909    -0.049    29.211     8.862
    18   6 C        2.923    -0.034    28.839     8.807
    19   6 C        2.920    -0.040    28.983     8.828
    20   6 C        2.912    -0.033    28.824     8.804
    21   6 C        3.066    -0.017    28.355     8.732
    22   6 C        3.066    -0.017    28.354     8.732
    23   6 C        2.912    -0.033    28.823     8.803
    24   6 C        2.920    -0.040    28.986     8.829
    25   6 C        2.923    -0.034    28.842     8.807
    26   6 C        2.909    -0.049    29.218     8.863
    27   6 C        3.075     0.048    26.852     8.496
    28   6 C        2.919    -0.043    29.059     8.840
    29   6 C        2.938    -0.030    28.753     8.794
    30   6 C        2.862    -0.094    30.367     9.033
    31   6 C        2.939    -0.031    28.774     8.798
    32   6 C        2.919    -0.043    29.066     8.841
    33   6 C        2.914     0.061    26.623     8.461
    34   7 N        2.802    -0.037    21.958     6.960
    35   6 C        3.075     0.048    26.852     8.496
    36   6 C        2.909    -0.049    29.219     8.864
    37   6 C        2.923    -0.034    28.846     8.808
    38   6 C        2.920    -0.040    28.989     8.829
    39   6 C        2.912    -0.033    28.825     8.804
    40   6 C        3.066    -0.017    28.358     8.732
    41   6 C        3.067    -0.017    28.360     8.732
    42   6 C        2.912    -0.033    28.826     8.804
    43   6 C        2.920    -0.040    28.988     8.829
    44   6 C        2.923    -0.034    28.844     8.807
    45   6 C        2.909    -0.049    29.217     8.863
    46   6 C        3.075     0.048    26.851     8.496
    47   6 C        2.919    -0.043    29.072     8.842
    48   6 C        2.934    -0.032    28.793     8.800
    49   6 C        2.860    -0.093    30.337     9.028
    50   6 C        2.935    -0.031    28.777     8.798
    51   6 C        2.919    -0.042    29.055     8.839
    52   6 C        2.914     0.061    26.623     8.461
    53   7 N        2.802    -0.036    21.943     6.957
    54   6 C        3.075     0.048    26.852     8.496
    55   6 C        2.909    -0.049    29.214     8.863
    56   6 C        2.923    -0.034    28.841     8.807
    57   6 C        2.920    -0.040    28.983     8.828
    58   6 C        2.912    -0.033    28.824     8.804
    59   6 C        3.066    -0.017    28.356     8.732
    60   6 C        3.066    -0.017    28.355     8.732
    61   6 C        2.912    -0.033    28.823     8.804
    62   6 C        2.920    -0.040    28.986     8.829
    63   6 C        2.923    -0.034    28.844     8.807
    64   6 C        2.909    -0.049    29.216     8.863
    65   6 C        3.075     0.048    26.854     8.496
    66   6 C        2.919    -0.043    29.072     8.842
    67   6 C        2.936    -0.031    28.770     8.797
    68   6 C        2.927    -0.037    28.918     8.819
    69   6 C        2.913    -0.045    29.123     8.849
    70   6 C        2.924    -0.037    28.915     8.818
    71   1 H        0.926     0.031     2.569     2.506
    72   1 H        0.926     0.029     2.601     2.522
    73   1 H        0.926     0.039     2.468     2.457
    74   1 H        0.926     0.017     2.774     2.604
    75   1 H        0.925     0.014     2.822     2.627
    76   1 H        0.926     0.033     2.538     2.491
    77   1 H        0.926     0.040     2.452     2.449
    78   1 H        0.926     0.033     2.538     2.491
    79   1 H        0.926     0.033     2.542     2.493
    80   1 H        0.926     0.032     2.561     2.503
    81   1 H        0.926     0.034     2.526     2.486
    82   1 H        0.926     0.034     2.531     2.488
    83   1 H        0.926     0.032     2.560     2.502
    84   1 H        0.926     0.034     2.532     2.488
    85   1 H        0.926     0.035     2.521     2.483
    86   1 H        0.926     0.039     2.459     2.452
    87   1 H        0.926     0.032     2.562     2.503
    88   1 H        0.926     0.029     2.601     2.522
    89   1 H        0.926     0.039     2.468     2.456
    90   1 H        0.926     0.034     2.530     2.487
    91   1 H        0.926     0.034     2.535     2.490
    92   1 H        0.926     0.032     2.563     2.503
    93   1 H        0.926     0.034     2.534     2.489
    94   1 H        0.926     0.034     2.531     2.488
    95   1 H        0.926     0.032     2.564     2.504
    96   1 H        0.926     0.033     2.541     2.493
    97   1 H        0.926     0.034     2.534     2.489
    98   1 H        0.926     0.039     2.459     2.452
    99   1 H        0.926     0.032     2.551     2.498
   100   1 H        0.926     0.032     2.552     2.498
   101   1 H        0.926     0.039     2.466     2.456
   102   1 H        0.926     0.034     2.528     2.486
   103   1 H        0.926     0.033     2.538     2.491
   104   1 H        0.926     0.032     2.562     2.503
   105   1 H        0.926     0.034     2.530     2.487
   106   1 H        0.926     0.034     2.532     2.488
   107   1 H        0.926     0.032     2.562     2.503
   108   1 H        0.926     0.034     2.535     2.490
   109   1 H        0.926     0.034     2.526     2.485
   110   1 H        0.926     0.040     2.450     2.448
   111   1 H        0.926     0.032     2.551     2.498
   112   1 H        0.925     0.010     2.891     2.659
   113   1 H        0.926     0.017     2.784     2.609
   114   1 H        0.926     0.033     2.548     2.496

molecular dipole:
                 x           y           z       tot (Debye)
 q only:       -0.554       0.317      -2.345
   full:       -0.645       0.501      -2.355       6.335

 projected vibrational frequencies (cm⁻¹)
eigval :       -0.00    -0.00    -0.00    -0.00     0.00     0.00
eigval :        4.56     5.89     8.32     9.66    10.74    11.74
eigval :       12.64    18.30    22.78    34.57    36.79    38.43
eigval :       44.46    48.05    50.42    55.03    66.99    71.48
eigval :       73.51    78.84    89.05   100.64   104.65   105.08
eigval :      107.15   125.00   127.68   132.71   138.98   141.97
eigval :      143.15   145.41   150.16   164.81   170.80   181.83
eigval :      200.77   211.23   217.49   239.52   252.23   255.63
eigval :      259.76   269.21   271.41   273.11   285.66   287.12
eigval :      299.36   321.81   331.54   338.84   348.14   359.60
eigval :      366.95   368.51   372.19   385.76   387.34   388.22
eigval :      389.13   396.10   399.15   400.90   402.60   417.37
eigval :      422.17   422.97   425.07   434.23   434.87   437.50
eigval :      448.16   479.19   480.13   481.86   505.21   510.48
eigval :      516.56   516.88   517.03   520.10   536.22   537.50
eigval :      537.61   539.06   539.44   540.40   563.50   580.35
eigval :      580.57   580.84   588.85   593.33   593.47   594.67
eigval :      605.12   612.17   612.56   613.58   618.98   634.93
eigval :      656.89   658.71   661.46   673.48   674.42   675.02
eigval :      676.17   678.74   679.77   680.96   708.69   709.05
eigval :      709.66   727.50   737.28   740.20   743.16   756.96
eigval :      757.68   758.26   766.59   767.56   767.70   767.87
eigval :      776.38   777.84   778.04   778.25   792.88   805.48
eigval :      807.44   808.92   810.38   865.23   866.57   866.87
eigval :      870.76   871.68   873.60   875.42   880.69   881.27
eigval :      882.45   896.86   896.94   897.06   900.27   900.94
eigval :      901.57   901.84   902.21   903.14   903.62   910.40
eigval :      918.66   919.29   919.66   920.01   920.53   920.78
eigval :      925.72   926.50   927.08   928.12   929.81   930.52
eigval :      931.41   933.50   934.56   937.08   960.82  1000.25
eigval :     1010.57  1010.61  1010.71  1011.39  1012.48  1014.01
eigval :     1063.35  1066.92  1067.72  1068.44  1069.23  1070.62
eigval :     1072.44  1114.70  1115.13  1116.25  1120.36  1123.31
eigval :     1134.28  1135.87  1137.97  1138.81  1139.10  1142.37
eigval :     1146.02  1146.27  1147.34  1147.89  1156.49  1172.72
eigval :     1174.04  1174.89  1177.75  1177.91  1179.82  1181.33
eigval :     1182.17  1183.76  1204.20  1205.62  1206.69  1209.07
eigval :     1226.24  1232.19  1232.92  1233.68  1239.52  1241.08
eigval :     1241.89  1248.07  1268.24  1269.65  1270.83  1273.01
eigval :     1294.12  1294.34  1294.54  1295.07  1295.31  1295.54
eigval :     1307.01  1307.66  1309.23  1312.46  1320.73  1331.37
eigval :     1350.68  1351.19  1351.50  1351.62  1352.06  1353.64
eigval :     1358.81  1359.61  1359.72  1369.23  1389.56  1390.81
eigval :     1391.29  1393.06  1418.96  1419.32  1419.67  1422.66
eigval :     1423.20  1424.33  1443.35  1465.29  1466.60  1466.70
eigval :     1467.13  1471.69  1478.40  1479.69  1480.69  1483.51
eigval :     1483.56  1483.94  1524.14  1548.09  1549.98  1551.68
eigval :     1562.52  1568.08  1568.40  1568.51  1575.67  1577.48
eigval :     1581.77  1583.76  1583.97  1587.14  1587.70  1587.71
eigval :     1587.84  1601.76  1603.12  1607.42  3045.18  3053.20
eigval :     3053.35  3067.86  3068.42  3070.00  3070.64  3071.66
eigval :     3073.51  3073.75  3073.83  3073.85  3073.90  3074.15
eigval :     3074.52  3074.91  3076.29  3076.59  3078.90  3079.39
eigval :     3079.58  3079.96  3080.34  3080.35  3082.45  3082.98
eigval :     3083.79  3084.14  3085.64  3086.40  3086.52  3087.12
eigval :     3087.56  3087.66  3087.83  3088.30  3088.49  3091.49
eigval :     3092.86  3093.18  3093.43  3093.55  3094.30  3095.10

   temp. (K)  partition function   enthalpy   heat capacity  entropy
                                   cal/mol     cal/K/mol   cal/K/mol   J/K/mol
 298.15  VIB  0.519E+30            34160.034    210.859    217.991
         ROT  0.347E+09              888.752      2.981     42.059
         INT  0.180E+39            35048.786    213.840    260.050
         TR   0.265E+29             1481.254      4.968     46.277
         TOT                       36530.0400   218.8079   306.3269  1281.6719

       T/K    H(0)-H(T)+PV         H(T)/Eh          T*S/Eh         G(T)/Eh
   ------------------------------------------------------------------------
    298.15    0.582143E-01    0.927308E+00    0.145546E+00    0.781762E+00
   ------------------------------------------------------------------------

         :::::::::::::::::::::::::::::::::::::::::::::::::::::
         ::                  THERMODYNAMIC                  ::
         :::::::::::::::::::::::::::::::::::::::::::::::::::::
         :: total free energy        -174.293856727840 Eh   ::
         ::.................................................::
         :: total energy             -175.075618883485 Eh   ::
         :: zero point energy           0.869093643581 Eh   ::
         :: G(RRHO) w/o ZPVE           -0.087331487936 Eh   ::
         :: G(RRHO) contrib.            0.781762155645 Eh   ::
         :::::::::::::::::::::::::::::::::::::::::::::::::::::

           -------------------------------------------------
          | TOTAL ENERGY             -175.075618883485 Eh   |
          | TOTAL ENTHALPY           -174.148310915738 Eh   |
          | TOTAL FREE ENERGY        -174.293856727840 Eh   |
          | GRADIENT NORM               0.000065010145 Eh/α |
          | HOMO-LUMO GAP               0.362528690632 eV   |
           -------------------------------------------------

 * finished run on 2025/08/30 at 10:47:08.798
