   * xtb version 6.7.1 (edcfbbe) compiled by 'albert@albert-system' on 2024-07-22

   ID    Z sym.   atoms
    1    6 C      1, 2, 4-9, 11-14, 16-33, 35-52, 54-70
    2    7 N      3, 15, 34, 53
    3   14 Si     10
    4    1 H      71-114

          program call               : xtb data2507/toluene/SiCz3Py1/SiCz3Py1_toluene_S0_crest.xyz --gfn 2 --gbsa toluene --ohess vtight --parallel 40 --molden --ceasefiles --namespace data2507/toluene/SiCz3Py1/SiCz3Py1_toluene_S0_finalOpt
      * Solvation model:               GBSA
        Solvent                        toluene
        Solvent mass                       9.2140E+01 g/mol
          :  Hamiltonian                  GFN2-xTB          :
 * total energy  :  -175.1786554 Eh     change       -0.3568090E-08 Eh
 * total energy  :  -175.1787221 Eh     change       -0.6674321E-04 Eh
 * total energy  :  -175.1787732 Eh     change       -0.5113003E-04 Eh
 * total energy  :  -175.1787952 Eh     change       -0.2199726E-04 Eh
 * total energy  :  -175.1788094 Eh     change       -0.1413693E-04 Eh
 * total energy  :  -175.1788240 Eh     change       -0.1467683E-04 Eh
 * total energy  :  -175.1788153 Eh     change        0.8702682E-05 Eh
 * total energy  :  -175.1788273 Eh     change       -0.1195453E-04 Eh
 * total energy  :  -175.1788339 Eh     change       -0.6619085E-05 Eh
 * total energy  :  -175.1788374 Eh     change       -0.3489117E-05 Eh
 * total energy  :  -175.1789098 Eh     change       -0.1032710E-05 Eh
 * total energy  :  -175.1789109 Eh     change       -0.1131935E-05 Eh
 * total energy  :  -175.1789122 Eh     change       -0.1269715E-05 Eh
 * total energy  :  -175.1789137 Eh     change       -0.1440231E-05 Eh
 * total energy  :  -175.1789151 Eh     change       -0.1454376E-05 Eh
 * total energy  :  -175.1789164 Eh     change       -0.1291335E-05 Eh
 * total energy  :  -175.1789174 Eh     change       -0.1019069E-05 Eh
 * total energy  :  -175.1789182 Eh     change       -0.7425118E-06 Eh
 * total energy  :  -175.1789182 Eh     change       -0.9031368E-08 Eh
   *** GEOMETRY OPTIMIZATION CONVERGED AFTER 44 ITERATIONS ***

 final structure:
================
114
 xtb: 6.7.1 (edcfbbe)
C            1.72366772791043        0.35952436804101        8.97772888072700
C            1.94087558571389       -0.92955149382439        9.44141020620695
N            1.88652886233507       -1.99620015747344        8.65945278803733
C            1.61961542388605       -1.81977075818274        7.37886680602693
C            1.39320683588013       -0.57263794323274        6.79256693555184
C            1.10638705054393       -0.44458709640338        5.35870996630627
C            0.13744042381457        0.44698068790775        4.90265638217628
C           -0.13257467737700        0.56086223553960        3.55248341687195
C            0.55345728892686       -0.20134463653259        2.61180849255121
Si           0.19137545508746       -0.07166515398438        0.75519697500870
C            1.84909437566338       -0.06033658013953       -0.16394989741034
C            2.06709634546308       -0.83078819186071       -1.30200986859821
C            3.28005072697193       -0.80942091539823       -1.96367078839204
C            4.31075625602781        0.00269784999576       -1.49995786830477
N            5.54376145288462        0.03622685303840       -2.16908662574620
C            6.78338980347632       -0.13949924325494       -1.58724690726079
C            7.10800998297692       -0.43228323447922       -0.26971309444443
C            8.44406132562106       -0.58824229041817        0.04664768662543
C            9.44021942013132       -0.46586642585064       -0.92037738212204
C            9.12226493210098       -0.19607889132969       -2.23673060555568
C            7.78572448811797       -0.03510838347179       -2.57978719052390
C            7.10678306768916        0.22468853288079       -3.81872078469478
C            7.54100011264865        0.44117890307280       -5.12047605871270
C            6.59989849158752        0.69097804817733       -6.09953653426820
C            5.24154249569817        0.74052848094467       -5.79166338656352
C            4.78507708753669        0.52890958677234       -4.50471079655311
C            5.72459257582911        0.25563657838059       -3.52011018561179
C            4.10888785566081        0.78117682592479       -0.36335031580661
C            2.89460947481858        0.73932185753568        0.29280994539814
C           -0.77833512553691        1.51295142550142        0.37432681565471
C           -2.13311008840245        1.59369679453773        0.68969999193257
C           -2.86618226461117        2.73496522416067        0.43134724709067
C           -2.25488268092901        3.83084900641690       -0.17216105238082
N           -2.99611443511809        4.98960439566911       -0.44859187468102
C           -4.20170791317277        5.03504652434311       -1.12038048036494
C           -4.92832105189780        4.00652841729065       -1.70450880270654
C           -6.10624979615594        4.33294938488281       -2.34907554858797
C           -6.55523941463180        5.65024741164993       -2.42231219871743
C           -5.82527835786730        6.68066814966069       -1.86371911919855
C           -4.63726630817691        6.37766997936165       -1.21045947526876
C           -3.63924848627977        7.17482004969483       -0.55344844136422
C           -3.51238635698985        8.53617165463172       -0.30749096473106
C           -2.40489603252807        8.98364770630299        0.38524667827840
C           -1.43896704651764        8.09052740301419        0.84539482251481
C           -1.54369438523334        6.73207473814062        0.61467071738330
C           -2.64240301763462        6.27850543226412       -0.10233112054428
C           -0.90447427369442        3.76320556879919       -0.50250008878784
C           -0.18193856126302        2.61867308043639       -0.22411585601179
C           -0.87884433301589       -1.53249972331464        0.19405053710991
C           -1.08154878170621       -2.64969818393506        0.99838315469325
C           -1.88325749289412       -3.69694440153190        0.58617102222755
C           -2.49714222453359       -3.65342777041240       -0.66219484245729
N           -3.31560851761116       -4.71068308690874       -1.08778832235214
C           -2.97680935226119       -6.04921655730732       -1.08489690356818
C           -1.78175513854347       -6.65818141032385       -0.72725115635374
C           -1.69669739893138       -8.03240610060934       -0.84467289267269
C           -2.76745184464815       -8.79037660202597       -1.31517672926900
C           -3.95072321546429       -8.18823795511150       -1.69452344182322
C           -4.06059039009194       -6.80763204079088       -1.58569067768016
C           -5.10396328533816       -5.87099408443837       -1.89774836155565
C           -6.39283306054416       -6.00648453113631       -2.39818440703598
C           -7.16211795170479       -4.87170850758402       -2.56285270378880
C           -6.66645978403302       -3.61464109157910       -2.22167843258411
C           -5.38786171965171       -3.45421635060172       -1.72270163496985
C           -4.60078871031123       -4.58847345716790       -1.57776479978919
C           -2.29808561020106       -2.54632937836122       -1.48301251175085
C           -1.50503455141035       -1.50209078836753       -1.05024431644580
C            1.52498761111128       -1.08626551240551        3.07523994648785
C            1.79773179472410       -1.21248574500024        4.42286413841075
C            1.44789162789469        0.53874165757786        7.63354440096141
H            1.77649724159592        1.20094171712851        9.65150968312290
H            2.16830088128594       -1.12461879947361       10.48146740434199
H            1.56725724999445       -2.72602182825872        6.78842903292770
H           -0.42090327575934        1.03843808360877        5.61440455398727
H           -0.88844857601646        1.25756828418658        3.22046282965043
H            1.27686191575348       -1.46863991117004       -1.66948170103042
H            3.44157773246075       -1.42953790398582       -2.83333103763892
H            6.34307142477628       -0.54508010958255        0.48381272472200
H            8.72270239968281       -0.81396172786873        1.06587362052654
H           10.47379252621514       -0.59265272633415       -0.63288824151573
H            9.89364448366095       -0.11574791703026       -2.98823032747392
H            8.59443457722886        0.41769909590870       -5.35702635011750
H            6.91696165271208        0.85984077015984       -7.11832604333781
H            4.52991534599436        0.95223258906926       -6.57663360867366
H            3.73207023364961        0.58524246661607       -4.27323741253271
H            4.90302043942761        1.42260595373982       -0.00974305579351
H            2.75148813587064        1.34256317919361        1.17780734966282
H           -2.62073179971707        0.74598186879489        1.14935862426512
H           -3.91029581325962        2.79050304829682        0.70318088523653
H           -4.58203025245337        2.98466935832403       -1.66761939059081
H           -6.69113592523481        3.54958021528798       -2.80913434348933
H           -7.48296166230896        5.86444852708924       -2.93263090484319
H           -6.16520543964160        7.70328246129857       -1.93462053078758
H           -4.26857284197661        9.22675004351185       -0.65032662042757
H           -2.28586168992756       10.03889137644214        0.58353161838731
H           -0.59071770022443        8.46863141688791        1.39752804582806
H           -0.79826324426129        6.04710674053599        0.98975968643692
H           -0.43313894432704        4.60427453279581       -0.98983845666128
H            0.86420434751820        2.57752298620087       -0.48949373723350
H           -0.61533842453174       -2.69346378281253        1.97166842971163
H           -2.05180303202628       -4.54547222645233        1.23298356935319
H           -0.94122221435320       -6.07865707197859       -0.37624030315619
H           -0.77815969988917       -8.53019974737624       -0.56915669400634
H           -2.66286942889576       -9.86295950651946       -1.39010795320519
H           -4.77476459022932       -8.77448576468166       -2.07339488297055
H           -6.78298897803779       -6.98202934059098       -2.64776296927332
H           -8.16596510485434       -4.95571025689175       -2.95304480846083
H           -7.29759763076258       -2.74660040279126       -2.34672923167621
H           -5.01900818311669       -2.47787518761308       -1.44653167839486
H           -2.75990445764437       -2.51749416712081       -2.45920949104494
H           -1.36607752607843       -0.64341834434670       -1.69145867010625
H            2.07876265826194       -1.68248880700850        2.36382407690016
H            2.56687475477645       -1.89439300369999        4.75685977231875
H            1.29467524916712        1.53032115089679        7.23187271145353

          :  Hamiltonian                  GFN2-xTB          :
         :: gradient norm              0.000068428881 Eh/a0 ::
         :: HOMO-LUMO gap              2.675739309357 eV    ::
         :: SCC energy              -178.488342458819 Eh    ::
         :: -> dispersion             -0.162826381159 Eh    ::
         :: -> Gsolv                  -0.075041869131 Eh    ::
         :: repulsion energy           3.309424286945 Eh    ::

    * Orbital Energies and Occupations

         #    Occupation            Energy/Eh            Energy/eV
      -------------------------------------------------------------
         1        2.0000           -0.7603889             -20.6912
       ...           ...                  ...                  ...
       152        2.0000           -0.4052229             -11.0267
       153        2.0000           -0.4050225             -11.0212
       154        2.0000           -0.4002015             -10.8900
       155        2.0000           -0.3939101             -10.7188
       156        2.0000           -0.3923792             -10.6772
       157        2.0000           -0.3908220             -10.6348
       158        2.0000           -0.3787402             -10.3060
       159        2.0000           -0.3784056             -10.2969
       160        2.0000           -0.3783269             -10.2948
       161        2.0000           -0.3709183             -10.0932
       162        2.0000           -0.3625498              -9.8655
       163        2.0000           -0.3620549              -9.8520
       164        2.0000           -0.3617585              -9.8439 (HOMO)
       165                         -0.2634268              -7.1682 (LUMO)
       166                         -0.2512893              -6.8379
       167                         -0.2486870              -6.7671
       168                         -0.2482550              -6.7554
       169                         -0.2470995              -6.7239
       170                         -0.2428685              -6.6088
       171                         -0.2412371              -6.5644
       172                         -0.2393645              -6.5134
       173                         -0.2303787              -6.2689
       174                         -0.2293153              -6.2400
       175                         -0.2285915              -6.2203
       ...                                ...                  ...
       329                          0.7445786              20.2610
      -------------------------------------------------------------
                  HL-Gap            0.0983316 Eh            2.6757 eV

     #   Z          covCN         q      C6AA      α(0)
     1   6 C        2.911    -0.040    28.994     8.829
     2   6 C        2.912     0.058    26.708     8.474
     3   7 N        1.835    -0.241    27.147     7.721
     4   6 C        2.917     0.056    26.737     8.479
     5   6 C        2.972     0.001    28.004     8.680
     6   6 C        2.976     0.008    27.838     8.655
     7   6 C        2.922    -0.034    28.841     8.807
     8   6 C        2.933    -0.033    28.814     8.803
     9   6 C        2.862    -0.092    30.295     9.022
    10  14 Si       3.611     0.493    98.120    19.017
    11   6 C        2.862    -0.095    30.374     9.034
    12   6 C        2.934    -0.032    28.794     8.800
    13   6 C        2.919    -0.043    29.070     8.842
    14   6 C        2.913     0.064    26.559     8.451
    15   7 N        2.802    -0.047    22.150     6.990
    16   6 C        3.076     0.047    26.858     8.497
    17   6 C        2.909    -0.052    29.297     8.875
    18   6 C        2.924    -0.035    28.880     8.813
    19   6 C        2.919    -0.043    29.067     8.841
    20   6 C        2.912    -0.035    28.874     8.811
    21   6 C        3.067    -0.019    28.413     8.740
    22   6 C        3.067    -0.019    28.413     8.740
    23   6 C        2.912    -0.035    28.874     8.811
    24   6 C        2.920    -0.043    29.066     8.841
    25   6 C        2.924    -0.035    28.879     8.813
    26   6 C        2.909    -0.052    29.298     8.876
    27   6 C        3.076     0.047    26.858     8.497
    28   6 C        2.919    -0.043    29.077     8.843
    29   6 C        2.938    -0.031    28.772     8.797
    30   6 C        2.861    -0.095    30.372     9.033
    31   6 C        2.938    -0.031    28.770     8.797
    32   6 C        2.919    -0.043    29.079     8.843
    33   6 C        2.913     0.064    26.559     8.451
    34   7 N        2.802    -0.047    22.145     6.989
    35   6 C        3.075     0.047    26.859     8.497
    36   6 C        2.910    -0.052    29.297     8.875
    37   6 C        2.924    -0.035    28.879     8.813
    38   6 C        2.919    -0.043    29.065     8.841
    39   6 C        2.912    -0.035    28.873     8.811
    40   6 C        3.067    -0.019    28.412     8.740
    41   6 C        3.067    -0.019    28.412     8.740
    42   6 C        2.912    -0.035    28.873     8.811
    43   6 C        2.919    -0.043    29.066     8.841
    44   6 C        2.924    -0.035    28.880     8.813
    45   6 C        2.909    -0.052    29.299     8.876
    46   6 C        3.075     0.047    26.859     8.497
    47   6 C        2.919    -0.043    29.073     8.842
    48   6 C        2.934    -0.032    28.789     8.800
    49   6 C        2.862    -0.095    30.377     9.034
    50   6 C        2.934    -0.031    28.784     8.799
    51   6 C        2.919    -0.043    29.071     8.842
    52   6 C        2.913     0.064    26.558     8.451
    53   7 N        2.802    -0.047    22.147     6.990
    54   6 C        3.075     0.047    26.859     8.497
    55   6 C        2.909    -0.052    29.296     8.875
    56   6 C        2.924    -0.035    28.877     8.812
    57   6 C        2.919    -0.043    29.064     8.841
    58   6 C        2.912    -0.035    28.873     8.811
    59   6 C        3.067    -0.019    28.412     8.740
    60   6 C        3.067    -0.019    28.411     8.740
    61   6 C        2.912    -0.035    28.873     8.811
    62   6 C        2.919    -0.043    29.067     8.841
    63   6 C        2.924    -0.035    28.880     8.813
    64   6 C        2.910    -0.052    29.298     8.876
    65   6 C        3.075     0.047    26.859     8.497
    66   6 C        2.919    -0.043    29.079     8.843
    67   6 C        2.938    -0.031    28.775     8.798
    68   6 C        2.937    -0.031    28.779     8.798
    69   6 C        2.921    -0.035    28.862     8.810
    70   6 C        2.933    -0.017    28.431     8.745
    71   1 H        0.926     0.041     2.430     2.438
    72   1 H        0.925     0.036     2.505     2.475
    73   1 H        0.925     0.037     2.489     2.467
    74   1 H        0.926     0.033     2.546     2.495
    75   1 H        0.926     0.030     2.590     2.517
    76   1 H        0.926     0.034     2.533     2.489
    77   1 H        0.926     0.039     2.460     2.453
    78   1 H        0.926     0.030     2.584     2.514
    79   1 H        0.926     0.030     2.593     2.518
    80   1 H        0.926     0.027     2.627     2.535
    81   1 H        0.926     0.029     2.595     2.519
    82   1 H        0.926     0.029     2.595     2.519
    83   1 H        0.926     0.027     2.627     2.535
    84   1 H        0.926     0.030     2.590     2.517
    85   1 H        0.926     0.030     2.579     2.511
    86   1 H        0.926     0.039     2.461     2.453
    87   1 H        0.926     0.032     2.560     2.502
    88   1 H        0.926     0.031     2.567     2.506
    89   1 H        0.926     0.039     2.461     2.453
    90   1 H        0.926     0.030     2.581     2.512
    91   1 H        0.926     0.030     2.590     2.517
    92   1 H        0.926     0.027     2.627     2.534
    93   1 H        0.926     0.029     2.595     2.519
    94   1 H        0.926     0.029     2.595     2.519
    95   1 H        0.926     0.027     2.627     2.535
    96   1 H        0.926     0.030     2.590     2.517
    97   1 H        0.926     0.031     2.578     2.511
    98   1 H        0.926     0.039     2.460     2.453
    99   1 H        0.926     0.033     2.537     2.491
   100   1 H        0.926     0.033     2.547     2.496
   101   1 H        0.926     0.039     2.461     2.453
   102   1 H        0.926     0.031     2.579     2.511
   103   1 H        0.926     0.030     2.588     2.516
   104   1 H        0.926     0.027     2.626     2.534
   105   1 H        0.926     0.029     2.595     2.519
   106   1 H        0.926     0.029     2.595     2.519
   107   1 H        0.926     0.027     2.627     2.535
   108   1 H        0.926     0.030     2.591     2.517
   109   1 H        0.926     0.030     2.582     2.513
   110   1 H        0.926     0.039     2.458     2.452
   111   1 H        0.926     0.032     2.559     2.501
   112   1 H        0.926     0.028     2.619     2.531
   113   1 H        0.926     0.031     2.568     2.506
   114   1 H        0.926     0.043     2.407     2.426

molecular dipole:
                 x           y           z       tot (Debye)
 q only:        0.027       0.446       0.275
   full:       -0.016       0.763       0.208       2.011

 projected vibrational frequencies (cm⁻¹)
eigval :       -0.00    -0.00    -0.00    -0.00    -0.00     0.00
eigval :        5.59     7.04     8.16    10.52    11.03    12.57
eigval :       14.48    15.35    20.32    34.11    36.98    38.79
eigval :       43.63    48.31    50.16    58.72    66.12    69.35
eigval :       73.29    77.77    80.77    99.94   103.14   104.75
eigval :      107.26   127.61   130.52   138.89   141.47   144.21
eigval :      145.95   149.90   151.59   165.64   175.91   183.62
eigval :      205.95   213.73   217.94   252.41   255.54   260.41
eigval :      270.47   271.60   274.87   276.91   285.45   286.86
eigval :      304.45   322.92   331.01   340.26   359.44   366.16
eigval :      369.32   371.21   373.37   373.82   387.25   388.31
eigval :      389.44   392.88   399.03   401.52   402.08   423.03
eigval :      423.61   425.56   434.99   435.60   438.39   475.27
eigval :      481.40   482.41   484.79   514.63   517.57   518.31
eigval :      518.85   519.51   525.59   534.17   534.49   536.06
eigval :      538.05   540.25   541.20   543.07   580.98   581.00
eigval :      581.31   594.46   594.70   595.63   596.02   606.21
eigval :      612.51   613.34   613.82   640.72   661.36   662.95
eigval :      665.37   673.87   674.44   674.85   679.48   680.75
eigval :      681.55   682.57   691.68   708.42   708.59   708.74
eigval :      735.78   745.03   746.24   757.33   759.02   759.38
eigval :      767.59   768.98   769.16   777.66   779.03   780.10
eigval :      780.70   781.16   807.77   809.61   811.13   814.73
eigval :      865.46   865.65   867.18   871.26   872.28   872.54
eigval :      876.18   881.55   883.05   884.64   897.04   897.23
eigval :      897.30   900.48   900.92   902.24   902.41   902.52
eigval :      902.77   903.02   914.14   919.40   920.27   920.46
eigval :      920.84   921.22   921.72   922.23   926.67   927.63
eigval :      928.61   929.22   931.13   931.88   932.07   932.64
eigval :      934.67   935.83   937.15   977.15  1008.19  1010.92
eigval :     1010.93  1010.98  1013.14  1014.15  1014.72  1068.00
eigval :     1068.70  1068.82  1071.02  1071.62  1072.41  1082.06
eigval :     1093.92  1115.83  1116.25  1117.24  1134.61  1135.01
eigval :     1136.61  1138.62  1142.42  1143.79  1148.11  1148.74
eigval :     1150.13  1150.32  1150.65  1151.50  1173.22  1174.03
eigval :     1176.05  1178.38  1179.33  1181.00  1182.59  1183.74
eigval :     1185.21  1193.72  1205.45  1206.43  1207.19  1210.16
eigval :     1234.84  1235.03  1235.23  1243.11  1243.54  1244.02
eigval :     1264.66  1270.21  1272.13  1272.63  1274.19  1279.70
eigval :     1294.89  1298.79  1298.90  1299.58  1300.46  1300.63
eigval :     1301.14  1307.05  1307.39  1308.04  1309.00  1355.05
eigval :     1355.06  1355.18  1359.83  1360.00  1360.04  1361.13
eigval :     1361.28  1361.54  1379.55  1391.92  1392.24  1394.04
eigval :     1403.07  1425.99  1426.06  1426.91  1426.94  1427.02
eigval :     1427.49  1440.15  1473.77  1473.85  1473.94  1484.77
eigval :     1484.93  1485.16  1486.77  1486.82  1486.97  1487.06
eigval :     1549.22  1554.12  1554.34  1555.16  1561.67  1569.78
eigval :     1572.73  1572.89  1573.00  1584.42  1584.47  1586.22
eigval :     1587.70  1587.75  1588.29  1592.09  1596.86  1596.87
eigval :     1596.97  1612.88  1613.02  1613.11  3048.78  3054.43
eigval :     3064.26  3067.03  3069.14  3069.60  3069.96  3070.26
eigval :     3070.30  3070.41  3070.54  3070.56  3071.07  3071.81
eigval :     3075.13  3075.42  3075.80  3075.91  3076.13  3076.39
eigval :     3076.48  3076.69  3076.76  3077.01  3080.53  3083.20
eigval :     3083.23  3083.70  3084.34  3084.44  3084.45  3084.74
eigval :     3085.02  3085.24  3087.92  3088.37  3089.15  3090.22
eigval :     3090.22  3090.46  3090.57  3092.66  3092.80  3093.04

   temp. (K)  partition function   enthalpy   heat capacity  entropy
                                   cal/mol     cal/K/mol   cal/K/mol   J/K/mol
 298.15  VIB  0.235E+30            33770.650    208.204    215.444
         ROT  0.348E+09              888.752      2.981     42.063
         INT  0.817E+38            34659.402    211.185    257.507
         TR   0.265E+29             1481.254      4.968     46.277
         TOT                       36140.6563   216.1534   303.7836  1271.0305

       T/K    H(0)-H(T)+PV         H(T)/Eh          T*S/Eh         G(T)/Eh
   ------------------------------------------------------------------------
    298.15    0.575938E-01    0.931691E+00    0.144337E+00    0.787354E+00
   ------------------------------------------------------------------------

         :::::::::::::::::::::::::::::::::::::::::::::::::::::
         ::                  THERMODYNAMIC                  ::
         :::::::::::::::::::::::::::::::::::::::::::::::::::::
         :: total free energy        -174.391564143804 Eh   ::
         ::.................................................::
         :: total energy             -175.178918173936 Eh   ::
         :: zero point energy           0.874097605555 Eh   ::
         :: G(RRHO) w/o ZPVE           -0.086743575423 Eh   ::
         :: G(RRHO) contrib.            0.787354030132 Eh   ::
         :::::::::::::::::::::::::::::::::::::::::::::::::::::

           -------------------------------------------------
          | TOTAL ENERGY             -175.178918173936 Eh   |
          | TOTAL ENTHALPY           -174.247226766498 Eh   |
          | TOTAL FREE ENERGY        -174.391564143804 Eh   |
          | GRADIENT NORM               0.000068429901 Eh/α |
          | HOMO-LUMO GAP               2.675740268072 eV   |
           -------------------------------------------------

 * finished run on 2025/08/30 at 10:46:42.716
