   * xtb version 6.7.1 (edcfbbe) compiled by 'albert@albert-system' on 2024-07-22

   ID    Z sym.   atoms
    1    6 C      1, 2, 4-9, 11-14, 16-33, 35-52, 54-70
    2    7 N      3, 15, 34, 53
    3   14 Si     10
    4    1 H      71-114

          program call               : xtb data2507/toluene/SiCz3Py1/SiCz3Py1_toluene_T1_crest.xyz --gfn 2 --uhf 2 --gbsa toluene --ohess vtight --parallel 40 --molden --ceasefiles --namespace data2507/toluene/SiCz3Py1/SiCz3Py1_toluene_T1_finalOpt
      * Solvation model:               GBSA
        Solvent                        toluene
        Solvent mass                       9.2140E+01 g/mol
          :  Hamiltonian                  GFN2-xTB          :
 * total energy  :  -175.0753413 Eh     change       -0.3148972E-07 Eh
 * total energy  :  -175.0754072 Eh     change       -0.6595589E-04 Eh
 * total energy  :  -175.0754441 Eh     change       -0.3689814E-04 Eh
 * total energy  :  -175.0754570 Eh     change       -0.1282996E-04 Eh
 * total energy  :  -175.0754646 Eh     change       -0.7616448E-05 Eh
 * total energy  :  -175.0754708 Eh     change       -0.6164585E-05 Eh
 * total energy  :  -175.0754762 Eh     change       -0.5450954E-05 Eh
 * total energy  :  -175.0754807 Eh     change       -0.4535317E-05 Eh
 * total energy  :  -175.0754840 Eh     change       -0.3239220E-05 Eh
 * total energy  :  -175.0754866 Eh     change       -0.2629489E-05 Eh
 * total energy  :  -175.0755590 Eh     change       -0.7020370E-06 Eh
 * total energy  :  -175.0755597 Eh     change       -0.7451513E-06 Eh
 * total energy  :  -175.0755606 Eh     change       -0.9081779E-06 Eh
 * total energy  :  -175.0755615 Eh     change       -0.9359406E-06 Eh
 * total energy  :  -175.0755624 Eh     change       -0.8663864E-06 Eh
 * total energy  :  -175.0755631 Eh     change       -0.6504828E-06 Eh
 * total energy  :  -175.0755635 Eh     change       -0.4521702E-06 Eh
 * total energy  :  -175.0755639 Eh     change       -0.3641683E-06 Eh
 * total energy  :  -175.0755639 Eh     change       -0.1157434E-07 Eh
   *** GEOMETRY OPTIMIZATION CONVERGED AFTER 68 ITERATIONS ***

 final structure:
================
114
 xtb: 6.7.1 (edcfbbe)
C            0.75014536227108        1.50163457564334        9.11095619032940
C            1.76013335303644        0.67708283469865        9.63428827887144
N            2.38634133643627       -0.18923063159953        8.84133599279351
C            2.14523893458157       -0.25298394277712        7.57104901782799
C            1.20784280693382        0.59485861420092        6.89000151194016
C            0.94872285852395        0.46723715409755        5.51074509025472
C           -0.22149462063479        1.02589229567945        4.89982515519187
C           -0.43681574736306        0.94685458872121        3.55762208797501
C            0.46077946049809        0.28915598565084        2.68751747256285
Si           0.14640423157675        0.09639738093742        0.85596258661765
C            1.75284617811359        0.44424856327290       -0.09939548880715
C            2.16426754780358       -0.35145114027368       -1.16388171731922
C            3.33768760238712       -0.09204347604403       -1.84584820322962
C            4.13179461198193        0.98887058306526       -1.47347681107358
N            5.32160174253258        1.26477505361168       -2.16476572967461
C            6.56091697999330        1.46384140009462       -1.59163025833138
C            6.94059310507445        1.38825332799420       -0.25802940559510
C            8.27013315003815        1.61068804533339        0.04766605193559
C            9.20735772610558        1.89221406118365       -0.94421530412300
C            8.83982010126418        1.94598389492121       -2.27563963475413
C            7.50986264441909        1.72734785797470       -2.60751777458392
C            6.79327821071456        1.69054040928085       -3.85341456054741
C            7.16414940242682        1.89134755058590       -5.17587250984005
C            6.19321738447741        1.80594989661502       -6.15603088522674
C            4.86571132881156        1.53745382225588       -5.82895594144070
C            4.47207099147906        1.33429364034319       -4.51961740428490
C            5.44671244354049        1.39782656703187       -3.53262504882879
C            3.73640253300461        1.79447657510753       -0.40865231798477
C            2.56493789266669        1.51467955577327        0.26675950121165
C           -1.20060654588476        1.29745576619114        0.27417904514897
C           -2.53031150454754        1.07813691870132        0.62543715768924
C           -3.53349091237283        1.93862538027560        0.22546005943026
C           -3.22353121001482        3.04750144191400       -0.55761177241724
N           -4.23796261278378        3.92079012950749       -0.98004856336675
C           -5.40604003307418        3.55243907533547       -1.61570970362574
C           -5.83629523234688        2.29389322841481       -2.01457531013342
C           -7.05272693305308        2.20372621842269       -2.66466540760340
C           -7.82417724523234        3.33468990433434       -2.92390786065831
C           -7.39029662211423        4.59277100038672       -2.55044905884155
C           -6.17206871232159        4.70879363367128       -1.89510179643575
C           -5.42018359182208        5.82635309835133       -1.39236059071584
C           -5.65078316355490        7.19465433686408       -1.35366431862331
C           -4.70515189311915        8.00893445768061       -0.75935251437705
C           -3.54966163804912        7.47257652292179       -0.19474581711815
C           -3.29749694138151        6.11384717886266       -0.22134549651905
C           -4.23240292176759        5.29319746900270       -0.83832162433384
C           -1.89993868544184        3.27977134359137       -0.92120336113897
C           -0.90810050848805        2.41423031035451       -0.50190456931957
C           -0.43464734982233       -1.65388985017298        0.38619488513254
C           -0.07938452288520       -2.76061699204098        1.15251123442656
C           -0.50496455438127       -4.03250136810083        0.82282395573281
C           -1.30750848425272       -4.22687709455574       -0.29854690974284
N           -1.74707654985903       -5.51527692393631       -0.64079204438106
C           -0.94636040420898       -6.62935572856719       -0.78401708020008
C            0.43417899232184       -6.74312067455735       -0.68641710709329
C            0.99608335624365       -7.98616254652670       -0.90907593011509
C            0.21125978312883       -9.09231503354786       -1.22856533312755
C           -1.16140126155983       -8.98053591362389       -1.34814354031763
C           -1.74906866390458       -7.74201451321899       -1.13039470624368
C           -3.10354322916595       -7.26344908409978       -1.19056060900604
C           -4.32180679834528       -7.87129111299557       -1.46106577654196
C           -5.46983819201606       -7.10268622476888       -1.41605624263189
C           -5.41405625532183       -5.74831633270650       -1.09347026579097
C           -4.21338978491206       -5.12084735196781       -0.81945365554157
C           -3.05422222369733       -5.88264742360548       -0.88516973129994
C           -1.67402976124788       -3.13167258362845       -1.07610918625138
C           -1.24292262511237       -1.86661115291875       -0.72877131113793
C            1.62922198443968       -0.24939187575118        3.27837080755247
C            1.85839251041559       -0.18598500323267        4.61846050674670
C            0.49732322974004        1.48151367760889        7.76993547421705
H            0.23458952097763        2.18654275711533        9.76785288048482
H            2.07806402859650        0.72199542765570       10.66334935106445
H            2.63020632443599       -1.06195675841015        7.04285826601824
H           -0.95059332445624        1.52288064876577        5.52218942217999
H           -1.32731392464153        1.39466801627940        3.13809512032151
H            1.55784733813920       -1.19549753731446       -1.45837766931972
H            3.65431623049600       -0.73123120421623       -2.65730075561610
H            6.22501024651270        1.15463613956152        0.51571214794170
H            8.59002905171095        1.56135029381064        1.07826021114294
H           10.23682284436493        2.06194654491081       -0.66500101793392
H            9.57006131470363        2.14958238501070       -3.04439938399621
H            8.18962662336163        2.11452147227551       -5.42940592226267
H            6.46184773127405        1.95748551888688       -7.19113511994007
H            4.12706854792740        1.49069545077935       -6.61576718887400
H            3.43855440860136        1.14324363831420       -4.27391743385743
H            4.34337617212424        2.64316731672905       -0.12845918658133
H            2.26777976686985        2.14240121157268        1.09460769060045
H           -2.78227961275160        0.21653534235798        1.22689569573779
H           -4.55725828484325        1.76739760692139        0.52529810802225
H           -5.23791907071355        1.41424291018028       -1.83225207263550
H           -7.41177902844503        1.23546145058930       -2.98166717582010
H           -8.77070375908555        3.22324440783994       -3.43203065618303
H           -7.98218706917658        5.46968478247669       -2.76592094219268
H           -6.55316275222151        7.61036571025911       -1.77629326920586
H           -4.86523184019066        9.07642454259202       -0.72118369269608
H           -2.83633398519897        8.13276525674674        0.27666418119617
H           -2.40740887553374        5.70535553759854        0.23268915208581
H           -1.66011942127221        4.12897106010695       -1.54453566350494
H            0.11462824769717        2.60214421024053       -0.79385999991203
H            0.53312756988896       -2.61897528174215        2.03057925642738
H           -0.23596999455438       -4.87846210259610        1.43857372781386
H            1.05077846153502       -5.88813212218989       -0.45389003616287
H            2.06764871637919       -8.10200416330345       -0.83688634405449
H            0.68736657687386      -10.04785046891232       -1.39240675979935
H           -1.76602697288483       -9.83572627097956       -1.61034219885249
H           -4.36849062287374       -8.92384819420028       -1.69693225756047
H           -6.42720809765778       -7.55663673602896       -1.62568564902858
H           -6.32999933200326       -5.17713434629878       -1.05244154632802
H           -4.18102796343377       -4.07510731047808       -0.55388679495228
H           -2.28144909942441       -3.28307729239428       -1.95671512407385
H           -1.53144749693623       -1.02387711123662       -1.34039361082264
H            2.35334949571857       -0.73517839041262        2.63756116430331
H            2.76343657520872       -0.61940094971406        5.01884812885337
H           -0.21143491721765        2.18042772010864        7.35315356298316

          :  Hamiltonian                  GFN2-xTB          :
         :: gradient norm              0.000060086420 Eh/a0 ::
         :: HOMO-LUMO gap              0.373004859945 eV    ::
         :: SCC energy              -178.372460534968 Eh    ::
         :: -> dispersion             -0.162883043448 Eh    ::
         :: -> Gsolv                  -0.074628017575 Eh    ::
         :: repulsion energy           3.296896644712 Eh    ::

    * Orbital Energies and Occupations

         #    Occupation            Energy/Eh            Energy/eV
      -------------------------------------------------------------
         1        2.0000           -0.7507903             -20.4300
       ...           ...                  ...                  ...
       153        2.0000           -0.3947929             -10.7429
       154        2.0000           -0.3913614             -10.6495
       155        2.0000           -0.3897417             -10.6054
       156        2.0000           -0.3863732             -10.5138
       157        2.0000           -0.3826331             -10.4120
       158        2.0000           -0.3825367             -10.4094
       159        2.0000           -0.3825343             -10.4093
       160        1.9999           -0.3723913             -10.1333
       161        1.9411           -0.3660262              -9.9601
       162        1.9213           -0.3657301              -9.9520
       163        1.8656           -0.3651628              -9.9366
       164        1.2722           -0.3624589              -9.8630
       165        0.9990           -0.2645960              -7.2000 (HOMO)
       166        0.0005           -0.2508889              -6.8270 (LUMO)
       167        0.0003           -0.2502240              -6.8089
       168        0.0002           -0.2498483              -6.7987
       169        0.0000           -0.2436527              -6.6301
       170                         -0.2417961              -6.5796
       171                         -0.2395767              -6.5192
       172                         -0.2327270              -6.3328
       173                         -0.2295995              -6.2477
       174                         -0.2286906              -6.2230
       175                         -0.2276886              -6.1957
       176                         -0.2261842              -6.1548
       ...                                ...                  ...
       329                          0.7406182              20.1532
      -------------------------------------------------------------
                  HL-Gap            0.0137072 Eh            0.3730 eV

     #   Z          covCN         q      C6AA      α(0)
     1   6 C        2.905    -0.040    28.988     8.828
     2   6 C        2.892     0.019    27.580     8.610
     3   7 N        1.836    -0.190    25.945     7.548
     4   6 C        2.894     0.048    26.920     8.507
     5   6 C        2.963    -0.018    28.449     8.749
     6   6 C        2.966    -0.008    28.215     8.713
     7   6 C        2.914    -0.044    29.095     8.845
     8   6 C        2.922    -0.038    28.933     8.821
     9   6 C        2.861    -0.108    30.733     9.087
    10  14 Si       3.608     0.479    98.510    19.056
    11   6 C        2.861    -0.093    30.343     9.029
    12   6 C        2.934    -0.031    28.783     8.799
    13   6 C        2.919    -0.043    29.062     8.840
    14   6 C        2.914     0.062    26.607     8.458
    15   7 N        2.802    -0.037    21.949     6.958
    16   6 C        3.075     0.048    26.851     8.496
    17   6 C        2.909    -0.049    29.211     8.862
    18   6 C        2.923    -0.034    28.840     8.807
    19   6 C        2.920    -0.040    28.982     8.828
    20   6 C        2.912    -0.033    28.824     8.804
    21   6 C        3.067    -0.017    28.355     8.732
    22   6 C        3.066    -0.016    28.353     8.731
    23   6 C        2.912    -0.033    28.823     8.803
    24   6 C        2.920    -0.040    28.985     8.829
    25   6 C        2.923    -0.034    28.842     8.807
    26   6 C        2.909    -0.049    29.218     8.863
    27   6 C        3.075     0.048    26.853     8.496
    28   6 C        2.919    -0.043    29.061     8.840
    29   6 C        2.938    -0.030    28.752     8.794
    30   6 C        2.862    -0.095    30.376     9.034
    31   6 C        2.939    -0.031    28.773     8.797
    32   6 C        2.919    -0.043    29.072     8.842
    33   6 C        2.914     0.061    26.625     8.461
    34   7 N        2.802    -0.037    21.961     6.960
    35   6 C        3.075     0.048    26.852     8.496
    36   6 C        2.909    -0.049    29.220     8.864
    37   6 C        2.923    -0.034    28.846     8.808
    38   6 C        2.920    -0.040    28.989     8.829
    39   6 C        2.912    -0.033    28.825     8.804
    40   6 C        3.066    -0.017    28.358     8.732
    41   6 C        3.066    -0.017    28.360     8.732
    42   6 C        2.912    -0.033    28.826     8.804
    43   6 C        2.920    -0.040    28.987     8.829
    44   6 C        2.923    -0.034    28.843     8.807
    45   6 C        2.909    -0.049    29.217     8.863
    46   6 C        3.075     0.048    26.850     8.496
    47   6 C        2.919    -0.043    29.072     8.842
    48   6 C        2.935    -0.032    28.795     8.800
    49   6 C        2.860    -0.093    30.330     9.027
    50   6 C        2.935    -0.031    28.778     8.798
    51   6 C        2.919    -0.042    29.052     8.839
    52   6 C        2.914     0.061    26.631     8.462
    53   7 N        2.802    -0.036    21.940     6.957
    54   6 C        3.076     0.048    26.851     8.496
    55   6 C        2.909    -0.049    29.211     8.862
    56   6 C        2.923    -0.034    28.842     8.807
    57   6 C        2.920    -0.040    28.983     8.828
    58   6 C        2.912    -0.033    28.823     8.803
    59   6 C        3.066    -0.017    28.356     8.732
    60   6 C        3.066    -0.017    28.355     8.732
    61   6 C        2.912    -0.033    28.822     8.803
    62   6 C        2.920    -0.040    28.985     8.829
    63   6 C        2.923    -0.034    28.844     8.807
    64   6 C        2.909    -0.049    29.214     8.863
    65   6 C        3.076     0.048    26.852     8.496
    66   6 C        2.919    -0.043    29.067     8.841
    67   6 C        2.935    -0.031    28.772     8.797
    68   6 C        2.927    -0.037    28.914     8.818
    69   6 C        2.913    -0.045    29.123     8.849
    70   6 C        2.924    -0.037    28.912     8.818
    71   1 H        0.926     0.031     2.567     2.506
    72   1 H        0.926     0.029     2.600     2.521
    73   1 H        0.926     0.039     2.467     2.456
    74   1 H        0.926     0.018     2.771     2.603
    75   1 H        0.925     0.015     2.807     2.620
    76   1 H        0.926     0.033     2.550     2.497
    77   1 H        0.926     0.040     2.452     2.449
    78   1 H        0.926     0.034     2.537     2.491
    79   1 H        0.926     0.033     2.541     2.493
    80   1 H        0.926     0.032     2.561     2.502
    81   1 H        0.926     0.034     2.526     2.486
    82   1 H        0.926     0.034     2.530     2.487
    83   1 H        0.926     0.032     2.560     2.502
    84   1 H        0.926     0.034     2.532     2.488
    85   1 H        0.926     0.035     2.521     2.483
    86   1 H        0.926     0.039     2.458     2.452
    87   1 H        0.926     0.032     2.556     2.500
    88   1 H        0.926     0.030     2.593     2.518
    89   1 H        0.926     0.039     2.468     2.457
    90   1 H        0.926     0.034     2.530     2.487
    91   1 H        0.926     0.034     2.535     2.490
    92   1 H        0.926     0.032     2.563     2.504
    93   1 H        0.926     0.034     2.534     2.489
    94   1 H        0.926     0.034     2.531     2.488
    95   1 H        0.926     0.032     2.564     2.504
    96   1 H        0.926     0.033     2.541     2.493
    97   1 H        0.926     0.034     2.534     2.489
    98   1 H        0.926     0.039     2.462     2.454
    99   1 H        0.926     0.032     2.562     2.503
   100   1 H        0.926     0.032     2.555     2.500
   101   1 H        0.926     0.039     2.469     2.457
   102   1 H        0.926     0.034     2.529     2.487
   103   1 H        0.926     0.033     2.537     2.491
   104   1 H        0.926     0.032     2.561     2.503
   105   1 H        0.926     0.034     2.530     2.487
   106   1 H        0.926     0.034     2.531     2.488
   107   1 H        0.926     0.032     2.561     2.503
   108   1 H        0.926     0.034     2.535     2.490
   109   1 H        0.926     0.034     2.528     2.486
   110   1 H        0.926     0.040     2.454     2.450
   111   1 H        0.926     0.032     2.560     2.502
   112   1 H        0.925     0.010     2.897     2.662
   113   1 H        0.926     0.017     2.782     2.608
   114   1 H        0.926     0.033     2.547     2.496

molecular dipole:
                 x           y           z       tot (Debye)
 q only:       -0.522      -0.053      -2.345
   full:       -0.665       0.096      -2.378       6.282

 projected vibrational frequencies (cm⁻¹)
eigval :       -0.00     0.00     0.00     0.00     0.00     0.00
eigval :        5.90     6.31     9.48    10.56    11.27    11.75
eigval :       12.84    13.09    24.36    34.44    36.41    37.66
eigval :       45.46    47.42    49.96    54.79    67.18    70.57
eigval :       71.94    78.94    88.60   100.48   103.38   104.31
eigval :      106.01   124.94   125.99   132.93   139.59   141.52
eigval :      143.58   143.95   149.90   163.33   169.80   184.79
eigval :      201.35   210.53   216.25   238.93   251.66   255.80
eigval :      258.45   269.96   270.98   271.32   284.62   289.19
eigval :      298.36   322.12   331.74   338.32   348.42   362.22
eigval :      368.41   369.65   372.06   386.40   387.07   387.80
eigval :      388.07   395.70   400.28   401.50   401.78   417.10
eigval :      421.83   422.65   424.29   434.30   434.68   437.46
eigval :      447.57   478.93   480.07   482.00   505.51   509.76
eigval :      516.54   516.75   517.11   520.45   536.06   536.94
eigval :      537.68   538.47   538.60   540.07   563.80   580.04
eigval :      580.29   580.65   588.52   593.42   593.58   594.32
eigval :      604.59   612.15   612.36   613.31   618.97   634.64
eigval :      656.81   658.23   661.61   673.11   674.74   675.01
eigval :      677.21   678.76   679.31   689.80   708.34   709.48
eigval :      709.79   727.68   737.33   739.96   743.23   756.69
eigval :      757.40   758.06   765.99   767.60   768.14   769.90
eigval :      777.84   778.26   778.49   780.35   793.35   806.98
eigval :      808.19   811.05   812.81   864.78   866.39   867.13
eigval :      869.90   871.96   872.08   877.32   881.15   882.28
eigval :      883.99   896.83   896.91   896.99   899.29   900.90
eigval :      901.91   902.59   903.25   903.42   904.20   910.43
eigval :      919.18   919.92   920.32   920.65   921.10   922.97
eigval :      925.55   926.81   928.25   928.90   929.93   930.67
eigval :      931.18   935.48   935.85   937.80   960.93  1000.91
eigval :     1010.38  1010.47  1010.59  1011.52  1012.32  1013.06
eigval :     1063.72  1066.17  1067.28  1067.85  1069.10  1069.72
eigval :     1070.50  1114.72  1115.05  1115.78  1120.72  1123.76
eigval :     1134.25  1135.28  1136.28  1138.70  1139.26  1142.61
eigval :     1145.81  1146.59  1146.63  1148.15  1157.70  1172.78
eigval :     1172.80  1173.97  1177.62  1177.91  1178.70  1181.50
eigval :     1182.16  1183.18  1203.79  1205.38  1206.00  1208.96
eigval :     1227.41  1232.12  1232.37  1233.05  1239.24  1240.30
eigval :     1241.35  1249.43  1269.39  1269.67  1271.03  1271.97
eigval :     1294.04  1294.28  1294.57  1294.80  1295.19  1295.31
eigval :     1307.13  1307.66  1309.09  1312.62  1321.80  1331.93
eigval :     1350.72  1351.38  1351.47  1351.75  1352.08  1353.54
eigval :     1358.75  1359.47  1359.67  1370.40  1390.02  1391.19
eigval :     1391.54  1392.72  1418.61  1419.08  1419.59  1422.69
eigval :     1423.09  1424.22  1442.70  1465.29  1466.71  1466.77
eigval :     1467.23  1471.32  1478.32  1479.88  1480.52  1483.56
eigval :     1483.69  1484.08  1524.42  1546.40  1550.14  1552.28
eigval :     1559.62  1567.95  1568.44  1568.57  1575.25  1578.70
eigval :     1581.93  1583.48  1584.19  1587.16  1587.23  1587.91
eigval :     1588.03  1601.95  1603.23  1607.37  3044.86  3054.27
eigval :     3054.46  3068.59  3069.40  3069.51  3070.00  3070.76
eigval :     3072.52  3073.03  3073.69  3073.89  3074.19  3074.21
eigval :     3074.29  3074.60  3076.37  3076.91  3078.90  3079.07
eigval :     3079.39  3080.05  3080.07  3080.30  3082.70  3082.99
eigval :     3083.34  3083.72  3084.99  3085.99  3086.75  3086.92
eigval :     3087.02  3087.40  3087.88  3087.99  3088.18  3091.36
eigval :     3092.93  3092.98  3093.12  3093.50  3094.04  3095.09

   temp. (K)  partition function   enthalpy   heat capacity  entropy
                                   cal/mol     cal/K/mol   cal/K/mol   J/K/mol
 298.15  VIB  0.411E+30            34169.206    210.774    217.800
         ROT  0.347E+09              888.752      2.981     42.058
         INT  0.142E+39            35057.958    213.754    259.859
         TR   0.265E+29             1481.254      4.968     46.277
         TOT                       36539.2118   218.7226   306.1352  1280.8696

       T/K    H(0)-H(T)+PV         H(T)/Eh          T*S/Eh         G(T)/Eh
   ------------------------------------------------------------------------
    298.15    0.582289E-01    0.927332E+00    0.145455E+00    0.781878E+00
   ------------------------------------------------------------------------

         :::::::::::::::::::::::::::::::::::::::::::::::::::::
         ::                  THERMODYNAMIC                  ::
         :::::::::::::::::::::::::::::::::::::::::::::::::::::
         :: total free energy        -174.293686140980 Eh   ::
         ::.................................................::
         :: total energy             -175.075563887547 Eh   ::
         :: zero point energy           0.869103506066 Eh   ::
         :: G(RRHO) w/o ZPVE           -0.087225759499 Eh   ::
         :: G(RRHO) contrib.            0.781877746567 Eh   ::
         :::::::::::::::::::::::::::::::::::::::::::::::::::::

           -------------------------------------------------
          | TOTAL ENERGY             -175.075563887547 Eh   |
          | TOTAL ENTHALPY           -174.148231441070 Eh   |
          | TOTAL FREE ENERGY        -174.293686140980 Eh   |
          | GRADIENT NORM               0.000062223858 Eh/α |
          | HOMO-LUMO GAP               0.372991374886 eV   |
           -------------------------------------------------

 * finished run on 2025/08/30 at 11:19:25.145
