   * xtb version 6.7.1 (edcfbbe) compiled by 'albert@albert-system' on 2024-07-22

   ID    Z sym.   atoms
    1    6 C      1, 2, 4-9, 11-14, 16-33, 35-52, 54-70
    2    7 N      3, 15, 34, 53
    3   14 Si     10
    4    1 H      71-114

          program call               : xtb data2507/toluene/SiCz3Py1/SiCz3Py1.xyz --gfn 2 --gbsa toluene --ohess vtight --parallel 40 --molden --ceasefiles --namespace data2507/toluene/SiCz3Py1/SiCz3Py1_toluene_S0_preOpt
      * Solvation model:               GBSA
        Solvent                        toluene
        Solvent mass                       9.2140E+01 g/mol
          :  Hamiltonian                  GFN2-xTB          :
 * total energy  :  -175.1487697 Eh     change       -0.3347026E-08 Eh
 * total energy  :  -175.1716384 Eh     change       -0.2286863E-01 Eh
 * total energy  :  -175.1763999 Eh     change       -0.4761519E-02 Eh
 * total energy  :  -175.1770381 Eh     change       -0.6382371E-03 Eh
 * total energy  :  -175.1775361 Eh     change       -0.4980266E-03 Eh
 * total energy  :  -175.1778681 Eh     change       -0.3319696E-03 Eh
 * total energy  :  -175.1781379 Eh     change       -0.2697613E-03 Eh
 * total energy  :  -175.1783050 Eh     change       -0.1671400E-03 Eh
 * total energy  :  -175.1783813 Eh     change       -0.7625318E-04 Eh
 * total energy  :  -175.1784541 Eh     change       -0.7282020E-04 Eh
 * total energy  :  -175.1787991 Eh     change       -0.1920100E-06 Eh
 * total energy  :  -175.1787993 Eh     change       -0.1954211E-06 Eh
 * total energy  :  -175.1787993 Eh     change        0.4047243E-07 Eh
 * total energy  :  -175.1787995 Eh     change       -0.1900695E-06 Eh
 * total energy  :  -175.1787994 Eh     change        0.3766417E-07 Eh
 * total energy  :  -175.1787996 Eh     change       -0.1431194E-06 Eh
 * total energy  :  -175.1787995 Eh     change        0.2537317E-07 Eh
 * total energy  :  -175.1787997 Eh     change       -0.1113721E-06 Eh
 * total energy  :  -175.1787997 Eh     change       -0.8858984E-07 Eh
   *** GEOMETRY OPTIMIZATION CONVERGED AFTER 93 ITERATIONS ***

 final structure:
================
114
 xtb: 6.7.1 (edcfbbe)
C           -0.26670421491827        1.44544695783225        9.00410096408504
C           -0.17116631801276        0.22596565539203        9.65818252985342
N           -0.06525365428378       -0.92888249062190        9.02008718362903
C           -0.04529515743362       -0.91437606702297        7.70034761748884
C           -0.12656856001684        0.24806738545785        6.93095912626486
C           -0.09776138606260        0.19533190108807        5.46431763838361
C           -0.95269239470361        0.99404556697938        4.70750383124174
C           -0.92947994649212        0.93518907941989        3.32751751906956
C           -0.05227014845147        0.08953735131482        2.65506835096523
Si          -0.01693326630693       -0.00556206528064        0.76194163969806
C            1.79372327007655       -0.02462162934348        0.19993806626724
C            2.22750201977945       -0.83651936533419       -0.84388180182280
C            3.54690137628635       -0.83831704149901       -1.25359583390028
C            4.47116239410904       -0.00919655034949       -0.62466812834211
N            5.81255809878363       -0.00264147508827       -1.03655491116518
C            6.25970847215510        0.16060368834665       -2.33253086688754
C            5.53735369447909        0.39953234780512       -3.49357127803929
C            6.24224795409769        0.55493760145204       -4.67191480277262
C            7.63375894781889        0.48369430515433       -4.70274383210921
C            8.35914029622183        0.26909490430525       -3.54758578388918
C            7.67311723548441        0.11065431048034       -2.35000926390697
C            8.09037024352625       -0.09966588821075       -0.99169605790074
C            9.33083830564588       -0.24825833614669       -0.38411821357339
C            9.37911642941555       -0.46218958432252        0.97916622852588
C            8.20988278918110       -0.54293577098381        1.73340014874701
C            6.96459247431539       -0.39873909020799        1.15209101864020
C            6.91039525208064       -0.15972421290647       -0.21418830736514
C            4.05367828497417        0.81116296335847        0.41985208992125
C            2.73321660172495        0.79300372979019        0.82401987174879
C           -0.90963136103513        1.50016852049045        0.03354317623001
C           -0.21218888716225        2.62084865934883       -0.40734707974688
C           -0.87152556063872        3.73101053960995       -0.89914693704024
C           -2.26157278359351        3.73928083949026       -0.97052453584444
N           -2.93925873088546        4.86408904276650       -1.46510658108734
C           -3.97775096587932        5.52138821691692       -0.83578403853319
C           -4.55973924041411        5.27687042372864        0.40052595590248
C           -5.57992216313967        6.11358380891041        0.81108916480927
C           -6.01278932351381        7.17631954345779        0.02019201721972
C           -5.42260690122380        7.43872781202757       -1.20023076947578
C           -4.39413682889909        6.61195846516632       -1.63440072702453
C           -3.56169879809076        6.60124366704923       -2.80485667452032
C           -3.49994554433219        7.39763431349549       -3.94142825917893
C           -2.56934418719316        7.09154064119446       -4.91452905903412
C           -1.71668637022318        5.99840683206179       -4.77147387090738
C           -1.75853656100752        5.19199397964157       -3.65012374769941
C           -2.67596201682678        5.50839953671952       -2.65753626884912
C           -2.97416980255027        2.62136733552690       -0.54503927703073
C           -2.30021138067894        1.52390504872366       -0.04657773944836
C           -0.89956314539131       -1.57257232126239        0.16409979022934
C           -1.14868536897718       -2.64406615638303        1.01632873092357
C           -1.77121204828759       -3.79229433101866        0.56556523784800
C           -2.17124078658725       -3.89039248091914       -0.76394329128573
N           -2.80597447981680       -5.05169166247876       -1.22994827514089
C           -2.44245062135130       -5.77812006479098       -2.34647241800951
C           -1.38207948754280       -5.58420656393405       -3.22104552300867
C           -1.22545398300013       -6.48572443119300       -4.25647913223419
C           -2.09338943517972       -7.56369728199315       -4.42046287986265
C           -3.13641146735935       -7.77509215577047       -3.54066867640540
C           -3.31453478989525       -6.88221077409280       -2.49136439546775
C           -4.25204997877921       -6.80617576095147       -1.40565885629717
C           -5.34021363674218       -7.58162004185326       -1.02542536945310
C           -6.06262937124007       -7.20722957032769        0.09019211534543
C           -5.72117433870461       -6.06704008625472        0.81525560301526
C           -4.64366472356761       -5.27962476341664        0.45685894060313
C           -3.89912312434213       -5.66390256523472       -0.64986051340805
C           -1.93817897406298       -2.82355438208242       -1.62782145111083
C           -1.30720078393541       -1.68648348825198       -1.16327205178421
C            0.80532181715265       -0.69940815579684        3.41886125098677
C            0.78355757145913       -0.65520750094774        4.79891828174743
C           -0.24262855444463        1.45480701024468        7.62050810500505
H           -0.35122925213033        2.36369381226745        9.56486980713033
H           -0.17845940223591        0.16297571818947       10.73866906240399
H            0.02334136873679       -1.88610776130507        7.22735214452160
H           -1.65314127994132        1.64806800440761        5.20742193940501
H           -1.60227475018657        1.55993169276951        2.75808748025908
H            1.52126471233602       -1.48875650004947       -1.33588396143158
H            3.87309854995976       -1.48990412057072       -2.05113770911724
H            4.46021842899370        0.47131112302980       -3.47817897860927
H            5.70288883510520        0.73901723320723       -5.58983115076036
H            8.14820165496915        0.60740552084553       -5.64457843059077
H            9.43811769446754        0.22949174439196       -3.56925368061044
H           10.23647202013144       -0.20118636764885       -0.97050572475450
H           10.33402352896264       -0.57742099202722        1.47100961695179
H            8.27849918301293       -0.72599637453103        2.79601711417870
H            6.06448223014348       -0.47865489298682        1.74282695621452
H            4.76652594613541        1.46559277714633        0.90014224852413
H            2.42219118265367        1.42885813206843        1.64046552648955
H            0.86672331966397        2.62605322804838       -0.35981324261293
H           -0.31734352970910        4.60210673790923       -1.21701338993038
H           -4.22242537410133        4.46547150259959        1.02769587911092
H           -6.05102378541034        5.94212431265309        1.76823405445213
H           -6.81572936897718        7.80590430933195        0.37501546768264
H           -5.74800288677456        8.27098372897136       -1.80656731503919
H           -4.17123535190714        8.23527610695335       -4.05956504730035
H           -2.50381102309013        7.69958480687765       -5.80501190981547
H           -1.00895482452083        5.77494280697422       -5.55666840254558
H           -1.10423709958629        4.33838005932607       -3.55665406703188
H           -4.05188759157722        2.61678021183412       -0.61899219774058
H           -2.86362104333171        0.66113605120373        0.27863344484308
H           -0.84644978111981       -2.57966397945151        2.05113102009955
H           -1.93969845311585       -4.62335056664214        1.23475322379587
H           -0.69419366709131       -4.76206051367187       -3.09359777362249
H           -0.40949565259648       -6.35441628088020       -4.95243292581231
H           -1.93882555342500       -8.24572996733228       -5.24378680282443
H           -3.79955900249175       -8.61913098394751       -3.65917819221194
H           -5.61463119157048       -8.45654577198015       -1.59597725625370
H           -6.91052288227919       -7.79848726387448        0.40408181282643
H           -6.31419148537978       -5.79096233753183        1.67518617269467
H           -4.39765980817796       -4.38930018605560        1.01578045017495
H           -2.26576834827065       -2.88906410009419       -2.65517879240905
H           -1.13848496165332       -0.86197171067373       -1.84102527876922
H            1.50505563329136       -1.35492897222482        2.91988916932516
H            1.46750055129321       -1.26632908716927        5.37071689821174
H           -0.29422746477571        2.38701223116956        7.07600902668436

          :  Hamiltonian                  GFN2-xTB          :
         :: gradient norm              0.000046216838 Eh/a0 ::
         :: HOMO-LUMO gap              2.685901454549 eV    ::
         :: SCC energy              -178.488604210021 Eh    ::
         :: -> dispersion             -0.162798159844 Eh    ::
         :: -> Gsolv                  -0.074962341348 Eh    ::
         :: repulsion energy           3.309804466807 Eh    ::

    * Orbital Energies and Occupations

         #    Occupation            Energy/Eh            Energy/eV
      -------------------------------------------------------------
         1        2.0000           -0.7604453             -20.6928
       ...           ...                  ...                  ...
       152        2.0000           -0.4052837             -11.0283
       153        2.0000           -0.4050294             -11.0214
       154        2.0000           -0.4003731             -10.8947
       155        2.0000           -0.3939178             -10.7190
       156        2.0000           -0.3921552             -10.6711
       157        2.0000           -0.3909692             -10.6388
       158        2.0000           -0.3787050             -10.3051
       159        2.0000           -0.3784832             -10.2991
       160        2.0000           -0.3782768             -10.2934
       161        2.0000           -0.3710172             -10.0959
       162        2.0000           -0.3624380              -9.8624
       163        2.0000           -0.3620295              -9.8513
       164        2.0000           -0.3619235              -9.8484 (HOMO)
       165                         -0.2632184              -7.1625 (LUMO)
       166                         -0.2511824              -6.8350
       167                         -0.2489260              -6.7736
       168                         -0.2486670              -6.7666
       169                         -0.2468166              -6.7162
       170                         -0.2428584              -6.6085
       171                         -0.2416321              -6.5751
       172                         -0.2388259              -6.4988
       173                         -0.2303737              -6.2688
       174                         -0.2293846              -6.2419
       175                         -0.2285576              -6.2194
       ...                                ...                  ...
       329                          0.7446211              20.2622
      -------------------------------------------------------------
                  HL-Gap            0.0987051 Eh            2.6859 eV

     #   Z          covCN         q      C6AA      α(0)
     1   6 C        2.911    -0.040    28.993     8.829
     2   6 C        2.912     0.058    26.708     8.474
     3   7 N        1.835    -0.241    27.143     7.721
     4   6 C        2.917     0.056    26.736     8.479
     5   6 C        2.972     0.001    28.003     8.680
     6   6 C        2.977     0.008    27.838     8.655
     7   6 C        2.922    -0.034    28.839     8.807
     8   6 C        2.933    -0.032    28.806     8.802
     9   6 C        2.862    -0.092    30.302     9.023
    10  14 Si       3.611     0.493    98.122    19.017
    11   6 C        2.862    -0.094    30.368     9.033
    12   6 C        2.935    -0.032    28.790     8.800
    13   6 C        2.919    -0.043    29.068     8.841
    14   6 C        2.913     0.064    26.558     8.451
    15   7 N        2.802    -0.047    22.149     6.990
    16   6 C        3.075     0.047    26.858     8.497
    17   6 C        2.909    -0.052    29.298     8.876
    18   6 C        2.924    -0.035    28.880     8.813
    19   6 C        2.920    -0.043    29.067     8.841
    20   6 C        2.912    -0.035    28.873     8.811
    21   6 C        3.067    -0.019    28.412     8.740
    22   6 C        3.067    -0.019    28.413     8.740
    23   6 C        2.912    -0.035    28.874     8.811
    24   6 C        2.919    -0.043    29.066     8.841
    25   6 C        2.924    -0.035    28.879     8.813
    26   6 C        2.909    -0.052    29.297     8.875
    27   6 C        3.076     0.047    26.858     8.497
    28   6 C        2.919    -0.043    29.076     8.842
    29   6 C        2.938    -0.031    28.767     8.796
    30   6 C        2.862    -0.095    30.374     9.034
    31   6 C        2.935    -0.032    28.793     8.800
    32   6 C        2.919    -0.043    29.073     8.842
    33   6 C        2.913     0.064    26.560     8.451
    34   7 N        2.802    -0.047    22.147     6.990
    35   6 C        3.075     0.047    26.858     8.497
    36   6 C        2.910    -0.052    29.297     8.875
    37   6 C        2.924    -0.035    28.881     8.813
    38   6 C        2.919    -0.043    29.067     8.841
    39   6 C        2.912    -0.035    28.873     8.811
    40   6 C        3.067    -0.019    28.411     8.740
    41   6 C        3.067    -0.019    28.412     8.740
    42   6 C        2.912    -0.035    28.873     8.811
    43   6 C        2.920    -0.043    29.065     8.841
    44   6 C        2.924    -0.035    28.879     8.813
    45   6 C        2.909    -0.052    29.296     8.875
    46   6 C        3.075     0.047    26.858     8.497
    47   6 C        2.919    -0.043    29.077     8.843
    48   6 C        2.938    -0.031    28.770     8.797
    49   6 C        2.862    -0.095    30.378     9.034
    50   6 C        2.935    -0.032    28.790     8.800
    51   6 C        2.919    -0.043    29.071     8.842
    52   6 C        2.913     0.064    26.558     8.451
    53   7 N        2.802    -0.047    22.146     6.989
    54   6 C        3.075     0.047    26.858     8.497
    55   6 C        2.910    -0.052    29.296     8.875
    56   6 C        2.924    -0.035    28.880     8.813
    57   6 C        2.919    -0.043    29.066     8.841
    58   6 C        2.912    -0.035    28.873     8.811
    59   6 C        3.067    -0.019    28.411     8.740
    60   6 C        3.067    -0.019    28.412     8.740
    61   6 C        2.912    -0.035    28.873     8.811
    62   6 C        2.919    -0.043    29.065     8.841
    63   6 C        2.924    -0.035    28.879     8.813
    64   6 C        2.909    -0.052    29.297     8.875
    65   6 C        3.075     0.047    26.858     8.497
    66   6 C        2.919    -0.043    29.080     8.843
    67   6 C        2.938    -0.031    28.777     8.798
    68   6 C        2.936    -0.031    28.777     8.798
    69   6 C        2.921    -0.035    28.863     8.810
    70   6 C        2.933    -0.017    28.430     8.745
    71   1 H        0.926     0.041     2.429     2.437
    72   1 H        0.925     0.036     2.504     2.474
    73   1 H        0.925     0.037     2.490     2.467
    74   1 H        0.926     0.033     2.550     2.497
    75   1 H        0.926     0.028     2.611     2.527
    76   1 H        0.926     0.033     2.539     2.492
    77   1 H        0.926     0.039     2.460     2.453
    78   1 H        0.926     0.030     2.580     2.512
    79   1 H        0.926     0.030     2.589     2.516
    80   1 H        0.926     0.027     2.627     2.535
    81   1 H        0.926     0.029     2.595     2.519
    82   1 H        0.926     0.029     2.594     2.519
    83   1 H        0.926     0.027     2.627     2.535
    84   1 H        0.926     0.030     2.592     2.518
    85   1 H        0.926     0.030     2.584     2.514
    86   1 H        0.926     0.039     2.460     2.453
    87   1 H        0.926     0.032     2.561     2.502
    88   1 H        0.926     0.033     2.539     2.492
    89   1 H        0.926     0.039     2.461     2.453
    90   1 H        0.926     0.030     2.585     2.514
    91   1 H        0.926     0.030     2.591     2.517
    92   1 H        0.926     0.027     2.627     2.535
    93   1 H        0.926     0.029     2.595     2.519
    94   1 H        0.926     0.029     2.594     2.519
    95   1 H        0.926     0.027     2.626     2.534
    96   1 H        0.926     0.030     2.590     2.517
    97   1 H        0.926     0.030     2.582     2.513
    98   1 H        0.926     0.039     2.460     2.453
    99   1 H        0.926     0.032     2.558     2.501
   100   1 H        0.926     0.033     2.540     2.492
   101   1 H        0.926     0.039     2.460     2.453
   102   1 H        0.926     0.030     2.583     2.513
   103   1 H        0.926     0.030     2.589     2.516
   104   1 H        0.926     0.027     2.627     2.534
   105   1 H        0.926     0.029     2.595     2.519
   106   1 H        0.926     0.029     2.594     2.519
   107   1 H        0.926     0.027     2.626     2.534
   108   1 H        0.926     0.030     2.591     2.517
   109   1 H        0.926     0.030     2.584     2.514
   110   1 H        0.926     0.039     2.457     2.451
   111   1 H        0.926     0.032     2.552     2.498
   112   1 H        0.926     0.028     2.614     2.528
   113   1 H        0.926     0.031     2.568     2.506
   114   1 H        0.926     0.043     2.409     2.427

molecular dipole:
                 x           y           z       tot (Debye)
 q only:       -0.047       0.464       0.190
   full:       -0.069       0.772       0.082       1.981

 projected vibrational frequencies (cm⁻¹)
eigval :       -0.00    -0.00    -0.00     0.00     0.00     0.00
eigval :        3.85     6.33     7.71     9.16    10.56    10.99
eigval :       12.83    13.31    34.19    37.30    38.02    39.08
eigval :       44.60    45.64    51.19    58.15    69.68    72.59
eigval :       75.00    79.19    80.21   100.08   102.70   104.50
eigval :      105.27   125.75   129.32   138.15   142.28   143.47
eigval :      144.82   149.82   153.32   167.41   176.58   180.28
eigval :      206.11   213.91   218.39   254.76   255.46   259.49
eigval :      270.16   271.71   272.02   273.90   283.23   291.37
eigval :      304.26   318.45   335.46   339.43   359.92   366.02
eigval :      370.28   371.07   373.14   373.70   386.17   387.95
eigval :      388.45   392.82   398.44   400.00   401.19   421.79
eigval :      422.39   424.19   434.62   435.14   438.13   477.67
eigval :      481.59   482.40   484.36   514.66   517.73   518.29
eigval :      518.57   520.25   525.17   534.19   534.46   534.64
eigval :      539.07   541.21   541.40   541.42   581.08   581.09
eigval :      581.20   594.51   594.63   594.92   596.35   606.10
eigval :      612.72   613.69   614.10   640.93   662.12   662.59
eigval :      665.50   673.42   673.47   673.59   680.01   680.98
eigval :      681.45   682.41   692.26   707.08   707.85   707.93
eigval :      735.82   745.53   746.06   757.44   759.24   759.38
eigval :      766.05   767.87   768.91   776.90   777.84   778.72
eigval :      780.82   781.30   809.30   810.44   812.71   815.66
eigval :      862.23   866.35   866.75   868.19   871.89   872.19
eigval :      878.76   882.25   883.61   885.73   897.22   897.25
eigval :      897.40   897.99   899.15   900.69   900.72   901.75
eigval :      902.83   903.23   911.65   919.23   919.61   920.10
eigval :      920.79   920.96   924.17   925.56   927.11   927.37
eigval :      928.16   930.83   932.01   932.11   932.22   934.49
eigval :      935.61   937.95   939.96   976.93  1008.10  1010.91
eigval :     1010.97  1011.11  1013.14  1014.14  1014.30  1068.36
eigval :     1068.92  1069.14  1071.66  1071.73  1072.93  1082.72
eigval :     1093.81  1116.69  1116.82  1116.89  1135.36  1135.78
eigval :     1136.47  1137.72  1142.60  1144.63  1148.33  1148.74
eigval :     1150.79  1151.13  1151.42  1151.67  1175.02  1175.11
eigval :     1175.95  1179.99  1180.21  1182.06  1183.36  1183.76
eigval :     1185.15  1192.83  1206.16  1206.77  1207.24  1210.15
eigval :     1234.84  1235.18  1235.78  1243.68  1243.93  1244.10
eigval :     1261.48  1270.28  1271.26  1272.89  1274.59  1280.43
eigval :     1295.24  1299.18  1299.37  1299.50  1300.65  1300.76
eigval :     1301.36  1307.14  1307.45  1308.29  1308.96  1355.14
eigval :     1355.17  1355.22  1360.06  1360.10  1360.16  1361.17
eigval :     1361.43  1361.66  1380.10  1391.85  1392.20  1393.96
eigval :     1402.99  1425.99  1426.21  1426.81  1427.04  1427.13
eigval :     1427.54  1440.73  1474.00  1474.08  1474.14  1484.53
eigval :     1484.84  1484.97  1486.80  1487.04  1487.12  1487.71
eigval :     1549.52  1554.16  1554.42  1555.28  1562.05  1570.29
eigval :     1572.96  1572.98  1573.03  1584.32  1584.46  1586.23
eigval :     1587.76  1587.85  1588.31  1592.21  1596.78  1596.85
eigval :     1596.89  1612.82  1612.92  1613.00  3048.79  3054.26
eigval :     3064.44  3066.64  3069.75  3069.85  3070.29  3070.50
eigval :     3070.68  3070.75  3070.89  3071.06  3071.18  3071.88
eigval :     3075.83  3075.85  3076.00  3076.16  3076.31  3076.38
eigval :     3076.91  3077.03  3077.15  3077.36  3079.55  3083.57
eigval :     3083.69  3084.21  3084.46  3084.68  3084.80  3084.86
eigval :     3085.16  3085.43  3087.75  3087.97  3088.72  3090.02
eigval :     3090.58  3090.63  3090.88  3092.94  3093.10  3093.50

   temp. (K)  partition function   enthalpy   heat capacity  entropy
                                   cal/mol     cal/K/mol   cal/K/mol   J/K/mol
 298.15  VIB  0.369E+30            33764.001    208.500    216.230
         ROT  0.349E+09              888.752      2.981     42.073
         INT  0.129E+39            34652.753    211.481    258.303
         TR   0.265E+29             1481.254      4.968     46.277
         TOT                       36134.0069   216.4487   304.5795  1274.3605

       T/K    H(0)-H(T)+PV         H(T)/Eh          T*S/Eh         G(T)/Eh
   ------------------------------------------------------------------------
    298.15    0.575832E-01    0.931742E+00    0.144716E+00    0.787027E+00
   ------------------------------------------------------------------------

         :::::::::::::::::::::::::::::::::::::::::::::::::::::
         ::                  THERMODYNAMIC                  ::
         :::::::::::::::::::::::::::::::::::::::::::::::::::::
         :: total free energy        -174.391773103367 Eh   ::
         ::.................................................::
         :: total energy             -175.178799747143 Eh   ::
         :: zero point energy           0.874158977592 Eh   ::
         :: G(RRHO) w/o ZPVE           -0.087132333816 Eh   ::
         :: G(RRHO) contrib.            0.787026643777 Eh   ::
         :::::::::::::::::::::::::::::::::::::::::::::::::::::

           -------------------------------------------------
          | TOTAL ENERGY             -175.178799747143 Eh   |
          | TOTAL ENTHALPY           -174.247057564237 Eh   |
          | TOTAL FREE ENERGY        -174.391773103367 Eh   |
          | GRADIENT NORM               0.000046220361 Eh/α |
          | HOMO-LUMO GAP               2.685903463732 eV   |
           -------------------------------------------------

 * finished run on 2025/08/30 at 10:26:46.105
