   * xtb version 6.7.1 (edcfbbe) compiled by 'albert@albert-system' on 2024-07-22

   ID    Z sym.   atoms
    1    7 N      1, 7, 29, 35
    2    6 C      2-6, 8-28, 30-34, 36-38, 42-46, 50
    3    9 F      39-41, 47-49
    4    1 H      51-70

          program call               : xtb data2507/gas/pCNBCzoCF3/pCNBCzoCF3_gas_S0_crest.xyz --gfn 2 --ohess vtight --parallel 40 --molden --ceasefiles --namespace data2507/gas/pCNBCzoCF3/pCNBCzoCF3_gas_S0_finalOpt
          :  Hamiltonian                  GFN2-xTB          :
 * total energy  :  -135.9655439 Eh     change       -0.3231236E-08 Eh
 * total energy  :  -135.9655387 Eh     change        0.5222790E-05 Eh
 * total energy  :  -135.9655444 Eh     change       -0.5644800E-05 Eh
 * total energy  :  -135.9655445 Eh     change       -0.1574174E-06 Eh
 * total energy  :  -135.9655448 Eh     change       -0.3068183E-06 Eh
 * total energy  :  -135.9655456 Eh     change       -0.8076950E-06 Eh
 * total energy  :  -135.9655465 Eh     change       -0.8843723E-06 Eh
 * total energy  :  -135.9655472 Eh     change       -0.6660341E-06 Eh
 * total energy  :  -135.9655477 Eh     change       -0.5228348E-06 Eh
 * total energy  :  -135.9655482 Eh     change       -0.5086929E-06 Eh
 * total energy  :  -135.9655487 Eh     change       -0.4404486E-06 Eh
 * total energy  :  -135.9655490 Eh     change       -0.2905564E-06 Eh
 * total energy  :  -135.9655493 Eh     change       -0.3121565E-06 Eh
 * total energy  :  -135.9655496 Eh     change       -0.2865646E-06 Eh
 * total energy  :  -135.9655498 Eh     change       -0.2211877E-06 Eh
 * total energy  :  -135.9655499 Eh     change       -0.1578297E-06 Eh
 * total energy  :  -135.9655500 Eh     change       -0.1147976E-06 Eh
 * total energy  :  -135.9655501 Eh     change       -0.8254855E-07 Eh
   *** GEOMETRY OPTIMIZATION CONVERGED AFTER 18 ITERATIONS ***

 final structure:
================
70
 xtb: 6.7.1 (edcfbbe)
N           -9.82893407364692        4.08642166067512       -0.10236125951304
C           -8.98880353834300        3.31536184661788        0.00719179556129
C           -7.95274861179681        2.36376116853221        0.15533712577983
C           -7.68918136376834        1.80135047742588        1.40732526035379
C           -6.66339221680097        0.89548729268897        1.54604061213157
C           -5.87310457670401        0.51663809249371        0.45483134119188
N           -4.82603753276447       -0.37114807593822        0.66721720630842
C           -4.95016220305961       -1.62415191316282        1.25016184724527
C           -6.09118577156305       -2.28804383888564        1.66992985690667
C           -5.93858056453925       -3.56094810027816        2.18910658519048
C           -4.68657046366150       -4.16261548694245        2.27880847346003
C           -3.55023380633187       -3.51063291097695        1.84057281790424
C           -3.67823170828565       -2.23085945613894        1.31915562451393
C           -2.73985436737678       -1.28542491761616        0.77567204491933
C           -1.36401478768483       -1.29942226328236        0.61587909539028
C           -0.73070219832147       -0.17794307427880        0.09355174334720
C            0.72841723363085       -0.17734986949050       -0.09314263806951
C            1.48372145740716        0.95151983546320        0.24601711138825
C            2.85636254530209        0.98560828592232        0.09933143828418
C            3.48240482078947       -0.14844511090839       -0.39003306510651
C            2.73793600279080       -1.28187752097489       -0.77888995262850
C            1.36212234329165       -1.29691599396161       -0.61905859699708
C            3.67653400494962       -2.22539819735923       -1.32526537038841
C            3.54889113065309       -3.50361967850512       -1.85057016637118
C            4.68543157407483       -4.15399607719873       -2.29064722158230
C            5.93729077862264       -3.55230410470367       -2.19896827674658
C            6.08951778003411       -2.28091697052819       -1.67599296090128
C            4.94827344309628       -1.61855321475083       -1.25440700246420
N            4.82381921964790       -0.36731447120883       -0.66770973204776
C            5.87121476270308        0.51968751125583       -0.45344210513964
C            6.66076001712405        0.90119545126253       -1.54427212662412
C            7.68797415639552        1.80515315399582       -1.40372536657146
C            7.95381966469631        2.36287667318847       -0.15013576617998
C            8.99196946898389        3.31183904171464        0.00030458569724
N            9.83379792637253        4.08073124761702        0.11206008897962
C            7.20265815576602        1.97069506262910        0.95357764081355
C            6.17976943991826        1.04396940933399        0.81173019306062
C            5.49603078134834        0.60732058108509        2.08243742747897
F            6.38738442020910        0.49198613821309        3.08443089825502
F            4.58113508321823        1.49565031229798        2.51404438612723
F            4.88044642081186       -0.57601011759253        2.00460312512691
C           -1.48638414907262        0.95171963108277       -0.24209596474294
C           -2.85903894853870        0.98480206711739       -0.09541450198946
C           -3.48465748323720       -0.15104882741701        0.39029398415115
C           -6.17992916598842        1.04509165897321       -0.80904151778376
C           -5.49620316403231        0.61095091020957       -2.08062238306449
F           -6.38766685311862        0.49819857082341       -3.08285502838611
F           -4.58094657074259        1.49980039395644       -2.51034071573666
F           -4.88117907890085       -0.57283434005948       -2.00544552780402
C           -7.20127304573386        1.97380454557172       -0.94894716476106
H           -8.28229348002543        2.09388455250115        2.26058571262227
H           -6.43346158874082        0.47642095694610        2.51378492995455
H           -7.06870508309574       -1.83584284422526        1.58946108221326
H           -6.81066389379326       -4.09955027448214        2.52824814527234
H           -4.60844667805648       -5.15740335937711        2.69071721571329
H           -2.58173007847084       -3.98311833807037        1.89737026287116
H           -0.78842858125233       -2.16016159489255        0.92018199241891
H            0.98070265608932        1.81612748779892        0.65144777665022
H            3.41176900246569        1.87484172320879        0.35619634010972
H            0.78686360677349       -2.15692288488223       -0.92603832096447
H            2.58050001219435       -3.97614297327927       -1.90893583203953
H            4.60759810955460       -5.14754141140513       -2.70559521626951
H            6.80955894816984       -4.08969783008675       -2.53954493106555
H            7.06691823248011       -1.82872281975565       -1.59403025010072
H            6.42926678048917        0.48552515287126       -2.51311118905806
H            8.28058431167695        2.09961671212208       -2.25667100490162
H            7.43033176736761        2.37481060049581        1.92900219175077
H           -0.98366372383628        1.81779260202738       -0.64475322613410
H           -3.41479331004794        1.87463243941614       -0.34946327759714
H           -7.42736821096713        2.38133816168410       -1.92331821871240

          :  Hamiltonian                  GFN2-xTB          :
         :: gradient norm              0.000027928231 Eh/a0 ::
         :: HOMO-LUMO gap              1.873642679753 eV    ::
         :: SCC energy              -138.060716278253 Eh    ::
         :: -> dispersion             -0.101031254937 Eh    ::
         :: repulsion energy           2.095166149276 Eh    ::

    * Orbital Energies and Occupations

         #    Occupation            Energy/Eh            Energy/eV
      -------------------------------------------------------------
         1        2.0000           -0.8884224             -24.1752
       ...           ...                  ...                  ...
       109        2.0000           -0.4416400             -12.0176
       110        2.0000           -0.4372652             -11.8986
       111        2.0000           -0.4365470             -11.8790
       112        2.0000           -0.4345846             -11.8256
       113        2.0000           -0.4333497             -11.7920
       114        2.0000           -0.4289479             -11.6723
       115        2.0000           -0.4283642             -11.6564
       116        2.0000           -0.4207962             -11.4504
       117        2.0000           -0.4126377             -11.2284
       118        2.0000           -0.3938550             -10.7173
       119        2.0000           -0.3912622             -10.6468
       120        2.0000           -0.3864239             -10.5151
       121        2.0000           -0.3734118             -10.1611 (HOMO)
       122                         -0.3045568              -8.2874 (LUMO)
       123                         -0.3039721              -8.2715
       124                         -0.2858352              -7.7780
       125                         -0.2858272              -7.7778
       126                         -0.2577014              -7.0124
       127                         -0.2576812              -7.0119
       128                         -0.2478993              -6.7457
       129                         -0.2299259              -6.2566
       130                         -0.2271478              -6.1810
       131                         -0.2271375              -6.1807
       132                         -0.2225006              -6.0545
       ...                                ...                  ...
       220                          1.1536396              31.3921
      -------------------------------------------------------------
                  HL-Gap            0.0688551 Eh            1.8736 eV

     #   Z          covCN         q      C6AA      α(0)
     1   7 N        0.911    -0.209    25.543     7.310
     2   6 C        1.911     0.114    28.279     8.588
     3   6 C        2.972     0.024    27.472     8.597
     4   6 C        2.923    -0.014    28.367     8.734
     5   6 C        2.924    -0.036    28.904     8.817
     6   6 C        2.909     0.082    26.178     8.390
     7   7 N        2.802    -0.044    22.095     6.981
     8   6 C        3.069     0.048    26.852     8.497
     9   6 C        2.910    -0.050    29.233     8.866
    10   6 C        2.925    -0.031    28.768     8.796
    11   6 C        2.920    -0.037    28.922     8.819
    12   6 C        2.913    -0.030    28.748     8.792
    13   6 C        3.066    -0.010    28.202     8.708
    14   6 C        3.064    -0.011    28.222     8.711
    15   6 C        2.919    -0.036    28.886     8.814
    16   6 C        2.978     0.005    27.898     8.664
    17   6 C        2.978     0.005    27.899     8.664
    18   6 C        2.930    -0.034    28.848     8.808
    19   6 C        2.908    -0.048    29.189     8.859
    20   6 C        3.067     0.048    26.865     8.499
    21   6 C        3.064    -0.011    28.222     8.711
    22   6 C        2.919    -0.036    28.886     8.814
    23   6 C        3.066    -0.010    28.203     8.708
    24   6 C        2.913    -0.030    28.748     8.792
    25   6 C        2.920    -0.037    28.922     8.819
    26   6 C        2.925    -0.031    28.768     8.796
    27   6 C        2.910    -0.050    29.233     8.866
    28   6 C        3.069     0.048    26.852     8.497
    29   7 N        2.802    -0.044    22.095     6.981
    30   6 C        2.909     0.082    26.178     8.390
    31   6 C        2.924    -0.036    28.903     8.816
    32   6 C        2.923    -0.014    28.367     8.734
    33   6 C        2.972     0.024    27.472     8.597
    34   6 C        1.911     0.114    28.279     8.588
    35   7 N        0.911    -0.209    25.542     7.309
    36   6 C        2.931    -0.015    28.386     8.738
    37   6 C        2.972    -0.038    28.939     8.824
    38   6 C        3.337     0.491    17.209     6.568
    39   9 F        0.792    -0.208    11.320     3.974
    40   9 F        0.791    -0.207    11.307     3.972
    41   9 F        0.791    -0.199    11.229     3.958
    42   6 C        2.930    -0.034    28.848     8.808
    43   6 C        2.908    -0.048    29.189     8.859
    44   6 C        3.067     0.048    26.866     8.499
    45   6 C        2.972    -0.038    28.939     8.824
    46   6 C        3.337     0.491    17.209     6.568
    47   9 F        0.792    -0.208    11.320     3.974
    48   9 F        0.791    -0.207    11.307     3.972
    49   9 F        0.791    -0.199    11.229     3.958
    50   6 C        2.931    -0.015    28.385     8.738
    51   1 H        0.926     0.064     2.157     2.296
    52   1 H        0.926     0.066     2.131     2.283
    53   1 H        0.926     0.026     2.647     2.544
    54   1 H        0.926     0.036     2.507     2.476
    55   1 H        0.926     0.036     2.508     2.476
    56   1 H        0.926     0.039     2.467     2.456
    57   1 H        0.926     0.041     2.441     2.443
    58   1 H        0.926     0.040     2.449     2.447
    59   1 H        0.926     0.028     2.611     2.527
    60   1 H        0.926     0.041     2.441     2.443
    61   1 H        0.926     0.039     2.467     2.456
    62   1 H        0.926     0.036     2.508     2.476
    63   1 H        0.926     0.036     2.507     2.476
    64   1 H        0.926     0.026     2.647     2.544
    65   1 H        0.926     0.066     2.131     2.283
    66   1 H        0.926     0.064     2.157     2.296
    67   1 H        0.926     0.071     2.076     2.253
    68   1 H        0.926     0.040     2.449     2.447
    69   1 H        0.926     0.028     2.612     2.527
    70   1 H        0.926     0.071     2.076     2.253

molecular dipole:
                 x           y           z       tot (Debye)
 q only:       -0.001      -0.924      -0.001
   full:       -0.002      -1.367      -0.002       3.474

 projected vibrational frequencies (cm⁻¹)
eigval :       -0.00    -0.00    -0.00     0.00     0.00     0.00
eigval :       10.65    12.21    16.58    24.92    29.09    34.00
eigval :       34.32    43.13    52.30    52.77    56.48    90.82
eigval :       94.08    96.78   101.61   102.88   108.21   111.69
eigval :      121.51   137.97   146.41   146.63   154.87   159.06
eigval :      187.24   205.47   227.30   228.79   230.18   243.92
eigval :      254.66   263.77   280.77   288.10   311.77   317.35
eigval :      319.75   322.28   343.41   343.61   391.96   392.24
eigval :      397.47   399.95   417.78   421.78   429.61   435.28
eigval :      436.85   439.82   443.68   455.89   465.60   473.76
eigval :      496.13   497.26   509.82   510.53   529.00   530.51
eigval :      531.18   536.29   539.63   563.08   563.17   568.39
eigval :      576.06   588.09   598.69   611.96   614.89   615.88
eigval :      618.20   625.14   630.88   642.33   675.51   678.24
eigval :      687.75   694.84   701.08   703.01   707.72   708.18
eigval :      712.79   726.19   769.84   775.93   776.07   817.91
eigval :      833.79   838.17   840.37   845.36   862.21   866.09
eigval :      872.31   872.65   874.93   886.54   886.57   887.65
eigval :      895.39   904.35   904.40   915.72   918.76   922.33
eigval :      922.38   927.61   929.34   929.37   941.12   945.12
eigval :     1013.31  1029.09  1029.15  1030.20  1030.51  1031.22
eigval :     1070.52  1072.48  1073.21  1079.16  1080.32  1117.47
eigval :     1119.89  1147.02  1147.60  1153.88  1160.75  1178.43
eigval :     1178.62  1187.62  1187.85  1193.58  1196.34  1208.82
eigval :     1225.69  1231.86  1232.46  1241.77  1245.06  1255.35
eigval :     1263.88  1264.97  1278.80  1284.66  1294.55  1312.59
eigval :     1316.80  1321.69  1346.72  1351.84  1358.53  1359.60
eigval :     1367.50  1374.83  1401.30  1405.18  1417.26  1421.06
eigval :     1426.58  1434.17  1466.18  1478.82  1479.91  1482.04
eigval :     1482.59  1491.06  1534.92  1534.97  1569.97  1574.99
eigval :     1581.13  1582.16  1586.88  1588.71  1597.61  1600.68
eigval :     1610.00  1615.33  2377.29  2377.67  3077.49  3077.52
eigval :     3085.12  3085.16  3085.32  3086.79  3091.29  3092.59
eigval :     3093.59  3095.56  3095.58  3095.73  3097.64  3097.82
eigval :     3097.88  3100.15  3101.13  3101.38  3106.05  3106.08

   temp. (K)  partition function   enthalpy   heat capacity  entropy
                                   cal/mol     cal/K/mol   cal/K/mol   J/K/mol
 298.15  VIB  0.437E+19            23619.217    144.167    147.805
         ROT  0.593E+08              888.752      2.981     38.548
         INT  0.259E+27            24507.969    147.148    186.353
         TR   0.168E+29             1481.254      4.968     45.370
         TOT                       25989.2234   152.1163   231.7229   969.5286

       T/K    H(0)-H(T)+PV         H(T)/Eh          T*S/Eh         G(T)/Eh
   ------------------------------------------------------------------------
    298.15    0.414165E-01    0.524384E+00    0.110099E+00    0.414285E+00
   ------------------------------------------------------------------------

         :::::::::::::::::::::::::::::::::::::::::::::::::::::
         ::                  THERMODYNAMIC                  ::
         :::::::::::::::::::::::::::::::::::::::::::::::::::::
         :: total free energy        -135.551265264383 Eh   ::
         ::.................................................::
         :: total energy             -135.965550128979 Eh   ::
         :: zero point energy           0.482967423046 Eh   ::
         :: G(RRHO) w/o ZPVE           -0.068682558451 Eh   ::
         :: G(RRHO) contrib.            0.414284864595 Eh   ::
         :::::::::::::::::::::::::::::::::::::::::::::::::::::

           -------------------------------------------------
          | TOTAL ENERGY             -135.965550128979 Eh   |
          | TOTAL ENTHALPY           -135.441166242234 Eh   |
          | TOTAL FREE ENERGY        -135.551265264383 Eh   |
          | GRADIENT NORM               0.000027884624 Eh/α |
          | HOMO-LUMO GAP               1.873642276740 eV   |
           -------------------------------------------------

 * finished run on 2025/07/16 at 15:26:15.317
