   * xtb version 6.7.1 (edcfbbe) compiled by 'albert@albert-system' on 2024-07-22

   ID    Z sym.   atoms
    1    7 N      1, 7, 29, 35
    2    6 C      2-6, 8-28, 30-34, 36-38, 42-46, 50
    3    9 F      39-41, 47-49
    4    1 H      51-70

          program call               : xtb data2507/gas/pCNBCzoCF3/pCNBCzoCF3_gas_T1_crest.xyz --gfn 2 --spinpol --tblite --uhf 2 --ohess vtight --parallel 40 --molden --ceasefiles --namespace data2507/gas/pCNBCzoCF3/pCNBCzoCF3_gas_T1_finalOpt
 * total energy  :  -135.8817131 Eh     change       -0.4401863E-07 Eh
 * total energy  :  -135.8817139 Eh     change       -0.7930328E-06 Eh
 * total energy  :  -135.8817129 Eh     change        0.1014113E-05 Eh
 * total energy  :  -135.8817155 Eh     change       -0.2663917E-05 Eh
 * total energy  :  -135.8817140 Eh     change        0.1481445E-05 Eh
 * total energy  :  -135.8817160 Eh     change       -0.1959199E-05 Eh
 * total energy  :  -135.8817150 Eh     change        0.1011136E-05 Eh
 * total energy  :  -135.8817161 Eh     change       -0.1092619E-05 Eh
 * total energy  :  -135.8817165 Eh     change       -0.4101002E-06 Eh
 * total energy  :  -135.8817172 Eh     change       -0.6629140E-06 Eh
 * total energy  :  -135.8817248 Eh     change       -0.1957324E-06 Eh
 * total energy  :  -135.8817249 Eh     change       -0.8911064E-07 Eh
 * total energy  :  -135.8817250 Eh     change       -0.1086821E-06 Eh
 * total energy  :  -135.8817252 Eh     change       -0.1619641E-06 Eh
 * total energy  :  -135.8817252 Eh     change       -0.6077306E-07 Eh
 * total energy  :  -135.8817254 Eh     change       -0.1637785E-06 Eh
 * total energy  :  -135.8817254 Eh     change        0.1779620E-07 Eh
 * total energy  :  -135.8817255 Eh     change       -0.1483945E-06 Eh
 * total energy  :  -135.8817256 Eh     change       -0.9751403E-07 Eh
   *** GEOMETRY OPTIMIZATION CONVERGED AFTER 34 ITERATIONS ***

 final structure:
================
70
 xtb: 6.7.1 (edcfbbe)
N           -9.83475270562097        4.10774137682057        0.01760318502703
C           -8.98576645178270        3.33531878723252        0.11073524356015
C           -7.95324374102418        2.39710700274902        0.23665210365797
C           -7.66005316923855        1.81727690034708        1.49365148750063
C           -6.63950680537106        0.91271820972828        1.60888594640200
C           -5.86103656239615        0.54765813693088        0.49938677620071
N           -4.80388781835419       -0.35378008414591        0.68056147785024
C           -4.95427033335827       -1.66254222626009        1.11576314522902
C           -6.11249857338782       -2.34027648395023        1.45524028295509
C           -5.98771212709481       -3.66461132314263        1.84563844634531
C           -4.74806161734558       -4.29146427962096        1.88817976236705
C           -3.58938463347508       -3.61754624613092        1.53200480883530
C           -3.69077400588766       -2.29339339808419        1.14015596996606
C           -2.73597589277952       -1.30698286585973        0.69780032895098
C           -1.37673548449934       -1.32351607792298        0.50937032887175
C           -0.71464777452388       -0.14610942504458        0.10158793035775
C            0.71288578309934       -0.14700895422650       -0.09787456413852
C            1.47808278970290        1.03287954348047        0.09434603836122
C            2.83847937427232        1.05881622837874       -0.06376994735099
C            3.48157534859348       -0.12324713963420       -0.44118835962898
C            2.73269087775194       -1.31046132723670       -0.69430236160116
C            1.37352138269211       -1.32538985506189       -0.50523034487635
C            3.68620102230601       -2.29815815676526       -1.13662348002712
C            3.58338893780459       -3.62263212915410       -1.52700285045400
C            4.74119849117777       -4.29789214432860       -1.88348497059981
C            5.98140612864186       -3.67202882880647       -1.84278073564657
C            6.10763148436334       -2.34741495759602       -1.45382311130030
C            4.95027297704215       -1.66841179382797       -1.11389111619477
N            4.80152156941901       -0.35919787514384       -0.67952500212384
C            5.85981532083681        0.54134829677223       -0.50043065094852
C            6.63706563165967        0.90480288709460       -1.61124814505110
C            7.65877046884130        1.80832831412626       -1.49807332340244
C            7.95440810493492        2.38859188437525       -0.24198376879120
C            8.98802470736383        3.32604193887450       -0.11818843328110
N            9.83835143143121        4.09718060779685       -0.02675050812756
C            7.21146758372882        1.99984557033783        0.88149782439700
C            6.18556805288077        1.08619135938096        0.76615556606862
C            5.48515120537984        0.65662681661777        2.02190648838459
F            6.30168381462718        0.68108065534882        3.08604211875300
F            4.44179635736384        1.45185325392921        2.34765791640235
F            4.98990475100575       -0.59322436522997        1.96827614622714
C           -1.47844281853062        1.03458721964375       -0.09136122906738
C           -2.83890172386453        1.06205561437700        0.06596655888667
C           -3.48349166832988       -0.11919727963108        0.44336182164146
C           -6.18430903140824        1.09211270541449       -0.76810440087893
C           -5.48258682145129        0.66098319600537       -2.02259469743956
F           -6.29757370174336        0.68570796376754       -3.08790444687349
F           -4.43788623153707        1.45483274711897       -2.34738311258301
F           -4.98883382691331       -0.58939534248124       -1.96752305210559
C           -7.20897578242288        2.00687026458517       -0.88554000529329
H           -8.24428535495402        2.10291455563870        2.35449148932852
H           -6.39577658707017        0.48036078533380        2.56804193690481
H           -7.07710337598652       -1.85841890433031        1.41190817286936
H           -6.87231076053357       -4.21923103179411        2.11835778918803
H           -4.68876075977835       -5.32336888822917        2.19891923847684
H           -2.63115152524191       -4.11282697026034        1.55876986133292
H           -0.81306043910271       -2.21726407215248        0.72571640749689
H            0.97847081653524        1.93189715039270        0.41639295634134
H            3.39686838520319        1.96767577900923        0.09719873074681
H            0.80876603271261       -2.21865440510422       -0.72077906699667
H            2.62474838955986       -4.11720589747128       -1.55235507254768
H            4.68078282472868       -5.33010783687251       -2.19298285413252
H            6.86530030752231       -4.22766075153197       -2.11572717222722
H            7.07263941369354       -1.86625263649894       -1.41186507625683
H            6.39147338418091        0.47204919166519       -2.56975758394229
H            8.24210223513573        2.09274551366190       -2.35994271910461
H            7.46218335477260        2.40970348638907        1.84860084335137
H           -0.97768338051000        1.93296350965494       -0.41340349981579
H           -3.39619748907404        1.97148075438420       -0.09562197970837
H           -7.45777639167364        2.41636001856745       -1.85328286501644

 projected vibrational frequencies (cm⁻¹)
eigval :       -0.00    -0.00    -0.00     0.00     0.00     0.00
eigval :       10.57    11.54    16.39    20.82    23.83    29.92
eigval :       31.02    46.25    48.02    49.10    54.02    89.72
eigval :       90.36    94.48   102.26   103.58   106.33   108.00
eigval :      116.07   134.20   141.83   144.28   152.61   156.60
eigval :      181.79   206.72   224.18   225.74   231.04   243.55
eigval :      249.64   260.55   273.47   286.62   305.58   319.29
eigval :      324.77   325.38   341.37   344.83   364.30   383.89
eigval :      386.78   392.69   401.96   402.35   417.19   423.29
eigval :      426.35   432.47   432.95   442.31   452.91   474.43
eigval :      487.68   489.10   492.69   493.26   526.81   529.28
eigval :      534.60   543.44   544.43   560.12   563.41   568.33
eigval :      569.19   579.91   586.52   586.67   598.42   603.58
eigval :      610.43   616.29   625.57   636.69   659.14   663.11
eigval :      674.09   676.07   686.62   688.60   700.62   706.66
eigval :      706.67   716.98   765.24   773.42   773.54   808.88
eigval :      808.98   810.86   830.57   835.19   846.86   855.24
eigval :      858.81   865.39   868.66   868.81   872.46   873.03
eigval :      888.40   901.12   903.31   903.94   908.86   909.46
eigval :      912.81   917.74   921.96   921.97   925.84   926.60
eigval :     1003.29  1004.12  1005.31  1019.31  1026.84  1028.39
eigval :     1035.00  1056.86  1058.56  1067.22  1068.21  1106.78
eigval :     1110.81  1136.23  1141.61  1145.79  1147.15  1174.81
eigval :     1175.11  1185.67  1186.56  1188.88  1190.84  1208.09
eigval :     1211.78  1217.08  1217.84  1226.74  1235.69  1240.26
eigval :     1248.88  1257.62  1260.74  1276.10  1277.98  1290.26
eigval :     1329.14  1329.89  1334.33  1340.75  1348.12  1348.72
eigval :     1353.23  1356.48  1357.33  1367.94  1387.56  1393.95
eigval :     1413.18  1414.69  1426.21  1427.78  1441.01  1443.64
eigval :     1454.00  1457.66  1469.16  1479.36  1489.21  1492.25
eigval :     1519.29  1539.15  1567.77  1577.19  1577.97  1578.35
eigval :     1585.52  1591.55  2299.91  2314.96  3086.88  3086.94
eigval :     3088.91  3088.95  3092.64  3092.72  3097.28  3097.44
eigval :     3097.56  3098.42  3098.92  3099.48  3099.54  3103.42
eigval :     3104.41  3104.68  3105.94  3106.17  3112.84  3117.49

   temp. (K)  partition function   enthalpy   heat capacity  entropy
                                   cal/mol     cal/K/mol   cal/K/mol   J/K/mol
 298.15  VIB  0.152E+20            23977.242    145.813    150.257
         ROT  0.587E+08              888.752      2.981     38.529
         INT  0.890E+27            24865.994    148.794    188.786
         TR   0.168E+29             1481.254      4.968     45.370
         TOT                       26347.2481   153.7621   234.1561   979.7092

       T/K    H(0)-H(T)+PV         H(T)/Eh          T*S/Eh         G(T)/Eh
   ------------------------------------------------------------------------
    298.15    0.419870E-01    0.519863E+00    0.111255E+00    0.408608E+00
   ------------------------------------------------------------------------

         :::::::::::::::::::::::::::::::::::::::::::::::::::::
         ::                  THERMODYNAMIC                  ::
         :::::::::::::::::::::::::::::::::::::::::::::::::::::
         :: total free energy        -135.473117579749 Eh   ::
         ::.................................................::
         :: total energy             -135.881725623395 Eh   ::
         :: zero point energy           0.477876158804 Eh   ::
         :: G(RRHO) w/o ZPVE           -0.069268115159 Eh   ::
         :: G(RRHO) contrib.            0.408608043646 Eh   ::
         :::::::::::::::::::::::::::::::::::::::::::::::::::::

           -------------------------------------------------
          | TOTAL ENERGY             -135.881725623395 Eh   |
          | TOTAL ENTHALPY           -135.361862452230 Eh   |
          | TOTAL FREE ENERGY        -135.473117579749 Eh   |
          | GRADIENT NORM               0.000200951974 Eh/α |
           -------------------------------------------------

 * finished run on 2025/07/16 at 15:32:03.949
