   * xtb version 6.7.1 (edcfbbe) compiled by 'albert@albert-system' on 2024-07-22

   ID    Z sym.   atoms
    1    7 N      1, 7, 29, 35
    2    6 C      2-6, 8-28, 30-34, 36-38, 42-46, 50
    3    9 F      39-41, 47-49
    4    1 H      51-70

          program call               : xtb data2507/gas/pCNBCzoCF3/pCNBCzoCF3.xyz --gfn 2 --ohess vtight --parallel 40 --molden --ceasefiles --namespace data2507/gas/pCNBCzoCF3/pCNBCzoCF3_gas_S0_preOpt
          :  Hamiltonian                  GFN2-xTB          :
 * total energy  :  -135.9441669 Eh     change       -0.3860464E-08 Eh
 * total energy  :  -135.9597169 Eh     change       -0.1555000E-01 Eh
 * total energy  :  -135.9631942 Eh     change       -0.3477346E-02 Eh
 * total energy  :  -135.9631696 Eh     change        0.2461408E-04 Eh
 * total energy  :  -135.9640711 Eh     change       -0.9014511E-03 Eh
 * total energy  :  -135.9640897 Eh     change       -0.1862488E-04 Eh
 * total energy  :  -135.9643629 Eh     change       -0.2732177E-03 Eh
 * total energy  :  -135.9644561 Eh     change       -0.9318640E-04 Eh
 * total energy  :  -135.9645428 Eh     change       -0.8671032E-04 Eh
 * total energy  :  -135.9646430 Eh     change       -0.1001941E-03 Eh
 * total energy  :  -135.9653313 Eh     change       -0.3846950E-06 Eh
 * total energy  :  -135.9653316 Eh     change       -0.2824659E-06 Eh
 * total energy  :  -135.9653320 Eh     change       -0.3316596E-06 Eh
 * total energy  :  -135.9653323 Eh     change       -0.3511979E-06 Eh
 * total energy  :  -135.9653328 Eh     change       -0.4475352E-06 Eh
 * total energy  :  -135.9653332 Eh     change       -0.4024957E-06 Eh
 * total energy  :  -135.9653334 Eh     change       -0.2518923E-06 Eh
 * total energy  :  -135.9653336 Eh     change       -0.1464421E-06 Eh
 * total energy  :  -135.9653336 Eh     change       -0.8063125E-07 Eh
   *** GEOMETRY OPTIMIZATION CONVERGED AFTER 67 ITERATIONS ***

 final structure:
================
70
 xtb: 6.7.1 (edcfbbe)
N          -10.02149327717836        3.24692297193740        2.27902535954734
C           -9.16400650482234        2.60684011915479        1.87008063220608
C           -8.10697722862857        1.80756030276369        1.37523547004784
C           -7.93688592120122        0.50116028208018        1.84163451624322
C           -6.89031091342566       -0.25928289991894        1.37412476962027
C           -5.98672610368186        0.24532496451661        0.43200946955319
N           -4.92536799839947       -0.55678268513336        0.03156945042869
C           -5.04645504142891       -1.83526678662790       -0.49372055836154
C           -6.19040983981621       -2.55315459181611       -0.80181582047505
C           -6.02939354456283       -3.80850753252324       -1.35965251343681
C           -4.76522080302292       -4.33249665879770       -1.61451386025807
C           -3.62366420065851       -3.60952753309687       -1.32732755817071
C           -3.76024337745171       -2.34862950905331       -0.76373027075956
C           -2.81909180226271       -1.34099351817476       -0.35316363369097
C           -1.43479843683793       -1.28740296474149       -0.33474351431424
C           -0.80754467285008       -0.15580934605269        0.17191567051689
C            0.66020729707409       -0.05988034236897        0.19076489916607
C            1.43191191433620       -1.16872258423977        0.55934950200344
C            2.81150985714790       -1.12054315360293        0.59857633493483
C            3.42665017645875        0.07424364818591        0.26178276623958
C            2.67081717041719        1.19738277999395       -0.13533888632046
C            1.28747483236218        1.12862786209023       -0.16387365305956
C            3.61314152913694        2.23918793315870       -0.44595146728645
C            3.47478021289165        3.56052203404421       -0.84680491024096
C            4.61480555854990        4.32195704579133       -1.01612407076937
C            5.87629411476400        3.78926937213904       -0.76766860153870
C            6.03825510090826        2.47607692294792       -0.36504763858382
C            4.89941356035595        1.69953800429225       -0.23481740802660
N            4.77637498843951        0.38010510101120        0.18012902959353
C            5.81025377519051       -0.47909641823067        0.52983249134478
C            5.81241683096976       -1.03770655847165        1.81325462353727
C            6.83083247638110       -1.86056278540102        2.23460366427430
C            7.89197410662496       -2.14793401239896        1.37161980861096
C            8.95726797678563       -2.97137403456098        1.80505544747262
N            9.81617022279350       -3.63770144145722        2.16657876004806
C            7.88975100303577       -1.63258750474499        0.07906544285546
C            6.85084723626994       -0.81853749098982       -0.34902179130207
C            6.88611172752441       -0.39990038891494       -1.79703469062944
F            7.31794991164311       -1.41305180494477       -2.57130137019044
F            5.70265709880303       -0.03638306487922       -2.29887642970023
F            7.73753604045787        0.61708000172101       -2.02550915729577
C           -1.57970040253785        0.89539766906802        0.68160500578055
C           -2.95970004778496        0.85802820683562        0.68203966325091
C           -3.57562708456011       -0.25397430578023        0.13257229574373
C           -6.19786516710509        1.53839172112953       -0.07203404772143
C           -5.38176598864478        2.13886933877094       -1.18857396276083
F           -6.17056609529555        2.82765695223009       -2.03392597724361
F           -4.46603641804961        3.02251757747761       -0.74889167638231
F           -4.73012324713386        1.24793028591850       -1.94113212097687
C           -7.24077763878721        2.31523066826004        0.41178483022078
H           -8.61865072474252        0.10313146806203        2.57796599603497
H           -6.73342357015580       -1.25937145512152        1.74859962115929
H           -7.17560313802171       -2.14826345190027       -0.62317121465886
H           -6.90396723922122       -4.39155155114276       -1.60616873283220
H           -4.68088619458153       -5.31592075529948       -2.05165107866002
H           -2.64438559270270       -4.00966790231034       -1.54042532118943
H           -0.85366291329157       -2.10808513374106       -0.72639539557132
H            0.93109350867303       -2.08365535695466        0.83851207600173
H            3.38588596707068       -1.99137089645388        0.87860773342118
H            0.70582266563939        1.97945875332126       -0.48349510165927
H            2.49512662163171        3.98013847650268       -1.01638979743016
H            4.53001745332647        5.35028096475661       -1.33347589125444
H            6.74905247007967        4.41297365346141       -0.88693516593267
H            7.02116240981583        2.08268378850473       -0.15470438007323
H            5.00261657309550       -0.78682353745834        2.48134684314421
H            6.82603680092969       -2.27321482164677        3.23218258692029
H            8.69085169292376       -1.88347272766772       -0.60054949307307
H           -1.07949178813218        1.75081349586428        1.10976027887978
H           -3.52903465055716        1.67001007857623        1.10831920966393
H           -7.39321231495057        3.31189106205257        0.02445391340702

          :  Hamiltonian                  GFN2-xTB          :
         :: gradient norm              0.000162618468 Eh/a0 ::
         :: HOMO-LUMO gap              1.869557962164 eV    ::
         :: SCC energy              -138.060544751756 Eh    ::
         :: -> dispersion             -0.101039326602 Eh    ::
         :: repulsion energy           2.095211109724 Eh    ::

    * Orbital Energies and Occupations

         #    Occupation            Energy/Eh            Energy/eV
      -------------------------------------------------------------
         1        2.0000           -0.8892386             -24.1974
       ...           ...                  ...                  ...
       109        2.0000           -0.4419925             -12.0272
       110        2.0000           -0.4381353             -11.9223
       111        2.0000           -0.4360930             -11.8667
       112        2.0000           -0.4352146             -11.8428
       113        2.0000           -0.4347362             -11.8298
       114        2.0000           -0.4291367             -11.6774
       115        2.0000           -0.4284250             -11.6580
       116        2.0000           -0.4225750             -11.4989
       117        2.0000           -0.4127832             -11.2324
       118        2.0000           -0.3944453             -10.7334
       119        2.0000           -0.3917597             -10.6603
       120        2.0000           -0.3870995             -10.5335
       121        2.0000           -0.3742989             -10.1852 (HOMO)
       122                         -0.3055940              -8.3156 (LUMO)
       123                         -0.3041102              -8.2753
       124                         -0.2870729              -7.8117
       125                         -0.2857090              -7.7745
       126                         -0.2592600              -7.0548
       127                         -0.2573909              -7.0040
       128                         -0.2492810              -6.7833
       129                         -0.2301045              -6.2615
       130                         -0.2282382              -6.2107
       131                         -0.2271491              -6.1810
       132                         -0.2222813              -6.0486
       ...                                ...                  ...
       220                          1.1535784              31.3905
      -------------------------------------------------------------
                  HL-Gap            0.0687049 Eh            1.8696 eV

     #   Z          covCN         q      C6AA      α(0)
     1   7 N        0.911    -0.208    25.533     7.308
     2   6 C        1.911     0.114    28.279     8.588
     3   6 C        2.972     0.024    27.469     8.597
     4   6 C        2.923    -0.014    28.368     8.734
     5   6 C        2.924    -0.036    28.906     8.817
     6   6 C        2.909     0.082    26.180     8.390
     7   7 N        2.802    -0.044    22.093     6.981
     8   6 C        3.069     0.048    26.852     8.497
     9   6 C        2.910    -0.050    29.230     8.865
    10   6 C        2.925    -0.031    28.765     8.795
    11   6 C        2.920    -0.037    28.920     8.819
    12   6 C        2.913    -0.030    28.748     8.792
    13   6 C        3.066    -0.010    28.207     8.709
    14   6 C        3.064    -0.011    28.226     8.712
    15   6 C        2.919    -0.036    28.893     8.815
    16   6 C        2.978     0.005    27.911     8.666
    17   6 C        2.978     0.004    27.926     8.668
    18   6 C        2.930    -0.037    28.915     8.819
    19   6 C        2.908    -0.051    29.257     8.869
    20   6 C        3.069     0.046    26.899     8.504
    21   6 C        3.063    -0.011    28.218     8.711
    22   6 C        2.919    -0.036    28.894     8.815
    23   6 C        3.067    -0.010    28.205     8.708
    24   6 C        2.913    -0.030    28.741     8.791
    25   6 C        2.920    -0.036    28.895     8.815
    26   6 C        2.925    -0.028    28.707     8.787
    27   6 C        2.910    -0.047    29.169     8.856
    28   6 C        3.067     0.049    26.824     8.493
    29   7 N        2.802    -0.044    22.094     6.981
    30   6 C        2.909     0.082    26.178     8.390
    31   6 C        2.924    -0.037    28.909     8.817
    32   6 C        2.923    -0.014    28.371     8.735
    33   6 C        2.972     0.024    27.475     8.598
    34   6 C        1.911     0.114    28.280     8.588
    35   7 N        0.911    -0.209    25.549     7.311
    36   6 C        2.931    -0.015    28.384     8.737
    37   6 C        2.972    -0.038    28.934     8.823
    38   6 C        3.337     0.491    17.208     6.568
    39   9 F        0.792    -0.208    11.321     3.975
    40   9 F        0.791    -0.199    11.224     3.958
    41   9 F        0.791    -0.206    11.301     3.971
    42   6 C        2.930    -0.034    28.853     8.809
    43   6 C        2.908    -0.048    29.189     8.859
    44   6 C        3.068     0.048    26.865     8.499
    45   6 C        2.972    -0.038    28.935     8.823
    46   6 C        3.337     0.491    17.209     6.568
    47   9 F        0.792    -0.208    11.316     3.974
    48   9 F        0.791    -0.207    11.307     3.972
    49   9 F        0.791    -0.199    11.226     3.958
    50   6 C        2.931    -0.015    28.384     8.737
    51   1 H        0.926     0.064     2.157     2.297
    52   1 H        0.926     0.065     2.136     2.286
    53   1 H        0.926     0.026     2.643     2.542
    54   1 H        0.926     0.036     2.502     2.474
    55   1 H        0.926     0.036     2.505     2.475
    56   1 H        0.926     0.038     2.472     2.459
    57   1 H        0.926     0.040     2.453     2.449
    58   1 H        0.926     0.037     2.495     2.470
    59   1 H        0.926     0.026     2.642     2.542
    60   1 H        0.926     0.042     2.421     2.433
    61   1 H        0.926     0.039     2.462     2.454
    62   1 H        0.926     0.037     2.495     2.470
    63   1 H        0.926     0.039     2.465     2.455
    64   1 H        0.926     0.027     2.622     2.532
    65   1 H        0.926     0.065     2.140     2.288
    66   1 H        0.926     0.063     2.162     2.300
    67   1 H        0.926     0.071     2.074     2.252
    68   1 H        0.926     0.040     2.451     2.448
    69   1 H        0.926     0.028     2.610     2.526
    70   1 H        0.926     0.071     2.072     2.251

molecular dipole:
                 x           y           z       tot (Debye)
 q only:       -0.853      -0.923       1.729
   full:       -0.847      -0.903       1.448       4.843

 projected vibrational frequencies (cm⁻¹)
eigval :       -0.00    -0.00     0.00     0.00     0.00     0.00
eigval :        8.99    14.50    16.67    23.21    27.36    32.69
eigval :       38.62    42.38    51.66    53.00    58.88    88.52
eigval :       90.40   101.35   106.17   107.08   112.53   114.01
eigval :      118.37   122.91   139.69   151.28   156.21   171.40
eigval :      184.35   189.12   219.98   227.61   230.69   244.06
eigval :      258.60   277.81   283.09   284.76   305.35   317.97
eigval :      320.68   328.22   341.73   342.41   390.23   393.93
eigval :      397.36   400.36   420.40   425.23   429.24   432.46
eigval :      436.79   439.92   442.69   455.79   464.24   476.65
eigval :      496.71   498.18   509.68   511.90   524.79   530.74
eigval :      532.66   535.32   537.06   554.80   563.19   572.20
eigval :      578.00   587.68   604.48   608.20   615.44   615.93
eigval :      620.22   624.93   631.12   640.99   676.07   678.32
eigval :      687.64   691.18   700.99   706.04   707.68   708.65
eigval :      713.02   724.90   766.92   775.92   779.19   814.39
eigval :      834.51   837.01   839.88   845.30   862.21   867.54
eigval :      872.50   876.88   879.55   881.52   886.56   886.63
eigval :      895.56   904.37   908.36   910.95   920.50   922.38
eigval :      925.05   926.35   929.20   929.33   941.05   944.77
eigval :     1013.36  1028.86  1028.95  1030.45  1031.19  1031.32
eigval :     1070.76  1072.53  1073.26  1079.79  1080.67  1117.61
eigval :     1120.14  1146.78  1147.74  1155.83  1157.57  1177.78
eigval :     1178.56  1187.64  1187.93  1193.19  1194.15  1208.68
eigval :     1228.99  1231.63  1232.93  1240.87  1244.91  1255.46
eigval :     1263.93  1264.52  1273.33  1286.72  1296.71  1312.72
eigval :     1316.75  1321.15  1344.92  1355.10  1358.68  1359.10
eigval :     1367.64  1377.95  1401.38  1404.09  1416.74  1421.97
eigval :     1427.20  1435.99  1456.99  1479.07  1480.01  1481.13
eigval :     1481.87  1498.26  1534.97  1535.10  1569.33  1573.85
eigval :     1581.26  1582.20  1587.15  1588.79  1597.65  1600.96
eigval :     1610.01  1615.14  2377.31  2377.94  3076.35  3077.88
eigval :     3084.35  3085.34  3085.46  3088.04  3090.92  3092.78
eigval :     3094.89  3095.21  3095.36  3095.50  3096.67  3097.84
eigval :     3097.94  3098.72  3101.34  3102.95  3105.68  3105.95

   temp. (K)  partition function   enthalpy   heat capacity  entropy
                                   cal/mol     cal/K/mol   cal/K/mol   J/K/mol
 298.15  VIB  0.458E+19            23622.243    144.212    147.899
         ROT  0.120E+09              888.752      2.981     39.950
         INT  0.550E+27            24510.995    147.193    187.850
         TR   0.168E+29             1481.254      4.968     45.370
         TOT                       25992.2489   152.1611   233.2195   975.7904

       T/K    H(0)-H(T)+PV         H(T)/Eh          T*S/Eh         G(T)/Eh
   ------------------------------------------------------------------------
    298.15    0.414213E-01    0.524386E+00    0.110810E+00    0.413576E+00
   ------------------------------------------------------------------------

         :::::::::::::::::::::::::::::::::::::::::::::::::::::
         ::                  THERMODYNAMIC                  ::
         :::::::::::::::::::::::::::::::::::::::::::::::::::::
         :: total free energy        -135.551758057696 Eh   ::
         ::.................................................::
         :: total energy             -135.965333642021 Eh   ::
         :: zero point energy           0.482964412557 Eh   ::
         :: G(RRHO) w/o ZPVE           -0.069388828232 Eh   ::
         :: G(RRHO) contrib.            0.413575584325 Eh   ::
         :::::::::::::::::::::::::::::::::::::::::::::::::::::

           -------------------------------------------------
          | TOTAL ENERGY             -135.965333642021 Eh   |
          | TOTAL ENTHALPY           -135.440947944263 Eh   |
          | TOTAL FREE ENERGY        -135.551758057696 Eh   |
          | GRADIENT NORM               0.000162276942 Eh/α |
          | HOMO-LUMO GAP               1.869554987795 eV   |
           -------------------------------------------------

 * finished run on 2025/07/16 at 15:22:38.895
