   * xtb version 6.7.1 (edcfbbe) compiled by 'albert@albert-system' on 2024-07-22

   ID    Z sym.   atoms
    1    7 N      1, 7, 29, 35
    2    6 C      2-6, 8-28, 30-34, 36-38, 42-46, 50
    3    9 F      39-41, 47-49
    4    1 H      51-70

          program call               : xtb data2507/gas/pCNBCzoCF3/pCNBCzoCF3_gas_S0_finalOpt.xtbopt.xyz --gfn 2 --spinpol --tblite --uhf 2 --ohess vtight --parallel 40 --molden --ceasefiles --namespace data2507/gas/pCNBCzoCF3/pCNBCzoCF3_gas_T1_preOpt
 * total energy  :  -135.8763202 Eh     change        0.7165994E-07 Eh
 * total energy  :  -135.8795319 Eh     change       -0.3211757E-02 Eh
 * total energy  :  -135.8805476 Eh     change       -0.1015626E-02 Eh
 * total energy  :  -135.8805361 Eh     change        0.1148623E-04 Eh
 * total energy  :  -135.8808700 Eh     change       -0.3339663E-03 Eh
 * total energy  :  -135.8809765 Eh     change       -0.1064339E-03 Eh
 * total energy  :  -135.8811163 Eh     change       -0.1397945E-03 Eh
 * total energy  :  -135.8812057 Eh     change       -0.8940937E-04 Eh
 * total energy  :  -135.8812544 Eh     change       -0.4876522E-04 Eh
 * total energy  :  -135.8813836 Eh     change       -0.1291441E-03 Eh
 * total energy  :  -135.8817158 Eh     change       -0.2235867E-06 Eh
 * total energy  :  -135.8817159 Eh     change       -0.1990544E-06 Eh
 * total energy  :  -135.8817161 Eh     change       -0.1933647E-06 Eh
 * total energy  :  -135.8817163 Eh     change       -0.1564722E-06 Eh
 * total energy  :  -135.8817165 Eh     change       -0.1617780E-06 Eh
 * total energy  :  -135.8817167 Eh     change       -0.1966463E-06 Eh
 * total energy  :  -135.8817168 Eh     change       -0.1136269E-06 Eh
 * total energy  :  -135.8817169 Eh     change       -0.1718325E-06 Eh
 * total energy  :  -135.8817170 Eh     change       -0.9626393E-07 Eh
   *** GEOMETRY OPTIMIZATION CONVERGED AFTER 144 ITERATIONS ***

 final structure:
================
70
 xtb: 6.7.1 (edcfbbe)
N           -9.84434711547332        4.09618614630172        0.04548950065675
C           -8.99219023509896        3.32750243239024        0.14066604575401
C           -7.95627495159935        2.39344931007271        0.26897411957266
C           -7.65189981336624        1.82819959130628        1.53000271682703
C           -6.62825457040642        0.92740322182341        1.64733153684690
C           -5.85740954827852        0.55233286097140        0.53594115601961
N           -4.79697896567925       -0.34532341443973        0.71764699195806
C           -4.94172337819026       -1.65172214138775        1.16148860613019
C           -6.09601826584344       -2.32890411512730        1.51516339481145
C           -5.96595915548500       -3.65066273136518        1.91250641178991
C           -4.72506743315640       -4.27551530108596        1.94802687670120
C           -3.57043949098454       -3.60219594291268        1.57778295800343
C           -3.67708044652731       -2.28056818487662        1.17885836832083
C           -2.72756169906451       -1.29520933941872        0.72310598855919
C           -1.36991569116615       -1.31056605045307        0.52261357362721
C           -0.71368655209660       -0.13361599076144        0.10530823506692
C            0.71254034870061       -0.13324471269452       -0.10561249415870
C            1.47885899685319        1.04517780627311        0.08883357328935
C            2.83833751099281        1.07138508557216       -0.07800681555574
C            3.47775724186045       -0.10815263080556       -0.46905443408181
C            2.72653287432376       -1.29291767008908       -0.72660758387443
C            1.36890016095990       -1.30898683241744       -0.52608776684960
C            3.67612098355521       -2.27690990290708       -1.18514500308670
C            3.56957273775734       -3.59742696590089       -1.58775750174872
C            4.72423019547275       -4.26958235507680       -1.96001426353184
C            5.96506026704370       -3.64470139921902       -1.92286474472512
C            6.09502521529037       -2.32405111372398       -1.52181816038242
C            4.94069548060304       -1.64798168499084       -1.16613939490882
N            4.79584819129455       -0.34282152859108       -0.71866686072270
C            5.85625526965506        0.55434545747098       -0.53446938213596
C            6.62718338105828        0.93238554371955       -1.64479334000770
C            7.65093565434644        1.83272757733909       -1.52495898073234
C            7.95533433163877        2.39447193973267       -0.26235877441791
C            8.99135098733606        3.32802729067094       -0.13146868739790
N            9.84359984091383        4.09635357983806       -0.03416423955610
C            7.21843691297190        1.99100836999175        0.86006146093105
C            6.19039152601919        1.08079007754529        0.73786582344817
C            5.49580214074069        0.63435083608052        1.99090977006948
F            6.31584659714182        0.64798647161361        3.05243224602836
F            4.45131333259062        1.42262609445064        2.32986156564593
F            5.00356073676565       -0.61613837096082        1.92376232769326
C           -1.48014323478097        1.04521695664511       -0.08604373759459
C           -2.83962956030507        1.07081413104211        0.08082583977288
C           -3.47890563527890       -0.10983511687915        0.46873656931568
C           -6.19154424590535        1.08230422770592       -0.73492333517966
C           -5.49704654079456        0.63930646198406       -1.98924306826967
F           -6.31733058946510        0.65540002303231       -3.05055837829202
F           -4.45291521461633        1.42882434369974       -2.32635290718966
F           -5.00436310609230       -0.61118058783727       -1.92545304238150
C           -7.21948342085133        1.99297761663014       -0.85458533616809
H           -8.23036563262347        2.12178854353389        2.39206176070926
H           -6.37628924359527        0.50583546378597        2.60916351011692
H           -7.06155879130555       -1.84844677315883        1.47749872502832
H           -6.84733319873324       -4.20480778081499        2.19639726978382
H           -4.66159734931761       -5.30542503167127        2.26451376947070
H           -2.61130597430434       -4.09598720090599        1.59934888947493
H           -0.80243165860457       -2.20244610313356        0.73692877595270
H            0.98122056089610        1.94193825534363        0.42026823439648
H            3.39871418365344        1.97843754006953        0.08633437493951
H            0.80152375603198       -2.20036139200090       -0.74277731768693
H            2.61048579908857       -4.09124845178890       -1.61060975989925
H            4.66083098652121       -5.29860143304113       -2.27939548468911
H            6.84646095522220       -4.19795021962863       -2.20841405162718
H            7.06052420852498       -1.84360985343201       -1.48290952051958
H            6.37520483666171        0.51349472791936       -2.60779123339483
H            8.22947849346658        2.12860736973402       -2.38618276134734
H            7.47566301990957        2.38668984727516        1.83133985699718
H           -0.98261195693222        1.94290910081389       -0.41511374429064
H           -3.40012307450179        1.97821808636590       -0.08115320249538
H           -7.47670368096800        2.39135862501162       -1.82476104104267

 projected vibrational frequencies (cm⁻¹)
eigval :       -0.00    -0.00    -0.00     0.00     0.00     0.00
eigval :       10.61    10.99    16.44    20.69    23.74    29.60
eigval :       31.03    46.13    47.76    49.02    54.10    89.66
eigval :       90.40    94.56   102.24   103.60   106.34   108.06
eigval :      115.87   134.11   141.98   144.22   152.56   156.60
eigval :      181.73   206.52   224.11   225.79   231.03   243.35
eigval :      249.67   260.72   273.36   286.50   305.92   319.58
eigval :      324.75   325.47   341.38   344.75   364.42   383.91
eigval :      386.67   392.64   401.85   402.30   417.25   423.29
eigval :      426.36   432.41   432.77   442.37   452.86   474.19
eigval :      487.57   488.97   492.39   493.24   526.77   529.29
eigval :      534.58   543.43   544.18   560.41   563.31   568.53
eigval :      569.16   579.84   586.40   586.55   598.19   603.67
eigval :      610.63   616.33   625.32   636.63   659.04   662.99
eigval :      674.19   676.10   686.75   688.67   699.72   706.71
eigval :      706.73   716.99   765.27   773.35   773.49   808.72
eigval :      808.79   811.03   830.92   835.29   847.42   855.04
eigval :      858.81   866.09   868.61   868.76   872.34   872.98
eigval :      888.38   901.28   903.27   903.98   908.71   909.36
eigval :      912.65   917.85   921.91   921.92   925.93   926.58
eigval :     1003.35  1004.05  1005.21  1019.28  1026.92  1028.34
eigval :     1035.54  1056.66  1058.46  1067.12  1068.13  1106.73
eigval :     1110.77  1136.03  1141.54  1145.73  1146.79  1174.77
eigval :     1175.04  1185.71  1186.57  1188.74  1190.66  1207.84
eigval :     1211.08  1217.08  1217.85  1226.53  1235.52  1240.16
eigval :     1248.57  1257.51  1260.71  1275.79  1277.93  1290.06
eigval :     1329.41  1330.01  1334.21  1340.75  1347.60  1348.17
eigval :     1353.36  1356.69  1357.18  1368.09  1387.88  1394.08
eigval :     1413.17  1414.68  1426.38  1428.05  1440.78  1443.50
eigval :     1453.80  1457.48  1468.94  1479.27  1489.76  1492.69
eigval :     1518.29  1538.66  1567.45  1576.64  1577.82  1578.01
eigval :     1585.26  1591.13  2299.79  2314.85  3086.86  3086.89
eigval :     3088.91  3088.95  3092.62  3092.71  3097.02  3097.48
eigval :     3097.51  3098.23  3098.89  3099.24  3099.46  3102.96
eigval :     3104.51  3104.70  3105.88  3106.15  3112.37  3116.89

   temp. (K)  partition function   enthalpy   heat capacity  entropy
                                   cal/mol     cal/K/mol   cal/K/mol   J/K/mol
 298.15  VIB  0.162E+20            23980.215    145.806    150.318
         ROT  0.586E+08              888.752      2.981     38.527
         INT  0.953E+27            24868.967    148.787    188.844
         TR   0.168E+29             1481.254      4.968     45.370
         TOT                       26350.2208   153.7551   234.2144   979.9529

       T/K    H(0)-H(T)+PV         H(T)/Eh          T*S/Eh         G(T)/Eh
   ------------------------------------------------------------------------
    298.15    0.419917E-01    0.519840E+00    0.111283E+00    0.408557E+00
   ------------------------------------------------------------------------

         :::::::::::::::::::::::::::::::::::::::::::::::::::::
         ::                  THERMODYNAMIC                  ::
         :::::::::::::::::::::::::::::::::::::::::::::::::::::
         :: total free energy        -135.473160163199 Eh   ::
         ::.................................................::
         :: total energy             -135.881717078142 Eh   ::
         :: zero point energy           0.477847972900 Eh   ::
         :: G(RRHO) w/o ZPVE           -0.069291057957 Eh   ::
         :: G(RRHO) contrib.            0.408556914943 Eh   ::
         :::::::::::::::::::::::::::::::::::::::::::::::::::::

           -------------------------------------------------
          | TOTAL ENERGY             -135.881717078142 Eh   |
          | TOTAL ENTHALPY           -135.361877355480 Eh   |
          | TOTAL FREE ENERGY        -135.473160163199 Eh   |
          | GRADIENT NORM               0.000055767394 Eh/α |
           -------------------------------------------------

 * finished run on 2025/07/16 at 15:26:36.643
