   * xtb version 6.7.1 (edcfbbe) compiled by 'albert@albert-system' on 2024-07-22

   ID    Z sym.   atoms
    1    6 C      1-9, 11-21
    2    7 N      10
    3    1 H      22-34

          program call               : xtb data2507/gas/dbG2TAZ/dbG2TAZ_gas_S0_finalOpt.xtbopt.xyz --gfn 2 --spinpol --tblite --uhf 2 --ohess vtight --parallel 40 --molden --ceasefiles --namespace data2507/gas/dbG2TAZ/dbG2TAZ_gas_T1_preOpt
 * total energy  :   -52.3135857 Eh     change       -0.6067168E-08 Eh
 * total energy  :   -52.3209621 Eh     change       -0.7376428E-02 Eh
 * total energy  :   -52.3227267 Eh     change       -0.1764599E-02 Eh
 * total energy  :   -52.3228391 Eh     change       -0.1123675E-03 Eh
 * total energy  :   -52.3229043 Eh     change       -0.6527011E-04 Eh
 * total energy  :   -52.3229293 Eh     change       -0.2496972E-04 Eh
 * total energy  :   -52.3229510 Eh     change       -0.2165059E-04 Eh
 * total energy  :   -52.3229723 Eh     change       -0.2132140E-04 Eh
 * total energy  :   -52.3229794 Eh     change       -0.7098250E-05 Eh
 * total energy  :   -52.3229813 Eh     change       -0.1881899E-05 Eh
 * total energy  :   -52.3229815 Eh     change       -0.2397472E-06 Eh
 * total energy  :   -52.3229816 Eh     change       -0.1157582E-06 Eh
 * total energy  :   -52.3229817 Eh     change       -0.8134186E-07 Eh
   *** GEOMETRY OPTIMIZATION CONVERGED AFTER 13 ITERATIONS ***

 final structure:
================
34
 xtb: 6.7.1 (edcfbbe)
C            3.80181437076099       -2.25123678047305        0.25398714781124
C            2.52047611630166       -2.59232982789601        0.65818565816202
C            1.49370527235661       -1.65423201992132        0.58710645826102
C            1.72269866359412       -0.37144222197405        0.11008637081432
C            3.06419667731427        0.02278545620874       -0.18515159844088
C            4.07568448983548       -0.96048365256401       -0.14710040906834
C            3.38234926052667        1.36931757866756       -0.43084281521000
C            2.41207238258833        2.38518631736836       -0.33596752544074
C            1.11631470525098        2.01541796943867       -0.10590876358859
N           -0.00051846870188        2.81008482274993       -0.00066009075967
C           -1.11705634149411        2.01503114550870        0.10475516787506
C           -2.41298719046561        2.38441117171424        0.33448310225763
C           -3.38291260025224        1.36822325918984        0.42953257908938
C           -3.06422343583805        0.02171601303819        0.18437712049163
C           -4.07536051866597       -0.96192179227468        0.14645583278971
C           -3.80094106342913       -2.25274034768307       -0.25404578157796
C           -2.51937291341352       -2.59356204201364       -0.65774116160539
C           -1.49295443298486       -1.65506940503096       -0.58680737862822
C           -1.72252059948806       -0.37214500360104       -0.11041910164636
C           -0.69552618453124        0.63476311396917        0.00873264057393
C            0.69531129623170        0.63502678097744       -0.00934743729274
H            4.59125173825748       -2.98846505216247        0.27779176121627
H            2.31047036799270       -3.58643681957435        1.02321049137556
H            0.50981848255962       -1.92329563352694        0.93806494522452
H            5.08219621713586       -0.67707355898439       -0.41961010692766
H            4.40823452040854        1.63536754645953       -0.63443708141059
H            2.69112666547141        3.42172989174228       -0.44739472944928
H           -0.00072612382996        3.81459419033354       -0.00097237919771
H           -2.69243648262000        3.42089242203311        0.44548759016085
H           -4.40893300020068        1.63396939646079        0.63283696067808
H           -5.08203772615413       -0.67875803400442        0.41862508881315
H           -4.59011131958704       -2.99025905912136       -0.27772656843175
H           -2.30892275979307       -3.58775016075312       -1.02228621938775
H           -0.50889287930355       -1.92393440437302       -0.93742089432589

 projected vibrational frequencies (cm⁻¹)
eigval :       -0.00    -0.00    -0.00     0.00     0.00     0.00
eigval :       55.20    65.22    89.84   132.53   162.69   163.14
eigval :      223.28   229.90   295.42   311.74   339.71   343.95
eigval :      381.14   384.71   399.98   417.98   432.20   479.83
eigval :      480.74   496.23   496.90   512.44   533.55   575.85
eigval :      596.83   608.88   648.91   667.91   697.62   708.90
eigval :      723.26   728.75   730.68   739.75   763.02   772.43
eigval :      799.86   820.98   824.01   842.51   843.21   856.26
eigval :      880.12   886.92   910.65   911.16   951.41   978.58
eigval :     1022.08  1062.37  1079.60  1083.44  1098.20  1125.57
eigval :     1137.39  1154.84  1168.90  1176.58  1187.15  1192.09
eigval :     1206.42  1216.73  1238.50  1247.87  1262.24  1269.69
eigval :     1320.15  1338.74  1346.28  1360.10  1364.74  1394.03
eigval :     1403.53  1425.55  1442.17  1446.00  1507.70  1515.08
eigval :     1527.25  1532.41  1539.58  1553.62  1599.52  3069.24
eigval :     3069.30  3078.37  3078.69  3082.45  3082.82  3087.94
eigval :     3089.21  3093.12  3094.59  3102.52  3105.89  3498.88

   temp. (K)  partition function   enthalpy   heat capacity  entropy
                                   cal/mol     cal/K/mol   cal/K/mol   J/K/mol
 298.15  VIB  0.156E+05             7871.498     59.152     44.780
         ROT  0.262E+07              888.752      2.981     32.349
         INT  0.407E+11             8760.251     62.132     77.130
         TR   0.423E+28             1481.254      4.968     42.630
         TOT                       10241.5046    67.1006   119.7594   501.0732

       T/K    H(0)-H(T)+PV         H(T)/Eh          T*S/Eh         G(T)/Eh
   ------------------------------------------------------------------------
    298.15    0.163209E-01    0.273699E+00    0.569015E-01    0.216797E+00
   ------------------------------------------------------------------------

         :::::::::::::::::::::::::::::::::::::::::::::::::::::
         ::                  THERMODYNAMIC                  ::
         :::::::::::::::::::::::::::::::::::::::::::::::::::::
         :: total free energy         -52.106184310653 Eh   ::
         ::.................................................::
         :: total energy              -52.322981731585 Eh   ::
         :: zero point energy           0.257378090033 Eh   ::
         :: G(RRHO) w/o ZPVE           -0.040580669101 Eh   ::
         :: G(RRHO) contrib.            0.216797420932 Eh   ::
         :::::::::::::::::::::::::::::::::::::::::::::::::::::

           -------------------------------------------------
          | TOTAL ENERGY              -52.322981731585 Eh   |
          | TOTAL ENTHALPY            -52.049282765141 Eh   |
          | TOTAL FREE ENERGY         -52.106184310653 Eh   |
          | GRADIENT NORM               0.000042267395 Eh/α |
           -------------------------------------------------

 * finished run on 2025/09/14 at 03:38:29.312
