   * xtb version 6.7.1 (edcfbbe) compiled by 'albert@albert-system' on 2024-07-22

   ID    Z sym.   atoms
    1    6 C      1-9, 11-21
    2    7 N      10
    3    1 H      22-34

          program call               : xtb data2507/gas/dbG2TAZ/dbG2TAZ_gas_S0_crest.xyz --gfn 2 --ohess vtight --parallel 40 --molden --ceasefiles --namespace data2507/gas/dbG2TAZ/dbG2TAZ_gas_S0_finalOpt
          :  Hamiltonian                  GFN2-xTB          :
 * total energy  :   -52.4064528 Eh     change       -0.5131511E-08 Eh
 * total energy  :   -52.4064531 Eh     change       -0.2366301E-06 Eh
 * total energy  :   -52.4064532 Eh     change       -0.1617128E-06 Eh
 * total energy  :   -52.4064534 Eh     change       -0.1417535E-06 Eh
 * total energy  :   -52.4064535 Eh     change       -0.8666019E-07 Eh
   *** GEOMETRY OPTIMIZATION CONVERGED AFTER 5 ITERATIONS ***

 final structure:
================
34
 xtb: 6.7.1 (edcfbbe)
C            3.84442078458034       -2.22284739649876        0.23471526982695
C            2.54686616965818       -2.59214091972443        0.60402026273698
C            1.51971995799790       -1.68764814972269        0.53245913629350
C            1.73757417888548       -0.37265820000029        0.08309288708898
C            3.07741208889130        0.03489830178437       -0.16936637317092
C            4.10402156402692       -0.92728595094322       -0.12190777561042
C            3.38792427034320        1.40017820263558       -0.39780995191715
C            2.43181844118598        2.36796018055507       -0.31502016341811
C            1.10521358839875        1.96484071940990       -0.11521567053162
N           -0.00054412271306        2.75837760556746       -0.00003836092418
C           -1.10602079517627        1.96447768122878        0.11532893508835
C           -2.43293415445596        2.36725418618685        0.31374993910297
C           -3.38887314373088        1.39922833088264        0.39557717089174
C           -3.07769104161174        0.03395530508418        0.16801224421919
C           -4.10404304997284       -0.92843532274139        0.11922766787144
C           -3.84359345593582       -2.22414678233337       -0.23623089381130
C           -2.54526790750828       -2.59347523494946       -0.60277065809518
C           -1.51845470956900       -1.68869851802719       -0.53013177766408
C           -1.73737225428952       -0.37337312095470       -0.08226358780031
C           -0.71705705774545        0.61364904263689        0.03160785663244
C            0.71680349304416        0.61392000364388       -0.03053295352065
H            4.64085943969361       -2.95177460770946        0.26985053243708
H            2.35838734540683       -3.59506215028305        0.95898604156391
H            0.53705063154665       -1.96803018668358        0.87603887126046
H            5.11380711892563       -0.61512057149695       -0.34953798822440
H            4.41768563407509        1.66491679859955       -0.58887619720618
H            2.67370365044060        3.41631030723093       -0.41248785854624
H           -0.00070317621202        3.76418060788242       -0.00042178266903
H           -2.67523226367380        3.41556510500257        0.41058496349348
H           -4.41897279835090        1.66377124100747        0.58510844583608
H           -5.11429440338116       -0.61634436423052        0.34489162060539
H           -4.63984612832185       -2.95322295597920       -0.27244122590917
H           -2.35591101477261       -3.59663542665275       -0.95659328400788
H           -0.53514644937948       -1.96920247600754       -0.87173420052209

          :  Hamiltonian                  GFN2-xTB          :
         :: gradient norm              0.000026539667 Eh/a0 ::
         :: HOMO-LUMO gap              2.602906195057 eV    ::
         :: SCC energy               -53.414307479658 Eh    ::
         :: -> dispersion             -0.043315883954 Eh    ::
         :: repulsion energy           1.007854026235 Eh    ::

    * Orbital Energies and Occupations

         #    Occupation            Energy/Eh            Energy/eV
      -------------------------------------------------------------
         1        2.0000           -0.6770946             -18.4247
       ...           ...                  ...                  ...
        37        2.0000           -0.4427225             -12.0471
        38        2.0000           -0.4421584             -12.0317
        39        2.0000           -0.4315975             -11.7444
        40        2.0000           -0.4269470             -11.6178
        41        2.0000           -0.4190825             -11.4038
        42        2.0000           -0.4119155             -11.2088
        43        2.0000           -0.4107996             -11.1784
        44        2.0000           -0.4099683             -11.1558
        45        2.0000           -0.4052997             -11.0288
        46        2.0000           -0.3944498             -10.7335
        47        2.0000           -0.3833091             -10.4304
        48        2.0000           -0.3658561              -9.9555
        49        2.0000           -0.3564248              -9.6988 (HOMO)
        50                         -0.2607698              -7.0959 (LUMO)
        51                         -0.2398646              -6.5270
        52                         -0.2227418              -6.0611
        53                         -0.2100204              -5.7149
        54                         -0.1901706              -5.1748
        55                         -0.1664296              -4.5288
        56                         -0.1286348              -3.5003
        57                         -0.1282142              -3.4889
        58                         -0.0599417              -1.6311
        59                         -0.0391258              -1.0647
        60                          0.0228359               0.6214
       ...                                ...                  ...
        97                          0.7472028              20.3324
      -------------------------------------------------------------
                  HL-Gap            0.0956550 Eh            2.6029 eV

     #   Z          covCN         q      C6AA      α(0)
     1   6 C        2.915    -0.034    28.846     8.807
     2   6 C        2.917    -0.032    28.807     8.801
     3   6 C        2.918    -0.040    28.997     8.830
     4   6 C        2.980     0.010    27.777     8.645
     5   6 C        2.987     0.004    27.926     8.668
     6   6 C        2.922    -0.036    28.887     8.814
     7   6 C        2.925    -0.040    28.984     8.829
     8   6 C        2.906    -0.052    29.294     8.875
     9   6 C        3.094     0.049    26.798     8.484
    10   7 N        2.762    -0.114    23.489     7.198
    11   6 C        3.094     0.049    26.798     8.484
    12   6 C        2.906    -0.052    29.294     8.875
    13   6 C        2.925    -0.040    28.984     8.829
    14   6 C        2.987     0.004    27.926     8.668
    15   6 C        2.922    -0.036    28.887     8.814
    16   6 C        2.915    -0.034    28.846     8.807
    17   6 C        2.917    -0.032    28.807     8.801
    18   6 C        2.918    -0.040    28.997     8.830
    19   6 C        2.980     0.010    27.777     8.645
    20   6 C        3.072    -0.025    28.560     8.763
    21   6 C        3.072    -0.025    28.560     8.763
    22   1 H        0.926     0.025     2.651     2.546
    23   1 H        0.926     0.026     2.642     2.542
    24   1 H        0.926     0.040     2.445     2.445
    25   1 H        0.926     0.027     2.633     2.537
    26   1 H        0.926     0.031     2.575     2.510
    27   1 H        0.926     0.025     2.666     2.553
    28   1 H        0.860     0.158     1.346     1.817
    29   1 H        0.926     0.025     2.666     2.553
    30   1 H        0.926     0.031     2.576     2.510
    31   1 H        0.926     0.027     2.633     2.538
    32   1 H        0.926     0.025     2.652     2.546
    33   1 H        0.926     0.026     2.642     2.542
    34   1 H        0.926     0.040     2.444     2.445

molecular dipole:
                 x           y           z       tot (Debye)
 q only:        0.000       0.634      -0.000
   full:        0.000       0.945      -0.000       2.401

 projected vibrational frequencies (cm⁻¹)
eigval :       -0.00    -0.00    -0.00     0.00     0.00     0.00
eigval :       62.85    63.70    89.61   138.70   172.96   178.28
eigval :      228.91   239.42   295.16   328.20   345.92   387.17
eigval :      395.85   416.40   430.11   474.71   484.89   493.05
eigval :      504.05   515.82   528.19   539.73   552.05   579.72
eigval :      603.92   633.61   660.48   679.23   716.17   728.53
eigval :      732.96   736.97   761.12   776.39   811.52   823.71
eigval :      824.67   847.50   868.52   889.33   895.40   899.58
eigval :      900.78   911.77   920.70   924.03   975.23  1011.83
eigval :     1048.15  1083.45  1091.03  1098.08  1130.44  1155.34
eigval :     1162.70  1163.76  1179.22  1179.63  1201.26  1225.36
eigval :     1225.90  1239.88  1261.20  1311.80  1324.00  1348.79
eigval :     1354.38  1371.42  1373.15  1393.38  1410.14  1424.94
eigval :     1439.14  1449.63  1457.23  1531.61  1533.51  1553.55
eigval :     1559.49  1580.14  1585.47  1605.69  1606.27  3065.20
eigval :     3065.29  3071.01  3071.33  3073.87  3074.31  3084.12
eigval :     3084.46  3086.10  3087.37  3108.48  3112.77  3481.70

   temp. (K)  partition function   enthalpy   heat capacity  entropy
                                   cal/mol     cal/K/mol   cal/K/mol   J/K/mol
 298.15  VIB  0.859E+04             7461.880     56.826     42.378
         ROT  0.262E+07              888.752      2.981     32.347
         INT  0.225E+11             8350.632     59.807     74.725
         TR   0.423E+28             1481.254      4.968     42.630
         TOT                        9831.8862    64.7747   117.3548   491.0124

       T/K    H(0)-H(T)+PV         H(T)/Eh          T*S/Eh         G(T)/Eh
   ------------------------------------------------------------------------
    298.15    0.156681E-01    0.277896E+00    0.557590E-01    0.222137E+00
   ------------------------------------------------------------------------

         :::::::::::::::::::::::::::::::::::::::::::::::::::::
         ::                  THERMODYNAMIC                  ::
         :::::::::::::::::::::::::::::::::::::::::::::::::::::
         :: total free energy         -52.184316920356 Eh   ::
         ::.................................................::
         :: total energy              -52.406453453424 Eh   ::
         :: zero point energy           0.262227468840 Eh   ::
         :: G(RRHO) w/o ZPVE           -0.040090935773 Eh   ::
         :: G(RRHO) contrib.            0.222136533068 Eh   ::
         :::::::::::::::::::::::::::::::::::::::::::::::::::::

           -------------------------------------------------
          | TOTAL ENERGY              -52.406453453424 Eh   |
          | TOTAL ENTHALPY            -52.128557876625 Eh   |
          | TOTAL FREE ENERGY         -52.184316920356 Eh   |
          | GRADIENT NORM               0.000026546074 Eh/α |
          | HOMO-LUMO GAP               2.602906340991 eV   |
           -------------------------------------------------

 * finished run on 2025/09/14 at 03:38:27.998
