   * xtb version 6.7.1 (edcfbbe) compiled by 'albert@albert-system' on 2024-07-22

   ID    Z sym.   atoms
    1    6 C      1-9, 11-21
    2    7 N      10
    3    1 H      22-34

          program call               : xtb data2507/gas/dbG2TAZ/dbG2TAZ_gas_T1_crest.xyz --gfn 2 --spinpol --tblite --uhf 2 --ohess vtight --parallel 40 --molden --ceasefiles --namespace data2507/gas/dbG2TAZ/dbG2TAZ_gas_T1_finalOpt
 * total energy  :   -52.3229609 Eh     change        0.2146685E-08 Eh
 * total energy  :   -52.3229767 Eh     change       -0.1575491E-04 Eh
 * total energy  :   -52.3229807 Eh     change       -0.4028438E-05 Eh
 * total energy  :   -52.3229811 Eh     change       -0.3911435E-06 Eh
 * total energy  :   -52.3229811 Eh     change       -0.1882500E-07 Eh
 * total energy  :   -52.3229814 Eh     change       -0.2663524E-06 Eh
 * total energy  :   -52.3229815 Eh     change       -0.1427947E-06 Eh
 * total energy  :   -52.3229816 Eh     change       -0.1233925E-06 Eh
 * total energy  :   -52.3229817 Eh     change       -0.5214966E-07 Eh
   *** GEOMETRY OPTIMIZATION CONVERGED AFTER 9 ITERATIONS ***

 final structure:
================
34
 xtb: 6.7.1 (edcfbbe)
C            3.80103942169216       -2.25696340764653        0.25763088403811
C            2.51862930160580       -2.59812156316266        0.65838060041262
C            1.49213374220061       -1.65991049362029        0.58521113171375
C            1.72243826364916       -0.37680070489355        0.10964209529769
C            3.06460338965345        0.01713063203867       -0.18305013431300
C            4.07591286632885       -0.96624793365441       -0.14279296897598
C            3.38361140864294        1.36353452352785       -0.42834753937025
C            2.41365000281917        2.37975038978718       -0.33462962821886
C            1.11751693396220        2.01047319217441       -0.10575548378740
N            0.00118618744894        2.80581035750271       -0.00040020446479
C           -1.11573868319238        2.01139943974254        0.10568516135502
C           -2.41108697724283        2.38138820608031        0.33761573316476
C           -3.38150165724923        1.36565291129269        0.43325109852119
C           -3.06405600841237        0.01927651690839        0.18602509673341
C           -4.07593645948326       -0.96362155243130        0.14808800790682
C           -3.80301497959307       -2.25390178918029       -0.25514749093799
C           -2.52229901237038       -2.59493816359055       -0.66131606463819
C           -1.49500258338015       -1.65737060692981       -0.59001836726105
C           -1.72299577629220       -0.37512371777559       -0.11113226769993
C           -0.69518659232345        0.63093312462309        0.00830418803383
C            0.69569502973367        0.63029290810919       -0.01011569857879
H            4.59042425940948       -2.99418850164032        0.28352966601476
H            2.30768137730896       -3.59234615240506        1.02254202739598
H            0.50736354323021       -1.92908306150968        0.93358162753554
H            5.08307698781178       -0.68281853821417       -0.41288152205026
H            4.40989281954930        1.62918662636905       -0.63049701658132
H            2.69319422720697        3.41621596069830       -0.44555473823038
H            0.00178445244699        3.81031445597754        0.00125320119742
H           -2.68970490851492        3.41793647272379        0.45005323283367
H           -4.40702873835811        1.63183753491716        0.63849145250798
H           -5.08197284168372       -0.68018705527001        0.42232860382680
H           -4.59276543060702       -2.99080240153031       -0.27905938523568
H           -2.31318177500454       -3.58859576506370       -1.02806710593758
H           -0.51158298169301       -1.92635553665464       -0.94238392700791

 projected vibrational frequencies (cm⁻¹)
eigval :       -0.00    -0.00     0.00     0.00     0.00     0.00
eigval :       55.19    65.22    89.86   132.54   162.62   163.10
eigval :      223.34   229.85   295.40   311.70   339.66   343.92
eigval :      381.09   384.63   399.94   417.95   432.25   479.91
eigval :      480.72   496.23   496.87   512.43   533.56   575.86
eigval :      596.85   608.88   648.89   667.89   697.62   708.90
eigval :      723.27   728.80   730.77   739.77   763.07   772.44
eigval :      800.19   820.97   824.00   842.55   843.22   856.26
eigval :      880.13   886.93   910.68   911.20   951.19   978.64
eigval :     1022.20  1062.81  1079.65  1083.48  1098.22  1125.63
eigval :     1137.38  1154.86  1168.90  1176.55  1187.03  1191.98
eigval :     1206.42  1216.66  1238.55  1247.86  1262.24  1269.68
eigval :     1320.15  1338.62  1346.29  1360.09  1364.72  1394.00
eigval :     1403.51  1425.49  1442.13  1445.98  1507.67  1515.06
eigval :     1527.23  1532.38  1539.53  1553.66  1599.51  3069.13
eigval :     3069.21  3078.24  3078.61  3082.38  3082.79  3087.87
eigval :     3089.02  3092.73  3094.72  3102.07  3105.78  3498.88

   temp. (K)  partition function   enthalpy   heat capacity  entropy
                                   cal/mol     cal/K/mol   cal/K/mol   J/K/mol
 298.15  VIB  0.156E+05             7871.622     59.151     44.782
         ROT  0.262E+07              888.752      2.981     32.349
         INT  0.408E+11             8760.374     62.132     77.131
         TR   0.423E+28             1481.254      4.968     42.630
         TOT                       10241.6283    67.0999   119.7609   501.0795

       T/K    H(0)-H(T)+PV         H(T)/Eh          T*S/Eh         G(T)/Eh
   ------------------------------------------------------------------------
    298.15    0.163211E-01    0.273696E+00    0.569023E-01    0.216794E+00
   ------------------------------------------------------------------------

         :::::::::::::::::::::::::::::::::::::::::::::::::::::
         ::                  THERMODYNAMIC                  ::
         :::::::::::::::::::::::::::::::::::::::::::::::::::::
         :: total free energy         -52.106188128913 Eh   ::
         ::.................................................::
         :: total energy              -52.322981722952 Eh   ::
         :: zero point energy           0.257374779407 Eh   ::
         :: G(RRHO) w/o ZPVE           -0.040581185368 Eh   ::
         :: G(RRHO) contrib.            0.216793594039 Eh   ::
         :::::::::::::::::::::::::::::::::::::::::::::::::::::

           -------------------------------------------------
          | TOTAL ENERGY              -52.322981722952 Eh   |
          | TOTAL ENTHALPY            -52.049285870018 Eh   |
          | TOTAL FREE ENERGY         -52.106188128913 Eh   |
          | GRADIENT NORM               0.000080360998 Eh/α |
           -------------------------------------------------

 * finished run on 2025/09/14 at 03:39:17.736
