   * xtb version 6.7.1 (edcfbbe) compiled by 'albert@albert-system' on 2024-07-22

   ID    Z sym.   atoms
    1    6 C      1-9, 11-21
    2    7 N      10
    3    1 H      22-34

          program call               : xtb data2507/gas/dbG2TAZ/dbG2TAZ.xyz --gfn 2 --ohess vtight --parallel 40 --molden --ceasefiles --namespace data2507/gas/dbG2TAZ/dbG2TAZ_gas_S0_preOpt
          :  Hamiltonian                  GFN2-xTB          :
 * total energy  :   -52.3968976 Eh     change       -0.8947438E-09 Eh
 * total energy  :   -52.4049240 Eh     change       -0.8026472E-02 Eh
 * total energy  :   -52.4062320 Eh     change       -0.1307988E-02 Eh
 * total energy  :   -52.4063623 Eh     change       -0.1302774E-03 Eh
 * total energy  :   -52.4064126 Eh     change       -0.5033230E-04 Eh
 * total energy  :   -52.4064298 Eh     change       -0.1714150E-04 Eh
 * total energy  :   -52.4064422 Eh     change       -0.1242200E-04 Eh
 * total energy  :   -52.4064490 Eh     change       -0.6771580E-05 Eh
 * total energy  :   -52.4064515 Eh     change       -0.2529191E-05 Eh
 * total energy  :   -52.4064525 Eh     change       -0.9919387E-06 Eh
 * total energy  :   -52.4064528 Eh     change       -0.3457950E-06 Eh
 * total energy  :   -52.4064530 Eh     change       -0.1465089E-06 Eh
 * total energy  :   -52.4064531 Eh     change       -0.1312522E-06 Eh
 * total energy  :   -52.4064532 Eh     change       -0.1309917E-06 Eh
 * total energy  :   -52.4064534 Eh     change       -0.1327937E-06 Eh
 * total energy  :   -52.4064534 Eh     change       -0.6835072E-07 Eh
   *** GEOMETRY OPTIMIZATION CONVERGED AFTER 16 ITERATIONS ***

 final structure:
================
34
 xtb: 6.7.1 (edcfbbe)
C            3.84215653092574       -2.09283210625376        0.26816437443882
C            2.54125680077612       -2.46204841127083        0.62558985097163
C            1.51476119628445       -1.55765002264041        0.54418413881823
C            1.73674798921826       -0.24275788064233        0.09656214500161
C            3.07876492647775        0.16461400325728       -0.14430723533726
C            4.10492674971177       -0.79750526873989       -0.08700255537135
C            3.39130404628495        1.52976352835890       -0.37084000016561
C            2.43467799330980        2.49770317943314       -0.29629553547367
C            1.10644874832198        2.09485327776963       -0.10699065851567
N           -0.00000265468708        2.88858098289186        0.00000121235282
C           -1.10645258544366        2.09485114232531        0.10699243843417
C           -2.43468254734531        2.49769841143566        0.29629787211520
C           -3.39130679022298        1.52975691597766        0.37084164395143
C           -3.07876518563541        0.16460818339424        0.14430755856044
C           -4.10492522412141       -0.79751295782118        0.08700229784392
C           -3.84215267371451       -2.09283898822325       -0.26816584817834
C           -2.54125235284234       -2.46205253509750       -0.62559201727033
C           -1.51475842289378       -1.55765229121598       -0.54418580832406
C           -1.73674754660279       -0.24276098418056       -0.09656251705941
C           -0.71713667317098        0.74399109203922        0.02558801830099
C            0.71713531394485        0.74399243379797       -0.02558759755903
H            4.63830970910445       -2.82163933652998        0.31131044660417
H            2.34957927598547       -3.46480890657789        0.97929679338136
H            0.52895109004945       -1.83798971805923        0.87867437889066
H            5.11674008190599       -0.48544834853786       -0.30560288283361
H            4.42264482286516        1.79432315109335       -0.55346085865413
H            2.67749741847366        3.54598852518817       -0.39212914528853
H           -0.00000355444805        3.89438418013858        0.00000191727122
H           -2.67750390706056        3.54598322487183        0.39213244293677
H           -4.42264802393019        1.79431446646244        0.55346292030717
H           -5.11673905950403       -0.48545815382152        0.30560331884511
H           -4.63830447969703       -2.82164769667538       -0.31131227477804
H           -2.34957308764048       -3.46481230318883       -0.97930009577063
H           -0.52894792467929       -1.83798978895896       -0.87867673844601

          :  Hamiltonian                  GFN2-xTB          :
         :: gradient norm              0.000017992177 Eh/a0 ::
         :: HOMO-LUMO gap              2.602883205606 eV    ::
         :: SCC energy               -53.414303846154 Eh    ::
         :: -> dispersion             -0.043315588172 Eh    ::
         :: repulsion energy           1.007850399211 Eh    ::

    * Orbital Energies and Occupations

         #    Occupation            Energy/Eh            Energy/eV
      -------------------------------------------------------------
         1        2.0000           -0.6770953             -18.4247
       ...           ...                  ...                  ...
        37        2.0000           -0.4427246             -12.0471
        38        2.0000           -0.4421552             -12.0317
        39        2.0000           -0.4315951             -11.7443
        40        2.0000           -0.4269463             -11.6178
        41        2.0000           -0.4190818             -11.4038
        42        2.0000           -0.4119215             -11.2090
        43        2.0000           -0.4108019             -11.1785
        44        2.0000           -0.4099691             -11.1558
        45        2.0000           -0.4052961             -11.0287
        46        2.0000           -0.3944483             -10.7335
        47        2.0000           -0.3833155             -10.4305
        48        2.0000           -0.3658563              -9.9555
        49        2.0000           -0.3564236              -9.6988 (HOMO)
        50                         -0.2607695              -7.0959 (LUMO)
        51                         -0.2398618              -6.5270
        52                         -0.2227395              -6.0610
        53                         -0.2100145              -5.7148
        54                         -0.1901797              -5.1751
        55                         -0.1664407              -4.5291
        56                         -0.1286410              -3.5005
        57                         -0.1282150              -3.4889
        58                         -0.0599398              -1.6310
        59                         -0.0391500              -1.0653
        60                          0.0228385               0.6215
       ...                                ...                  ...
        97                          0.7471942              20.3322
      -------------------------------------------------------------
                  HL-Gap            0.0956542 Eh            2.6029 eV

     #   Z          covCN         q      C6AA      α(0)
     1   6 C        2.915    -0.034    28.846     8.807
     2   6 C        2.917    -0.032    28.807     8.801
     3   6 C        2.918    -0.040    28.997     8.830
     4   6 C        2.980     0.010    27.777     8.645
     5   6 C        2.987     0.004    27.926     8.668
     6   6 C        2.922    -0.036    28.887     8.814
     7   6 C        2.925    -0.040    28.984     8.829
     8   6 C        2.906    -0.052    29.294     8.875
     9   6 C        3.094     0.049    26.798     8.484
    10   7 N        2.762    -0.114    23.489     7.198
    11   6 C        3.094     0.049    26.798     8.484
    12   6 C        2.906    -0.052    29.294     8.875
    13   6 C        2.925    -0.040    28.984     8.829
    14   6 C        2.987     0.004    27.926     8.668
    15   6 C        2.922    -0.036    28.887     8.814
    16   6 C        2.915    -0.034    28.846     8.807
    17   6 C        2.917    -0.032    28.807     8.801
    18   6 C        2.918    -0.040    28.997     8.830
    19   6 C        2.980     0.010    27.777     8.645
    20   6 C        3.072    -0.025    28.560     8.763
    21   6 C        3.072    -0.025    28.560     8.763
    22   1 H        0.926     0.025     2.651     2.546
    23   1 H        0.926     0.026     2.642     2.542
    24   1 H        0.926     0.040     2.445     2.445
    25   1 H        0.926     0.027     2.633     2.537
    26   1 H        0.926     0.031     2.576     2.510
    27   1 H        0.926     0.025     2.666     2.553
    28   1 H        0.860     0.158     1.346     1.817
    29   1 H        0.926     0.025     2.666     2.553
    30   1 H        0.926     0.031     2.576     2.510
    31   1 H        0.926     0.027     2.633     2.537
    32   1 H        0.926     0.025     2.651     2.546
    33   1 H        0.926     0.026     2.642     2.542
    34   1 H        0.926     0.040     2.445     2.445

molecular dipole:
                 x           y           z       tot (Debye)
 q only:        0.000       0.634      -0.000
   full:        0.000       0.945      -0.000       2.401

 projected vibrational frequencies (cm⁻¹)
eigval :       -0.00    -0.00    -0.00     0.00     0.00     0.00
eigval :       62.87    63.73    89.62   138.70   172.94   178.25
eigval :      228.99   239.38   295.13   328.21   345.92   387.16
eigval :      395.85   416.42   430.08   474.70   484.89   493.05
eigval :      504.04   515.81   528.19   539.74   552.03   579.70
eigval :      603.93   633.60   660.44   679.27   716.15   728.53
eigval :      732.98   736.98   761.13   776.37   811.52   823.71
eigval :      824.67   847.49   868.55   889.34   895.40   899.58
eigval :      900.78   911.78   920.70   924.04   975.07  1011.83
eigval :     1048.14  1083.45  1091.02  1098.05  1130.44  1155.34
eigval :     1162.70  1163.76  1179.24  1179.65  1201.27  1225.35
eigval :     1225.89  1239.90  1261.20  1311.79  1324.01  1348.79
eigval :     1354.38  1371.40  1373.17  1393.39  1410.15  1424.93
eigval :     1439.14  1449.62  1457.25  1531.61  1533.52  1553.54
eigval :     1559.48  1580.13  1585.47  1605.69  1606.26  3065.20
eigval :     3065.29  3071.00  3071.32  3073.87  3074.30  3084.11
eigval :     3084.45  3086.10  3087.37  3108.44  3112.71  3481.70

   temp. (K)  partition function   enthalpy   heat capacity  entropy
                                   cal/mol     cal/K/mol   cal/K/mol   J/K/mol
 298.15  VIB  0.859E+04             7461.900     56.827     42.378
         ROT  0.262E+07              888.752      2.981     32.347
         INT  0.225E+11             8350.653     59.807     74.725
         TR   0.423E+28             1481.254      4.968     42.630
         TOT                        9831.9064    64.7756   117.3547   491.0119

       T/K    H(0)-H(T)+PV         H(T)/Eh          T*S/Eh         G(T)/Eh
   ------------------------------------------------------------------------
    298.15    0.156681E-01    0.277895E+00    0.557590E-01    0.222136E+00
   ------------------------------------------------------------------------

         :::::::::::::::::::::::::::::::::::::::::::::::::::::
         ::                  THERMODYNAMIC                  ::
         :::::::::::::::::::::::::::::::::::::::::::::::::::::
         :: total free energy         -52.184317594762 Eh   ::
         ::.................................................::
         :: total energy              -52.406453446943 Eh   ::
         :: zero point energy           0.262226694131 Eh   ::
         :: G(RRHO) w/o ZPVE           -0.040090841951 Eh   ::
         :: G(RRHO) contrib.            0.222135852181 Eh   ::
         :::::::::::::::::::::::::::::::::::::::::::::::::::::

           -------------------------------------------------
          | TOTAL ENERGY              -52.406453446943 Eh   |
          | TOTAL ENTHALPY            -52.128558612604 Eh   |
          | TOTAL FREE ENERGY         -52.184317594762 Eh   |
          | GRADIENT NORM               0.000017988364 Eh/α |
          | HOMO-LUMO GAP               2.602883071372 eV   |
           -------------------------------------------------

 * finished run on 2025/09/14 at 03:37:42.446
