   * xtb version 6.7.1 (edcfbbe) compiled by 'albert@albert-system' on 2024-07-22

   ID    Z sym.   atoms
    1    8 O      1, 3
    2   16 S      2, 27
    3    6 C      4-9, 11-19, 21-26, 28-36
    4    7 N      10, 20
    5    1 H      37-56

          program call               : xtb data2507/gas/PTZ-2PTO/PTZ-2PTO_gas_S0_crest.xyz --gfn 2 --ohess vtight --parallel 40 --molden --ceasefiles --namespace data2507/gas/PTZ-2PTO/PTZ-2PTO_gas_S0_finalOpt
          :  Hamiltonian                  GFN2-xTB          :
 * total energy  :   -94.9127195 Eh     change       -0.1757257E-08 Eh
 * total energy  :   -94.9127203 Eh     change       -0.8492259E-06 Eh
 * total energy  :   -94.9127209 Eh     change       -0.5707876E-06 Eh
 * total energy  :   -94.9127221 Eh     change       -0.1162295E-05 Eh
 * total energy  :   -94.9127226 Eh     change       -0.5556604E-06 Eh
 * total energy  :   -94.9127231 Eh     change       -0.4999805E-06 Eh
 * total energy  :   -94.9127238 Eh     change       -0.6388885E-06 Eh
 * total energy  :   -94.9127245 Eh     change       -0.7310398E-06 Eh
 * total energy  :   -94.9127252 Eh     change       -0.6999721E-06 Eh
 * total energy  :   -94.9127258 Eh     change       -0.5757856E-06 Eh
 * total energy  :   -94.9127269 Eh     change       -0.2658088E-06 Eh
 * total energy  :   -94.9127272 Eh     change       -0.3628024E-06 Eh
 * total energy  :   -94.9127277 Eh     change       -0.4285223E-06 Eh
 * total energy  :   -94.9127280 Eh     change       -0.3691975E-06 Eh
 * total energy  :   -94.9127283 Eh     change       -0.2538212E-06 Eh
 * total energy  :   -94.9127285 Eh     change       -0.2018776E-06 Eh
 * total energy  :   -94.9127287 Eh     change       -0.2169569E-06 Eh
 * total energy  :   -94.9127290 Eh     change       -0.2691022E-06 Eh
 * total energy  :   -94.9127290 Eh     change       -0.7927298E-08 Eh
   *** GEOMETRY OPTIMIZATION CONVERGED AFTER 22 ITERATIONS ***

 final structure:
================
56
 xtb: 6.7.1 (edcfbbe)
O            3.62871244724787       -2.93312687343452       -1.67068238113113
S            3.28709531458889       -2.17241340932969       -0.50094828312188
O            3.43027916782586       -2.82046319946594        0.77768314418251
C            4.20870837541391       -0.65376318098339       -0.45031731823123
C            5.54383578910941       -0.68624238870012       -0.80450026565888
C            6.32915198254546        0.44208776642584       -0.66787947485277
C            5.75382896095241        1.59689455397636       -0.15687048631488
C            4.41779741794321        1.63536667047931        0.18519301569882
C            3.60290255111612        0.50313248751583        0.03524972301585
N            2.25102214858113        0.57632171861644        0.33999450178368
C            1.79107581968050        1.76405801719235        0.99525247780314
C            1.82374151759905        1.82492165718945        2.38047681389701
C            1.37729179032324        2.96568957675792        3.02595128719314
C            0.89840027299522        4.03772410436519        2.29175331411851
C            0.86619473972593        3.97391233271889        0.90790632123159
C            1.31340032402682        2.83898201453419        0.25526064973051
C            1.29403267572436       -0.33262165984634       -0.07198412947599
C           -0.06701142159048       -0.01047873916575        0.02033400359153
C           -1.03764097356337       -0.87294042123269       -0.46254520042933
N           -2.41036502491301       -0.51279399338908       -0.36390414795017
C           -3.12807450582951       -1.05492325456831        0.70291329080738
C           -2.45914676793018       -1.78287374397121        1.68841432660903
C           -3.13722306092081       -2.35005519647542        2.75273562871312
C           -4.50436932232797       -2.18987815779604        2.87598724921677
C           -5.18208725571654       -1.45356063800914        1.92083744514718
C           -4.50841285754394       -0.89863106106251        0.84515690770958
S           -5.49203952520738       -0.01898189899679       -0.33459549792444
C           -4.24667501427345        0.83546686381801       -1.25836137156958
C           -4.69129351954270        1.84875736682843       -2.09159404884571
C           -3.81329672548908        2.51701041965741       -2.92610359205332
C           -2.48166518922952        2.14877151390737       -2.92581098463487
C           -2.03092751901164        1.14944359739922       -2.08150998916483
C           -2.89507415743749        0.48085188610044       -1.21252597106217
C           -0.69154044880613       -2.08961134519792       -1.04293325443212
C            0.64371919701520       -2.43941377190515       -1.08943491512904
C            1.61294886596882       -1.58179811061659       -0.60685044674524
H            5.93826567484699       -1.61661234676009       -1.18160939361533
H            7.37173369001349        0.42268886609564       -0.94159170081707
H            6.35319026299290        2.48562039547950       -0.02794140199439
H            3.99705127644141        2.55083560848669        0.57041782159073
H            2.19857052815966        0.98075102832120        2.93917487062270
H            1.40198468700211        3.01506382749020        4.10381036281297
H            0.54909319021604        4.92482968503747        2.79765895212308
H            0.49216424216599        4.80859775570203        0.33479470337708
H            1.29382002037865        2.77800427631151       -0.82288440571080
H           -0.38249292672263        0.91946275471993        0.46738242720981
H           -1.39080592615278       -1.91377104499020        1.61771284918474
H           -2.58428903033715       -2.91586492474472        3.48669945601373
H           -5.04085793371817       -2.62851890812395        3.70232794262451
H           -6.24951057602383       -1.30858219541422        1.98911903244678
H           -5.74283303514257        2.09215418158074       -2.08778908588676
H           -4.17195979835379        3.29985361382803       -3.57536066466219
H           -1.78010100807628        2.63572405921876       -3.58616271055578
H           -0.98963402451229        0.87097924190091       -2.11165928269026
H           -1.45930866794212       -2.74605154759875       -1.41928735630956
H            0.96932372331350       -3.38300354267691       -1.49758810588429

          :  Hamiltonian                  GFN2-xTB          :
         :: gradient norm              0.000047150749 Eh/a0 ::
         :: HOMO-LUMO gap              2.168817946181 eV    ::
         :: SCC energy               -96.483188652207 Eh    ::
         :: -> dispersion             -0.085462005407 Eh    ::
         :: repulsion energy           1.570459661007 Eh    ::

    * Orbital Energies and Occupations

         #    Occupation            Energy/Eh            Energy/eV
      -------------------------------------------------------------
         1        2.0000           -0.7692548             -20.9325
       ...           ...                  ...                  ...
        75        2.0000           -0.4353295             -11.8459
        76        2.0000           -0.4332675             -11.7898
        77        2.0000           -0.4323373             -11.7645
        78        2.0000           -0.4320979             -11.7580
        79        2.0000           -0.4283026             -11.6547
        80        2.0000           -0.4254645             -11.5775
        81        2.0000           -0.4244552             -11.5500
        82        2.0000           -0.4177754             -11.3682
        83        2.0000           -0.4143557             -11.2752
        84        2.0000           -0.4051281             -11.0241
        85        2.0000           -0.3850429             -10.4776
        86        2.0000           -0.3837181             -10.4415
        87        2.0000           -0.3427139              -9.3257 (HOMO)
        88                         -0.2630113              -7.1569 (LUMO)
        89                         -0.2606667              -7.0931
        90                         -0.2571702              -6.9980
        91                         -0.2551188              -6.9421
        92                         -0.2512270              -6.8362
        93                         -0.2447567              -6.6602
        94                         -0.2337636              -6.3610
        95                         -0.2283023              -6.2124
        96                         -0.2262621              -6.1569
        97                         -0.2042566              -5.5581
        98                         -0.1980832              -5.3901
       ...                                ...                  ...
       174                          1.2178343              33.1390
      -------------------------------------------------------------
                  HL-Gap            0.0797026 Eh            2.1688 eV

     #   Z          covCN         q      C6AA      α(0)
     1   8 O        0.860    -0.539    24.660     6.658
     2  16 S        3.847     0.960   107.820    17.476
     3   8 O        0.860    -0.550    24.922     6.693
     4   6 C        2.973    -0.096    30.419     9.047
     5   6 C        2.971    -0.020    28.508     8.758
     6   6 C        2.918    -0.034    28.836     8.806
     7   6 C        2.920    -0.025    28.618     8.773
     8   6 C        2.926    -0.051    29.260     8.871
     9   6 C        2.957     0.064    26.554     8.452
    10   7 N        2.750    -0.067    22.543     7.052
    11   6 C        2.934     0.066    26.528     8.447
    12   6 C        2.921    -0.036    28.907     8.817
    13   6 C        2.920    -0.025    28.622     8.773
    14   6 C        2.920    -0.027    28.688     8.783
    15   6 C        2.920    -0.026    28.660     8.779
    16   6 C        2.920    -0.038    28.937     8.821
    17   6 C        2.957     0.066    26.522     8.447
    18   6 C        2.929    -0.064    29.593     8.921
    19   6 C        2.932     0.075    26.325     8.414
    20   7 N        2.750    -0.074    22.670     7.072
    21   6 C        2.946     0.059    26.683     8.472
    22   6 C        2.928    -0.058    29.445     8.899
    23   6 C        2.919    -0.033    28.827     8.805
    24   6 C        2.918    -0.039    28.958     8.825
    25   6 C        2.987    -0.040    28.982     8.831
    26   6 C        2.971     0.033    27.248     8.562
    27  16 S        2.137    -0.147   147.265    20.425
    28   6 C        2.971     0.033    27.255     8.563
    29   6 C        2.989    -0.040    28.985     8.831
    30   6 C        2.918    -0.040    28.989     8.829
    31   6 C        2.919    -0.035    28.859     8.809
    32   6 C        2.928    -0.060    29.503     8.908
    33   6 C        2.940     0.059    26.675     8.471
    34   6 C        2.920    -0.046    29.139     8.852
    35   6 C        2.970    -0.021    28.516     8.759
    36   6 C        2.973    -0.101    30.547     9.066
    37   1 H        0.926     0.062     2.171     2.304
    38   1 H        0.926     0.052     2.296     2.369
    39   1 H        0.926     0.049     2.327     2.385
    40   1 H        0.926     0.045     2.386     2.416
    41   1 H        0.926     0.050     2.320     2.382
    42   1 H        0.926     0.048     2.348     2.396
    43   1 H        0.926     0.046     2.370     2.408
    44   1 H        0.926     0.046     2.368     2.407
    45   1 H        0.926     0.044     2.392     2.419
    46   1 H        0.926     0.052     2.299     2.371
    47   1 H        0.926     0.031     2.567     2.505
    48   1 H        0.926     0.038     2.482     2.464
    49   1 H        0.926     0.038     2.474     2.460
    50   1 H        0.926     0.045     2.379     2.412
    51   1 H        0.926     0.045     2.381     2.413
    52   1 H        0.926     0.037     2.493     2.469
    53   1 H        0.926     0.033     2.543     2.494
    54   1 H        0.926     0.028     2.616     2.529
    55   1 H        0.926     0.059     2.206     2.323
    56   1 H        0.926     0.068     2.111     2.272

molecular dipole:
                 x           y           z       tot (Debye)
 q only:       -0.052       2.723       0.430
   full:        0.263       2.668       0.450       6.909

 projected vibrational frequencies (cm⁻¹)
eigval :       -0.00    -0.00    -0.00     0.00     0.00     0.00
eigval :        7.30    12.00    15.32    24.68    26.73    30.66
eigval :       55.24    64.28    85.08    90.77   102.22   120.52
eigval :      131.02   156.01   173.40   189.29   211.97   226.43
eigval :      232.17   242.02   254.11   256.48   273.72   297.08
eigval :      333.83   348.80   358.74   374.40   382.44   386.32
eigval :      400.78   403.34   410.32   415.59   428.04   439.26
eigval :      459.66   471.50   476.36   490.79   492.34   505.71
eigval :      508.70   523.95   544.77   566.91   590.58   593.31
eigval :      614.96   620.91   637.43   648.86   650.85   657.85
eigval :      667.72   670.27   676.25   692.51   703.67   718.05
eigval :      756.02   769.70   772.00   775.07   777.70   819.61
eigval :      857.41   862.05   868.39   869.24   878.32   886.20
eigval :      900.08   901.49   904.39   908.40   910.12   910.85
eigval :      912.26   914.50   916.15   924.04   930.53   934.64
eigval :      989.92  1006.82  1041.92  1042.85  1058.69  1074.91
eigval :     1077.31  1092.36  1104.42  1106.12  1112.74  1115.86
eigval :     1148.95  1153.14  1157.03  1160.46  1171.94  1178.96
eigval :     1179.62  1181.08  1183.79  1187.95  1215.15  1228.51
eigval :     1238.88  1241.93  1247.16  1257.20  1271.30  1277.03
eigval :     1305.54  1310.42  1313.29  1317.73  1320.74  1325.57
eigval :     1331.01  1335.47  1407.88  1413.14  1420.55  1426.76
eigval :     1432.07  1458.22  1461.88  1464.98  1472.75  1479.60
eigval :     1551.20  1556.90  1561.80  1570.88  1575.67  1580.04
eigval :     1584.50  1591.84  1594.20  1599.14  3084.97  3085.18
eigval :     3088.06  3088.55  3088.98  3092.69  3093.23  3094.03
eigval :     3099.61  3102.04  3103.46  3103.95  3105.18  3105.33
eigval :     3106.20  3106.73  3108.82  3109.34  3112.02  3114.65

   temp. (K)  partition function   enthalpy   heat capacity  entropy
                                   cal/mol     cal/K/mol   cal/K/mol   J/K/mol
 298.15  VIB  0.390E+14            16710.366    105.001    103.869
         ROT  0.323E+08              888.752      2.981     37.344
         INT  0.126E+22            17599.119    107.982    141.214
         TR   0.110E+29             1481.254      4.968     44.523
         TOT                       19080.3724   112.9502   185.7363   777.1205

       T/K    H(0)-H(T)+PV         H(T)/Eh          T*S/Eh         G(T)/Eh
   ------------------------------------------------------------------------
    298.15    0.304065E-01    0.441079E+00    0.882493E-01    0.352829E+00
   ------------------------------------------------------------------------

         :::::::::::::::::::::::::::::::::::::::::::::::::::::
         ::                  THERMODYNAMIC                  ::
         :::::::::::::::::::::::::::::::::::::::::::::::::::::
         :: total free energy         -94.559899664757 Eh   ::
         ::.................................................::
         :: total energy              -94.912728991199 Eh   ::
         :: zero point energy           0.410672107786 Eh   ::
         :: G(RRHO) w/o ZPVE           -0.057842781344 Eh   ::
         :: G(RRHO) contrib.            0.352829326442 Eh   ::
         :::::::::::::::::::::::::::::::::::::::::::::::::::::

           -------------------------------------------------
          | TOTAL ENERGY              -94.912728991199 Eh   |
          | TOTAL ENTHALPY            -94.471650374482 Eh   |
          | TOTAL FREE ENERGY         -94.559899664757 Eh   |
          | GRADIENT NORM               0.000047163045 Eh/α |
          | HOMO-LUMO GAP               2.168818799990 eV   |
           -------------------------------------------------

 * finished run on 2025/08/21 at 21:18:29.496
