   * xtb version 6.7.1 (edcfbbe) compiled by 'albert@albert-system' on 2024-07-22

   ID    Z sym.   atoms
    1    8 O      1, 3
    2   16 S      2, 27
    3    6 C      4-9, 11-19, 21-26, 28-36
    4    7 N      10, 20
    5    1 H      37-56

          program call               : xtb data2507/gas/PTZ-2PTO/PTZ-2PTO.xyz --gfn 2 --ohess vtight --parallel 40 --molden --ceasefiles --namespace data2507/gas/PTZ-2PTO/PTZ-2PTO_gas_S0_preOpt
          :  Hamiltonian                  GFN2-xTB          :
 * total energy  :   -94.8862014 Eh     change       -0.1952287E-08 Eh
 * total energy  :   -94.9022836 Eh     change       -0.1608220E-01 Eh
 * total energy  :   -94.9096138 Eh     change       -0.7330212E-02 Eh
 * total energy  :   -94.9112816 Eh     change       -0.1667768E-02 Eh
 * total energy  :   -94.9120250 Eh     change       -0.7434608E-03 Eh
 * total energy  :   -94.9122523 Eh     change       -0.2272852E-03 Eh
 * total energy  :   -94.9123076 Eh     change       -0.5527491E-04 Eh
 * total energy  :   -94.9123275 Eh     change       -0.1988775E-04 Eh
 * total energy  :   -94.9123387 Eh     change       -0.1118784E-04 Eh
 * total energy  :   -94.9123452 Eh     change       -0.6554275E-05 Eh
 * total energy  :   -94.9124519 Eh     change       -0.2049470E-06 Eh
 * total energy  :   -94.9124521 Eh     change       -0.1953034E-06 Eh
 * total energy  :   -94.9124523 Eh     change       -0.1732897E-06 Eh
 * total energy  :   -94.9124524 Eh     change       -0.1660250E-06 Eh
 * total energy  :   -94.9124526 Eh     change       -0.1490153E-06 Eh
 * total energy  :   -94.9124527 Eh     change       -0.1502048E-06 Eh
 * total energy  :   -94.9124529 Eh     change       -0.1320165E-06 Eh
 * total energy  :   -94.9124530 Eh     change       -0.1370677E-06 Eh
 * total energy  :   -94.9124530 Eh     change       -0.6995720E-09 Eh
   *** GEOMETRY OPTIMIZATION CONVERGED AFTER 68 ITERATIONS ***

 final structure:
================
56
 xtb: 6.7.1 (edcfbbe)
O            3.12724084540965        3.62559190380599        1.23127476150534
S            2.96778407386059        2.89458378282976        0.00246425257304
O            3.12812115189420        3.63207824089900       -1.22231508686031
C            4.08216356885486        1.50715920630828       -0.00048567228762
C            5.43150417772053        1.80937773115179       -0.00211894264384
C            6.37656457393439        0.80272702404686       -0.00344880275214
C            5.94227150998638       -0.51522339601063       -0.00298330730227
C            4.59733374880915       -0.81979276133360       -0.00145000224744
C            3.62369012525423        0.19230283174020       -0.00022650757566
N            2.27956509326018       -0.14958212967663        0.00102220852319
C            1.95932648032070       -1.54687968361941        0.00184736815092
C            1.79983428927015       -2.21854357287329       -1.20257938802009
C            1.48243517669592       -3.56573268608654       -1.19730332348072
C            1.32447082266335       -4.23795190610448        0.00358461276529
C            1.48357080793767       -3.56444363115015        1.20359240149145
C            1.80097744757417       -2.21724091035531        1.20712907440501
C            1.21739722353438        0.73332893413079        0.00051776335200
C           -0.09633321867362        0.23585076544967        0.00015081909056
C           -1.18348405539527        1.08856747502956       -0.00062413498954
N           -2.48754995003640        0.51497409517265       -0.00072660936976
C           -3.11412164267542        0.34619547889263       -1.23366507928277
C           -2.50185547249627        0.81811684796310       -2.39577452513553
C           -3.09545160839179        0.66797439192347       -3.63667444015719
C           -4.32618283266146        0.05048126808200       -3.75302378887298
C           -4.94722132799993       -0.42765074713695       -2.61270370524244
C           -4.34791136103869       -0.29469718030918       -1.37125403548636
S           -5.20066694980568       -1.02342459752708       -0.00075705291292
C           -4.34804236568503       -0.29453669674323        1.36973650928670
C           -4.94747891150279       -0.42731773783944        2.61114431089521
C           -4.32660151055284        0.05106673539106        3.75144529349613
C           -3.09593431126312        0.66869191649533        3.63511305794950
C           -2.50221130953105        0.81865489778921        2.39425294466389
C           -3.11427180909326        0.34639032412601        1.23217349091208
C           -1.01246116528448        2.47167246771531       -0.00122538696827
C            0.27387249743326        2.97014750021739       -0.00072209750415
C            1.36417705294774        2.11936863925424        0.00021434983182
H            5.70764549275861        2.85206937775308       -0.00227655022131
H            7.42915381159169        1.03536992783987       -0.00471844163140
H            6.66158855182291       -1.32032598419666       -0.00388577751883
H            4.29258380897260       -1.85433451802537       -0.00118021391119
H            1.92430762479068       -1.68198133043820       -2.13115396312797
H            1.35703180794827       -4.08981195144947       -2.13243161690396
H            1.07576050804319       -5.28816428642238        0.00426213408058
H            1.35904454550133       -4.08751858050020        2.13939883040952
H            1.92633146654061       -1.67967817752367        2.13500188860297
H           -0.28070738183503       -0.82680591971019        0.00054921371725
H           -1.54320560747655        1.30793434494709       -2.32786733428507
H           -2.58690733435790        1.04288334912476       -4.51170615657760
H           -4.79878662007421       -0.06519944542385       -4.71549594508851
H           -5.90341088409132       -0.92494750163716       -2.67152564037235
H           -5.90364153525375       -0.92466891728843        2.66994885409840
H           -4.79929059551784       -0.06449904580803        4.71388959813715
H           -2.58753473947152        1.04384198837135        4.51012439462843
H           -1.54363490510462        1.30861756640913        2.32636347037607
H           -1.87084231205051        3.12428963243861       -0.00191201200306
H            0.46999343198828        4.03064564989050       -0.00098506220890

          :  Hamiltonian                  GFN2-xTB          :
         :: gradient norm              0.000016317589 Eh/a0 ::
         :: HOMO-LUMO gap              2.138767798837 eV    ::
         :: SCC energy               -96.483040215170 Eh    ::
         :: -> dispersion             -0.084637143264 Eh    ::
         :: repulsion energy           1.570587220932 Eh    ::

    * Orbital Energies and Occupations

         #    Occupation            Energy/Eh            Energy/eV
      -------------------------------------------------------------
         1        2.0000           -0.7693512             -20.9351
       ...           ...                  ...                  ...
        75        2.0000           -0.4351965             -11.8423
        76        2.0000           -0.4337541             -11.8030
        77        2.0000           -0.4320096             -11.7556
        78        2.0000           -0.4308522             -11.7241
        79        2.0000           -0.4280070             -11.6467
        80        2.0000           -0.4255752             -11.5805
        81        2.0000           -0.4241298             -11.5412
        82        2.0000           -0.4170035             -11.3472
        83        2.0000           -0.4137176             -11.2578
        84        2.0000           -0.4058310             -11.0432
        85        2.0000           -0.3855288             -10.4908
        86        2.0000           -0.3832010             -10.4274
        87        2.0000           -0.3420584              -9.3079 (HOMO)
        88                         -0.2634601              -7.1691 (LUMO)
        89                         -0.2610040              -7.1023
        90                         -0.2577549              -7.0139
        91                         -0.2561772              -6.9709
        92                         -0.2515061              -6.8438
        93                         -0.2440297              -6.6404
        94                         -0.2330256              -6.3409
        95                         -0.2275121              -6.1909
        96                         -0.2243599              -6.1051
        97                         -0.2033194              -5.5326
        98                         -0.1978665              -5.3842
       ...                                ...                  ...
       174                          1.2156333              33.0791
      -------------------------------------------------------------
                  HL-Gap            0.0785983 Eh            2.1388 eV

     #   Z          covCN         q      C6AA      α(0)
     1   8 O        0.860    -0.546    24.817     6.679
     2  16 S        3.851     0.958   107.866    17.480
     3   8 O        0.860    -0.545    24.815     6.679
     4   6 C        2.973    -0.095    30.389     9.042
     5   6 C        2.986    -0.018    28.458     8.751
     6   6 C        2.918    -0.033    28.827     8.804
     7   6 C        2.920    -0.024    28.615     8.772
     8   6 C        2.927    -0.051    29.274     8.873
     9   6 C        2.944     0.064    26.567     8.454
    10   7 N        2.750    -0.065    22.507     7.046
    11   6 C        2.936     0.066    26.530     8.447
    12   6 C        2.921    -0.037    28.923     8.819
    13   6 C        2.920    -0.025    28.632     8.775
    14   6 C        2.920    -0.027    28.679     8.782
    15   6 C        2.920    -0.025    28.632     8.775
    16   6 C        2.921    -0.037    28.923     8.819
    17   6 C        2.945     0.066    26.520     8.446
    18   6 C        2.931    -0.064    29.585     8.920
    19   6 C        2.932     0.076    26.306     8.411
    20   7 N        2.751    -0.076    22.712     7.078
    21   6 C        2.944     0.059    26.677     8.471
    22   6 C        2.928    -0.059    29.479     8.904
    23   6 C        2.919    -0.034    28.839     8.806
    24   6 C        2.918    -0.039    28.980     8.828
    25   6 C        2.986    -0.040    28.985     8.831
    26   6 C        2.971     0.033    27.256     8.564
    27  16 S        2.134    -0.151   147.418    20.435
    28   6 C        2.971     0.033    27.256     8.564
    29   6 C        2.986    -0.040    28.985     8.831
    30   6 C        2.918    -0.039    28.980     8.828
    31   6 C        2.919    -0.034    28.839     8.806
    32   6 C        2.928    -0.059    29.479     8.904
    33   6 C        2.944     0.059    26.677     8.471
    34   6 C        2.919    -0.045    29.126     8.850
    35   6 C        2.984    -0.019    28.480     8.754
    36   6 C        2.972    -0.100    30.503     9.059
    37   1 H        0.926     0.061     2.190     2.314
    38   1 H        0.926     0.052     2.290     2.366
    39   1 H        0.926     0.050     2.324     2.384
    40   1 H        0.926     0.045     2.382     2.413
    41   1 H        0.926     0.046     2.364     2.404
    42   1 H        0.926     0.048     2.351     2.398
    43   1 H        0.926     0.047     2.359     2.402
    44   1 H        0.926     0.048     2.351     2.398
    45   1 H        0.926     0.047     2.364     2.404
    46   1 H        0.926     0.053     2.285     2.364
    47   1 H        0.926     0.030     2.583     2.514
    48   1 H        0.926     0.036     2.503     2.474
    49   1 H        0.926     0.037     2.486     2.466
    50   1 H        0.926     0.045     2.385     2.415
    51   1 H        0.926     0.045     2.385     2.415
    52   1 H        0.926     0.037     2.486     2.466
    53   1 H        0.926     0.036     2.503     2.474
    54   1 H        0.926     0.030     2.583     2.513
    55   1 H        0.926     0.059     2.214     2.327
    56   1 H        0.926     0.066     2.132     2.283

molecular dipole:
                 x           y           z       tot (Debye)
 q only:        0.262      -2.717      -0.004
   full:        0.504      -2.455      -0.004       6.370

 projected vibrational frequencies (cm⁻¹)
eigval :       -0.00    -0.00    -0.00     0.00     0.00     0.00
eigval :      -10.65    -3.41    15.80    20.64    23.27    30.58
eigval :       49.07    62.65    86.26    92.61   101.87   119.96
eigval :      130.50   156.39   177.17   192.35   205.63   227.95
eigval :      229.09   233.35   243.74   256.94   276.52   294.66
eigval :      321.95   346.28   361.75   373.88   388.57   388.73
eigval :      396.29   398.04   410.16   420.23   428.05   442.28
eigval :      448.64   476.51   479.72   491.05   491.95   504.83
eigval :      507.27   523.97   544.95   565.91   591.84   592.05
eigval :      619.51   619.86   635.93   648.29   650.78   658.82
eigval :      668.53   669.09   669.70   692.47   703.45   717.92
eigval :      756.02   770.28   771.85   774.17   777.90   817.60
eigval :      858.05   860.28   860.46   867.24   876.46   886.26
eigval :      900.38   900.86   903.32   908.71   909.45   909.85
eigval :      910.04   915.20   915.64   924.00   929.47   934.64
eigval :      990.13  1006.18  1042.85  1043.08  1058.30  1076.55
eigval :     1077.40  1094.95  1103.93  1104.66  1112.69  1116.39
eigval :     1149.13  1152.98  1157.03  1159.81  1172.11  1179.55
eigval :     1179.59  1180.64  1183.15  1187.80  1214.59  1228.97
eigval :     1239.78  1240.70  1246.62  1256.63  1271.05  1278.39
eigval :     1305.15  1309.00  1314.97  1315.80  1324.72  1326.45
eigval :     1331.56  1335.17  1409.21  1411.80  1420.37  1426.69
eigval :     1431.83  1460.84  1464.10  1465.92  1473.26  1480.21
eigval :     1552.36  1557.01  1563.26  1570.90  1575.65  1582.92
eigval :     1584.46  1591.78  1594.86  1599.92  3087.31  3087.66
eigval :     3087.77  3088.66  3088.87  3092.52  3092.94  3094.86
eigval :     3099.80  3102.20  3102.85  3103.01  3103.88  3105.61
eigval :     3108.08  3108.17  3108.47  3111.02  3112.53  3112.76

   temp. (K)  partition function   enthalpy   heat capacity  entropy
                                   cal/mol     cal/K/mol   cal/K/mol   J/K/mol
 298.15  VIB  0.143E+15            16763.981    104.905    105.145
         ROT  0.328E+08              888.752      2.981     37.375
         INT  0.468E+22            17652.733    107.886    142.520
         TR   0.110E+29             1481.254      4.968     44.523
         TOT                       19133.9870   112.8542   187.0423   782.5851

       T/K    H(0)-H(T)+PV         H(T)/Eh          T*S/Eh         G(T)/Eh
   ------------------------------------------------------------------------
    298.15    0.304919E-01    0.441048E+00    0.888698E-01    0.352178E+00
   ------------------------------------------------------------------------

         :::::::::::::::::::::::::::::::::::::::::::::::::::::
         ::                  THERMODYNAMIC                  ::
         :::::::::::::::::::::::::::::::::::::::::::::::::::::
         :: total free energy         -94.560275016181 Eh   ::
         ::.................................................::
         :: total energy              -94.912452994236 Eh   ::
         :: zero point energy           0.410555873642 Eh   ::
         :: G(RRHO) w/o ZPVE           -0.058377895586 Eh   ::
         :: G(RRHO) contrib.            0.352177978056 Eh   ::
         :::::::::::::::::::::::::::::::::::::::::::::::::::::

           -------------------------------------------------
          | TOTAL ENERGY              -94.912452994236 Eh   |
          | TOTAL ENTHALPY            -94.471405171489 Eh   |
          | TOTAL FREE ENERGY         -94.560275016181 Eh   |
          | GRADIENT NORM               0.000016325538 Eh/α |
          | HOMO-LUMO GAP               2.138768692614 eV   |
           -------------------------------------------------

 * finished run on 2025/08/21 at 21:15:53.320
