   * xtb version 6.7.1 (edcfbbe) compiled by 'albert@albert-system' on 2024-07-22

   ID    Z sym.   atoms
    1    8 O      1, 3
    2   16 S      2, 27
    3    6 C      4-9, 11-19, 21-26, 28-36
    4    7 N      10, 20
    5    1 H      37-56

          program call               : xtb data2507/gas/PTZ-2PTO/PTZ-2PTO_gas_T1_crest.xyz --gfn 2 --spinpol --tblite --uhf 2 --ohess vtight --parallel 40 --molden --ceasefiles --namespace data2507/gas/PTZ-2PTO/PTZ-2PTO_gas_T1_finalOpt
 * total energy  :   -94.8242232 Eh     change       -0.1088290E-07 Eh
 * total energy  :   -94.8242325 Eh     change       -0.9263996E-05 Eh
 * total energy  :   -94.8242391 Eh     change       -0.6584088E-05 Eh
 * total energy  :   -94.8242422 Eh     change       -0.3059662E-05 Eh
 * total energy  :   -94.8242459 Eh     change       -0.3772534E-05 Eh
 * total energy  :   -94.8242470 Eh     change       -0.1086794E-05 Eh
 * total energy  :   -94.8242480 Eh     change       -0.9777968E-06 Eh
 * total energy  :   -94.8242489 Eh     change       -0.9093207E-06 Eh
 * total energy  :   -94.8242497 Eh     change       -0.8049984E-06 Eh
 * total energy  :   -94.8242506 Eh     change       -0.8642089E-06 Eh
 * total energy  :   -94.8242601 Eh     change       -0.4795065E-06 Eh
 * total energy  :   -94.8242606 Eh     change       -0.4917625E-06 Eh
 * total energy  :   -94.8242613 Eh     change       -0.6857803E-06 Eh
 * total energy  :   -94.8242621 Eh     change       -0.8183890E-06 Eh
 * total energy  :   -94.8242632 Eh     change       -0.1101043E-05 Eh
 * total energy  :   -94.8242644 Eh     change       -0.1193187E-05 Eh
 * total energy  :   -94.8242656 Eh     change       -0.1247651E-05 Eh
 * total energy  :   -94.8242668 Eh     change       -0.1170552E-05 Eh
 * total energy  :   -94.8242668 Eh     change       -0.1475382E-07 Eh
   *** GEOMETRY OPTIMIZATION CONVERGED AFTER 44 ITERATIONS ***

 final structure:
================
56
 xtb: 6.7.1 (edcfbbe)
O            3.49373133627057        3.04594493082044        1.60242807013674
S            3.20977204020347        2.21087247254478        0.46720925453110
O            3.37789321908758        2.79525034564705       -0.84048458466953
C            4.18457934922441        0.72567386469583        0.52238047476016
C            5.50285536494470        0.81689095314237        0.92491193175500
C            6.32975966852777       -0.28883017846690        0.86073330212443
C            5.81372858241591       -1.47957962061832        0.37028885367494
C            4.49361774982198       -1.57664297148829       -0.02024980891165
C            3.63627522492682       -0.46871183720658        0.05942739112936
N            2.30010512444941       -0.59716738060762       -0.29147844486463
C            1.90739351123621       -1.80793317577919       -0.94633601844091
C            1.96414446657588       -1.87209359563403       -2.33060121317295
C            1.58513473027052       -3.03564577572629       -2.97858861415787
C            1.14998240910076       -4.12835208973501       -2.24740639282849
C            1.09304485238131       -4.06146258926725       -0.86460899649913
C            1.47152870041166       -2.90289287021244       -0.20960426296449
C            1.29752475797719        0.28797862094086        0.06224399211167
C           -0.04376843175381       -0.09168635711593       -0.05035501846880
C           -1.05862644724269        0.76668779908663        0.36376988086239
N           -2.41725646792545        0.34787958559588        0.23236750606610
C           -3.08409017428791        0.75663733234733       -0.89213374704252
C           -2.39312792375953        1.36879563235020       -1.95393221713904
C           -3.04052002233590        1.80262221748521       -3.07871950663117
C           -4.44840002291069        1.67756305176345       -3.19151378901803
C           -5.15707616647701        1.11707522493502       -2.16692338775635
C           -4.51279305824225        0.62293243694283       -1.02488294907450
S           -5.50608179366591        0.09386791656046        0.28805156865401
C           -4.36389090077408       -0.65048758627407        1.35293334836873
C           -4.87152736226413       -1.35670609151616        2.45301529005791
C           -4.04472096054073       -1.83816171647287        3.42713039267903
C           -2.65373964694487       -1.57252146566567        3.35435784465679
C           -2.13946847825493       -0.84788014078515        2.31227840595927
C           -2.95099376267967       -0.37772110308416        1.26566431792391
C           -0.77441091636973        2.01733733752465        0.90626452004589
C            0.54372496212571        2.41137838169363        0.98705664277891
C            1.56171808028452        1.56718813033601        0.56169538545226
H            5.85205179552326        1.77377424561145        1.27960157924986
H            7.35980137190146       -0.22372010050514        1.17257059247208
H            6.44718290543763       -2.35083383928851        0.29541092808103
H            4.11955262351720       -2.51864130966912       -0.38945876700794
H            2.30563891359773       -1.01203270653420       -2.88646981411256
H            1.62926242905321       -3.08742616424209       -4.05576550199570
H            0.85461497360390       -5.03405377114164       -2.75494470119855
H            0.75381798581820       -4.91278141791587       -0.29400575356983
H            1.43268277519709       -2.83896517459386        0.86790347164340
H           -0.31680925346671       -1.05216500772802       -0.45754868350932
H           -1.32279214720736        1.48278875724355       -1.87985031540974
H           -2.47974353550461        2.25046377611793       -3.88300612209737
H           -4.94900301035441        2.02944603050891       -4.07882376999660
H           -6.23196726493072        1.02622294922683       -2.21746854804403
H           -5.93818459471700       -1.51921414649568        2.49726570570425
H           -4.43981667687502       -2.40594011894465        4.25379810534232
H           -2.00104793683707       -1.93598618228914        4.13158273686355
H           -1.08101877268743       -0.64116087328777        2.28190676815818
H           -1.57588261325894        2.66106691257513        1.23178871248542
H            0.82569023958146        3.37809860499673        1.37109827745707

 projected vibrational frequencies (cm⁻¹)
eigval :       -0.00    -0.00    -0.00     0.00     0.00     0.00
eigval :        5.93    12.46    21.72    25.03    27.39    45.10
eigval :       52.50    66.31    72.43    87.60    93.73   103.23
eigval :      129.26   149.46   154.69   182.96   202.66   209.67
eigval :      229.52   239.96   248.33   254.23   271.79   296.61
eigval :      339.62   347.95   358.58   361.58   364.51   374.14
eigval :      378.33   383.27   399.65   404.24   413.40   421.37
eigval :      433.42   439.50   465.92   472.81   482.26   506.86
eigval :      508.86   524.00   541.54   558.08   588.45   591.80
eigval :      592.93   595.02   600.22   617.40   633.49   649.67
eigval :      657.10   669.30   673.37   687.44   708.38   717.01
eigval :      732.91   736.16   753.24   773.00   774.34   800.05
eigval :      829.23   832.72   834.88   866.51   876.76   878.00
eigval :      880.52   881.89   886.25   893.17   894.02   894.42
eigval :      903.89   909.38   910.16   922.40   930.10   933.96
eigval :      987.41   997.98  1011.54  1035.01  1042.64  1050.51
eigval :     1056.19  1072.52  1076.77  1091.42  1108.80  1112.36
eigval :     1137.10  1147.34  1151.00  1159.56  1167.78  1168.21
eigval :     1176.78  1179.47  1180.67  1184.13  1201.00  1203.07
eigval :     1218.43  1224.78  1236.47  1238.41  1271.33  1277.43
eigval :     1303.88  1310.42  1314.30  1320.18  1324.01  1325.74
eigval :     1328.16  1336.72  1350.72  1375.79  1406.08  1411.86
eigval :     1425.82  1430.55  1431.16  1438.47  1447.37  1451.15
eigval :     1457.44  1468.55  1472.17  1477.60  1500.67  1525.05
eigval :     1551.26  1574.58  1579.28  1583.80  3083.68  3084.40
eigval :     3085.06  3085.97  3087.51  3092.98  3094.22  3095.80
eigval :     3098.46  3100.85  3102.25  3103.11  3104.03  3104.21
eigval :     3105.39  3108.72  3110.66  3111.23  3112.83  3115.70

   temp. (K)  partition function   enthalpy   heat capacity  entropy
                                   cal/mol     cal/K/mol   cal/K/mol   J/K/mol
 298.15  VIB  0.524E+14            17078.389    107.140    106.499
         ROT  0.328E+08              888.752      2.981     37.375
         INT  0.172E+22            17967.142    110.121    143.874
         TR   0.110E+29             1481.254      4.968     44.523
         TOT                       19448.3956   115.0889   188.3968   788.2523

       T/K    H(0)-H(T)+PV         H(T)/Eh          T*S/Eh         G(T)/Eh
   ------------------------------------------------------------------------
    298.15    0.309930E-01    0.437072E+00    0.895134E-01    0.347558E+00
   ------------------------------------------------------------------------

         :::::::::::::::::::::::::::::::::::::::::::::::::::::
         ::                  THERMODYNAMIC                  ::
         :::::::::::::::::::::::::::::::::::::::::::::::::::::
         :: total free energy         -94.476708483593 Eh   ::
         ::.................................................::
         :: total energy              -94.824266782551 Eh   ::
         :: zero point energy           0.406078718929 Eh   ::
         :: G(RRHO) w/o ZPVE           -0.058520419971 Eh   ::
         :: G(RRHO) contrib.            0.347558298958 Eh   ::
         :::::::::::::::::::::::::::::::::::::::::::::::::::::

           -------------------------------------------------
          | TOTAL ENERGY              -94.824266782551 Eh   |
          | TOTAL ENTHALPY            -94.387195072382 Eh   |
          | TOTAL FREE ENERGY         -94.476708483593 Eh   |
          | GRADIENT NORM               0.000079595325 Eh/α |
           -------------------------------------------------

 * finished run on 2025/08/21 at 21:22:05.339
