   * xtb version 6.7.1 (edcfbbe) compiled by 'albert@albert-system' on 2024-07-22

   ID    Z sym.   atoms
    1    8 O      1, 3
    2   16 S      2, 27
    3    6 C      4-9, 11-19, 21-26, 28-36
    4    7 N      10, 20
    5    1 H      37-56

          program call               : xtb data2507/gas/PTZ-2PTO/PTZ-2PTO_gas_S0_finalOpt.xtbopt.xyz --gfn 2 --spinpol --tblite --uhf 2 --ohess vtight --parallel 40 --molden --ceasefiles --namespace data2507/gas/PTZ-2PTO/PTZ-2PTO_gas_T1_preOpt
 * total energy  :   -94.8151604 Eh     change       -0.9024276E-08 Eh
 * total energy  :   -94.8217524 Eh     change       -0.6592035E-02 Eh
 * total energy  :   -94.8235573 Eh     change       -0.1804818E-02 Eh
 * total energy  :   -94.8237347 Eh     change       -0.1774488E-03 Eh
 * total energy  :   -94.8238587 Eh     change       -0.1240312E-03 Eh
 * total energy  :   -94.8239245 Eh     change       -0.6576431E-04 Eh
 * total energy  :   -94.8239888 Eh     change       -0.6429811E-04 Eh
 * total energy  :   -94.8240367 Eh     change       -0.4789938E-04 Eh
 * total energy  :   -94.8240651 Eh     change       -0.2842876E-04 Eh
 * total energy  :   -94.8240931 Eh     change       -0.2793700E-04 Eh
 * total energy  :   -94.8242258 Eh     change       -0.7665169E-06 Eh
 * total energy  :   -94.8242264 Eh     change       -0.5913750E-06 Eh
 * total energy  :   -94.8242271 Eh     change       -0.6402899E-06 Eh
 * total energy  :   -94.8242278 Eh     change       -0.7473112E-06 Eh
 * total energy  :   -94.8242286 Eh     change       -0.8325294E-06 Eh
 * total energy  :   -94.8242296 Eh     change       -0.9153140E-06 Eh
 * total energy  :   -94.8242305 Eh     change       -0.9433764E-06 Eh
 * total energy  :   -94.8242313 Eh     change       -0.7492415E-06 Eh
 * total energy  :   -94.8242313 Eh     change       -0.1443877E-07 Eh
   *** GEOMETRY OPTIMIZATION CONVERGED AFTER 44 ITERATIONS ***

 final structure:
================
56
 xtb: 6.7.1 (edcfbbe)
O            3.55082679902261       -2.86546623775563       -1.76537938400248
S            3.23804269785382       -2.13294390956306       -0.56855404808571
O            3.38798660304843       -2.82656996029988        0.68685079182525
C            4.19975764475474       -0.64073000516618       -0.48135659928387
C            5.52971798679572       -0.69572430443689       -0.85087731436733
C            6.34505365572762        0.40868447930964       -0.69021033249243
C            5.80407959174769        1.56168388022455       -0.14009550994586
C            4.47283125129299        1.62316668809681        0.21815323572216
C            3.62819065921564        0.51581579730648        0.04498805993973
N            2.28287765984159        0.61164205813564        0.37096791343838
C            1.86258088303537        1.78781373075182        1.07034257754339
C            1.91778208370339        1.80466832819800        2.45610070605163
C            1.51253661748964        2.93607168218053        3.14398370979370
C            1.05220828332702        4.04338325950347        2.45123744489947
C            0.99693740818198        4.02375985717978        1.06688899095679
C            1.40245922744445        2.89801055071681        0.37217718047531
C            1.29742588438589       -0.26162812363109       -0.05342100534416
C           -0.05088276692669        0.08744260622229        0.07510577951365
C           -1.04882633517390       -0.74989552078276       -0.41549461195794
N           -2.41464299719316       -0.36302410133367       -0.26630384822146
C           -3.10882116057654       -0.94009559026971        0.76366571469482
C           -2.43831700507749       -1.68844531912345        1.74957343610716
C           -3.11185531961216       -2.30018459072150        2.77094643347786
C           -4.52579967980216       -2.22401188882680        2.84777850254624
C           -5.21316480189353       -1.52526586728243        1.89590488661301
C           -4.54338274241550       -0.85001284929422        0.86754325706917
S           -5.50400145249363       -0.12713520224786       -0.37476029245865
C           -4.33970594559327        0.78854206635269       -1.26933302756396
C           -4.82612915295738        1.66060424998876       -2.25470005502618
C           -3.98103439695877        2.28568521211764       -3.12569574198827
C           -2.59299792540381        2.00200760590214       -3.07361605987350
C           -2.09854058013551        1.12309969470331       -2.14626446217070
C           -2.92797116919580        0.50597948021730       -1.19515491274901
C           -0.74022361594442       -1.95180985933917       -1.04815412252514
C            0.58400570104874       -2.32182272980993       -1.13906380947742
C            1.58519688606649       -1.49832588142978       -0.63985400319102
H            5.89675082680788       -1.62427465405770       -1.25883446256788
H            7.38409158619661        0.37118238113349       -0.97554401861900
H            6.42664111098148        2.43145360954244        0.00773153089384
H            4.07972147409034        2.53729806074838        0.63457622005369
H            2.27909014152195        0.93395935277816        2.98200133810913
H            1.55575808978679        2.95120899244256        4.22233574050714
H            0.73600876169088        4.92365207067663        2.98998218376296
H            0.63809588982329        4.88634274206317        0.52606564265925
H            1.36556201874939        2.87131481790578       -0.70691365463347
H           -0.34270955284802        1.00874134399341        0.55356609614738
H           -1.36312767453286       -1.76477281960147        1.70119802370804
H           -2.56709140872787       -2.85078155124370        3.52061286648883
H           -5.04707517806307       -2.71784655296862        3.65152901351209
H           -6.29089471924098       -1.46167921663717        1.92149009990858
H           -5.89182702176421        1.83071578976048       -2.29310210627954
H           -4.35987471174644        2.97850195060424       -3.85946253200459
H           -1.92632691502995        2.47408110224746       -3.77710676395685
H           -1.04180860832543        0.90659110503759       -2.13418603658607
H           -1.52844753447152       -2.57969263393302       -1.43175455356988
H            0.88408686608108       -3.25398319166018       -1.58917281741373

 projected vibrational frequencies (cm⁻¹)
eigval :       -0.00    -0.00     0.00     0.00     0.00     0.00
eigval :        6.84    11.92    21.45    25.46    29.19    45.57
eigval :       52.80    65.84    73.00    87.93    94.61   103.65
eigval :      130.02   149.33   154.78   183.33   202.49   210.30
eigval :      229.07   239.71   249.84   255.16   272.34   296.14
eigval :      339.19   348.47   357.50   362.88   365.30   374.10
eigval :      377.57   383.46   400.13   404.20   413.22   421.31
eigval :      434.16   438.96   466.74   472.95   482.14   506.66
eigval :      509.16   523.79   541.55   558.28   588.39   591.75
eigval :      593.03   594.84   599.79   617.49   633.67   649.86
eigval :      656.94   669.30   672.66   687.40   707.97   717.13
eigval :      732.47   736.38   753.39   772.85   774.26   801.14
eigval :      829.11   832.67   836.24   866.31   876.77   877.56
eigval :      880.76   881.25   887.60   893.34   893.76   894.35
eigval :      903.75   909.26   909.94   922.39   929.90   933.92
eigval :      987.53   998.32  1011.06  1035.49  1042.78  1051.27
eigval :     1056.61  1072.65  1077.01  1091.83  1108.89  1112.49
eigval :     1136.85  1147.59  1150.85  1159.47  1167.55  1168.24
eigval :     1176.83  1179.26  1180.77  1184.02  1200.72  1203.59
eigval :     1219.11  1224.82  1236.28  1238.47  1271.17  1276.88
eigval :     1303.07  1310.35  1313.81  1319.71  1323.16  1325.85
eigval :     1328.63  1336.84  1350.46  1375.39  1404.98  1410.72
eigval :     1424.39  1429.40  1431.32  1438.13  1445.55  1450.85
eigval :     1457.10  1468.03  1471.78  1477.22  1500.98  1524.77
eigval :     1550.62  1574.41  1579.31  1584.15  3084.22  3084.69
eigval :     3085.30  3086.12  3087.79  3093.44  3094.73  3095.64
eigval :     3098.79  3101.11  3102.24  3103.26  3104.32  3104.52
eigval :     3105.53  3108.92  3110.95  3111.20  3112.92  3115.72

   temp. (K)  partition function   enthalpy   heat capacity  entropy
                                   cal/mol     cal/K/mol   cal/K/mol   J/K/mol
 298.15  VIB  0.429E+14            17068.043    107.174    106.300
         ROT  0.328E+08              888.752      2.981     37.374
         INT  0.141E+22            17956.795    110.155    143.674
         TR   0.110E+29             1481.254      4.968     44.523
         TOT                       19438.0494   115.1233   188.1971   787.4167

       T/K    H(0)-H(T)+PV         H(T)/Eh          T*S/Eh         G(T)/Eh
   ------------------------------------------------------------------------
    298.15    0.309765E-01    0.437066E+00    0.894185E-01    0.347648E+00
   ------------------------------------------------------------------------

         :::::::::::::::::::::::::::::::::::::::::::::::::::::
         ::                  THERMODYNAMIC                  ::
         :::::::::::::::::::::::::::::::::::::::::::::::::::::
         :: total free energy         -94.476583317174 Eh   ::
         ::.................................................::
         :: total energy              -94.824231270400 Eh   ::
         :: zero point energy           0.406089965985 Eh   ::
         :: G(RRHO) w/o ZPVE           -0.058442012759 Eh   ::
         :: G(RRHO) contrib.            0.347647953226 Eh   ::
         :::::::::::::::::::::::::::::::::::::::::::::::::::::

           -------------------------------------------------
          | TOTAL ENERGY              -94.824231270400 Eh   |
          | TOTAL ENTHALPY            -94.387164800973 Eh   |
          | TOTAL FREE ENERGY         -94.476583317174 Eh   |
          | GRADIENT NORM               0.000077809954 Eh/α |
           -------------------------------------------------

 * finished run on 2025/08/21 at 21:18:35.719
