   * xtb version 6.7.1 (edcfbbe) compiled by 'albert@albert-system' on 2024-07-22

   ID    Z sym.   atoms
    1    6 C      1-20, 22-33, 35-57, 61-63
    2    7 N      21, 34, 58, 60
    3   16 S      59
    4    1 H      64-121

          program call               : xtb data2507/toluene/CBTD2/CBTD2_toluene_S0_finalOpt.xtbopt.xyz --gfn 2 --uhf 2 --gbsa toluene --ohess vtight --parallel 40 --molden --ceasefiles --namespace data2507/toluene/CBTD2/CBTD2_toluene_T1_preOpt
      * Solvation model:               GBSA
        Solvent                        toluene
        Solvent mass                       9.2140E+01 g/mol
          :  Hamiltonian                  GFN2-xTB          :
 * total energy  :  -168.8769800 Eh     change       -0.8959830E-08 Eh
 * total energy  :  -168.8814357 Eh     change       -0.4455725E-02 Eh
 * total energy  :  -168.8833320 Eh     change       -0.1896275E-02 Eh
 * total energy  :  -168.8836766 Eh     change       -0.3445804E-03 Eh
 * total energy  :  -168.8840051 Eh     change       -0.3285752E-03 Eh
 * total energy  :  -168.8841939 Eh     change       -0.1887816E-03 Eh
 * total energy  :  -168.8843379 Eh     change       -0.1439464E-03 Eh
 * total energy  :  -168.8844337 Eh     change       -0.9582930E-04 Eh
 * total energy  :  -168.8844950 Eh     change       -0.6126827E-04 Eh
 * total energy  :  -168.8845459 Eh     change       -0.5097586E-04 Eh
 * total energy  :  -168.8847884 Eh     change       -0.6059477E-06 Eh
 * total energy  :  -168.8847889 Eh     change       -0.4703176E-06 Eh
 * total energy  :  -168.8847893 Eh     change       -0.3566217E-06 Eh
 * total energy  :  -168.8847896 Eh     change       -0.3414592E-06 Eh
 * total energy  :  -168.8847900 Eh     change       -0.3648767E-06 Eh
 * total energy  :  -168.8847904 Eh     change       -0.3839568E-06 Eh
 * total energy  :  -168.8847907 Eh     change       -0.3924830E-06 Eh
 * total energy  :  -168.8847912 Eh     change       -0.4263548E-06 Eh
 * total energy  :  -168.8847912 Eh     change       -0.4647546E-08 Eh
   *** GEOMETRY OPTIMIZATION CONVERGED AFTER 94 ITERATIONS ***

 final structure:
================
121
 xtb: 6.7.1 (edcfbbe)
C          -10.65476198005513       -5.35850252536951        1.10827784759441
C          -10.88837850735059       -4.44909869419644       -0.10778889784040
C          -10.72157257720932       -5.25877243105596       -1.40260062406732
C          -12.33123667412970       -3.93785501492268       -0.04891721078050
C           -9.86627319073662       -3.32201297693468       -0.08639698912849
C           -8.50272913715916       -3.64147921338911       -0.13115902739989
C           -7.50591320399634       -2.68642490059278       -0.10208405485308
C           -7.88199641912859       -1.35394463551357       -0.01264642071215
C           -9.24899111046703       -1.00385663137434       -0.00087909303174
C          -10.23016438057626       -1.98312223528929       -0.03343483391474
C           -9.30098246044392        0.43539012333037        0.02904128267112
C          -10.35036282957129        1.34055891773515        0.07582601367693
C          -10.08389316625978        2.70227614438717        0.12717013407628
C          -11.18486519541139        3.75198447977569        0.16547978506095
C          -12.58749355955871        3.13720998528475        0.12826246015062
C          -11.03703605892737        4.67552989202824       -1.05333349448575
C          -11.05755529169974        4.57237655072372        1.45806677699012
C           -8.74659508288320        3.12000704556122        0.15374471633678
C           -7.68320837041464        2.24024427135585        0.10995627786646
C           -7.96296955123812        0.88398706771208        0.02398066776694
N           -7.11046112295142       -0.20556542425193        0.00147370291267
C           -5.72038100794592       -0.15636127795059       -0.01110397039325
C           -5.04278190954795        0.72428397035065       -0.86225340038643
C           -3.67162789635870        0.76742278621739       -0.87481984167232
C           -2.89723735926778       -0.06686557823209       -0.04289773764832
C           -1.46243042053728       -0.03010688166474       -0.06998226778140
C           -0.68260453174470       -1.12729372774247        0.39075730772843
C            0.68043605412827       -1.12830283024010        0.39117332069211
C            1.46239282381870       -0.03206796531798       -0.06848255791127
C            2.89710998543842       -0.07121448622371       -0.04057520851494
C            3.59731948824399       -0.95103105211818        0.81218155895214
C            4.96893278268532       -0.99706101052076        0.82917436613445
C            5.72021806084671       -0.16506856879699       -0.00808816505259
N            7.11028124009310       -0.21584855066063        0.00402512353337
C            7.88143033055244       -1.36425009439101       -0.02252276980497
C            7.50462599312164       -2.69599325744734       -0.11947652222858
C            8.50116138034145       -3.65085377077679       -0.16233863020071
C            9.86499799100650       -3.33183611726897       -0.12411081916487
C           10.88690758540968       -4.45864760072252       -0.16395644193299
C           10.66093632353448       -5.38191085835985        1.04305823414422
C           12.33012364078088       -3.94805486041611       -0.10823813942216
C           10.71210040960267       -5.25371987747552       -1.46677511239831
C           10.22937240092631       -1.99348267624895       -0.06144507360006
C            9.24856451102181       -1.01441462660336       -0.01487558928786
C            9.30102742203227        0.42455254096432        0.02654299218528
C           10.35057069603293        1.32947091878110        0.07489616997230
C           10.08423090189311        2.69074927901637        0.13781075902655
C           11.18524610785703        3.74037642602388        0.17702801289930
C           12.58769705699219        3.12618105036901        0.12602980138678
C           11.06610578564574        4.55122775730218        1.47638440360612
C           11.02932238071517        4.67288416242812       -1.03394015740330
C            8.74707992257986        3.10820245183627        0.17496600606211
C            7.68355278618310        2.22874552312255        0.12947010960063
C            7.96308537474667        0.87325323907767        0.03133925926215
C            5.04424089476179        0.72094560809510       -0.85497375742141
C            3.67320755680121        0.76590644544379       -0.86816552371455
C            0.72431458770897        1.07483852787970       -0.56196003187264
N            1.23344022710091        2.21411322992130       -1.02068708369556
S            0.00240108795550        3.22253254157488       -1.43723979478571
N           -1.23007196687113        2.21508071299144       -1.02284519970067
C           -0.72247137334852        1.07552266736204       -0.56313205198078
C           -3.59890136929819       -0.94154194556069        0.81381711110720
C           -4.97055456770497       -0.98512795199358        0.83077778815801
H          -10.74789327008667       -4.78626770204342        2.02941234842325
H          -11.39128974669359       -6.15922163512095        1.12309391309194
H           -9.66578409265449       -5.80779741189120        1.08502687000931
H          -11.46119621730953       -6.05579070072850       -1.44247792824395
H           -9.73464741843229       -5.70850187542046       -1.46698704477422
H          -10.86013665626780       -4.61562354008712       -2.26960956621876
H          -12.56128432111509       -3.31325772761824       -0.90913209973799
H          -12.50981198701072       -3.37247747813457        0.86297445299720
H          -13.01497331180353       -4.78444697950460       -0.05771111718986
H           -8.20368084071558       -4.67632889034729       -0.19596152813267
H           -6.46801240408404       -2.97619029668366       -0.16288967825095
H          -11.26356258181614       -1.68073257870642       -0.02223764904247
H          -11.35916898460811        0.96380451682119        0.07717461204432
H          -12.73873191228662        2.56194838902791       -0.78233396772957
H          -12.75782599957446        2.49629802390417        0.99034149591791
H          -13.33055818582788        3.93194973553931        0.14997948038996
H          -10.08252473576632        5.19444108245199       -1.04605130297426
H          -11.82942200588026        5.42114960883201       -1.05546409131267
H          -11.10387572209052        4.09779329489247       -1.97330876722031
H          -11.13467310195900        3.92162673643084        2.32714089729478
H          -10.10551413093640        5.09360185063695        1.50676328955018
H          -11.85320071175217        5.31277403897398        1.50978269121443
H           -8.52216853116069        4.17370376450839        0.21553189738166
H           -6.66846025499238        2.60516021431905        0.15562544898383
H           -5.60805657239683        1.34526519991553       -1.54112497755171
H           -3.16108820257094        1.43791605148362       -1.54686274673281
H           -1.19526908790768       -2.02077192842963        0.71227452827477
H            1.19132323620831       -2.02268152111181        0.71293624605242
H            3.05246949812249       -1.57157546294560        1.50642687828497
H            5.47919931645239       -1.64909128815756        1.52269707383161
H            6.46632656850090       -2.98520970721574       -0.17590769453436
H            8.20162589365927       -4.68515157869532       -0.23329022266753
H            9.67263734292917       -5.83268576381896        1.01981706222836
H           11.39885016502925       -6.18150174305312        1.04511972655724
H           10.75790388521710       -4.81990200390815        1.97006826583460
H           12.55489844560299       -3.31383255264883       -0.96277546749857
H           12.51429910342072       -3.39293246574034        0.80882085935289
H           13.01376551607435       -4.79446261957599       -0.13081006253806
H            9.72341519154539       -5.69949538226719       -1.53183176003266
H           11.44899218161932       -6.05259792799534       -1.51841273403676
H           10.84912438095885       -4.60173306921333       -2.32742019485081
H           11.26287327480638       -1.69131862334745       -0.05359977289299
H           11.35942658161142        0.95290943946762        0.06813505942993
H           12.73271218820572        2.55709114254516       -0.78945447272060
H           12.76409520884565        2.47951506963966        0.98257737574059
H           13.33076311927843        3.92091851626956        0.14792732318106
H           11.14738046671975        3.89396073918379        2.34013255025899
H           11.86287310717139        5.29033750313044        1.52913895643892
H           10.11493537637353        5.07311987540251        1.53431033419927
H           11.82094717907428        5.41931319447800       -1.03522873012948
H           11.09120368115922        4.10207884389723       -1.95857463704090
H           10.07437255844101        5.19075595588649       -1.01712198942345
H            8.52296580174080        4.16134049348360        0.24657203901063
H            6.66891980982600        2.59294674997568        0.18307634240997
H            5.61081232649482        1.34479036170872       -1.53016242510255
H            3.16397350250946        1.44036863879712       -1.53720931921796
H           -3.05496576629216       -1.55934824169902        1.51124037917436
H           -5.48197058235406       -1.63255140815479        1.52774624540413

          :  Hamiltonian                  GFN2-xTB          :
         :: gradient norm              0.000044468257 Eh/a0 ::
         :: HOMO-LUMO gap              1.181508915448 eV    ::
         :: SCC energy              -171.767270836410 Eh    ::
         :: -> dispersion             -0.155768611438 Eh    ::
         :: -> Gsolv                  -0.071748506417 Eh    ::
         :: repulsion energy           2.882479661354 Eh    ::

    * Orbital Energies and Occupations

         #    Occupation            Energy/Eh            Energy/eV
      -------------------------------------------------------------
         1        2.0000           -0.7241733             -19.7058
       ...           ...                  ...                  ...
       147        2.0000           -0.4091895             -11.1346
       148        2.0000           -0.4064539             -11.0602
       149        2.0000           -0.4016435             -10.9293
       150        2.0000           -0.4016205             -10.9286
       151        2.0000           -0.3899468             -10.6110
       152        2.0000           -0.3866110             -10.5202
       153        2.0000           -0.3828096             -10.4168
       154        2.0000           -0.3792766             -10.3206
       155        2.0000           -0.3792716             -10.3205
       156        2.0000           -0.3725680             -10.1381
       157        1.9972           -0.3631697              -9.8824
       158        1.0028           -0.3520151              -9.5788
       159        1.0000           -0.2946532              -8.0179 (HOMO)
       160                         -0.2512335              -6.8364 (LUMO)
       161                         -0.2474220              -6.7327
       162                         -0.2440026              -6.6396
       163                         -0.2339442              -6.3659
       164                         -0.2271759              -6.1818
       165                         -0.2271492              -6.1810
       166                         -0.2239033              -6.0927
       167                         -0.2238970              -6.0925
       168                         -0.2012622              -5.4766
       169                         -0.2009150              -5.4672
       170                         -0.1980815              -5.3901
       ...                                ...                  ...
       315                          0.7354987              20.0139
      -------------------------------------------------------------
                  HL-Gap            0.0434197 Eh            1.1815 eV

     #   Z          covCN         q      C6AA      α(0)
     1   6 C        3.761    -0.106    22.567     6.772
     2   6 C        3.902     0.026    20.084     6.370
     3   6 C        3.761    -0.106    22.566     6.772
     4   6 C        3.761    -0.108    22.617     6.779
     5   6 C        2.972     0.005    27.910     8.666
     6   6 C        2.930    -0.039    28.959     8.825
     7   6 C        2.908    -0.049    29.210     8.862
     8   6 C        3.075     0.043    26.968     8.514
     9   6 C        3.064    -0.016    28.339     8.729
    10   6 C        2.917    -0.042    29.041     8.837
    11   6 C        3.064    -0.016    28.343     8.730
    12   6 C        2.917    -0.042    29.043     8.837
    13   6 C        2.972     0.005    27.904     8.665
    14   6 C        3.902     0.026    20.084     6.370
    15   6 C        3.761    -0.108    22.618     6.780
    16   6 C        3.761    -0.106    22.566     6.772
    17   6 C        3.761    -0.106    22.566     6.772
    18   6 C        2.930    -0.038    28.948     8.824
    19   6 C        2.908    -0.048    29.197     8.860
    20   6 C        3.075     0.043    26.963     8.514
    21   7 N        2.800    -0.023    21.688     6.917
    22   6 C        2.912     0.060    26.653     8.466
    23   6 C        2.917    -0.041    29.031     8.835
    24   6 C        2.922    -0.034    28.858     8.809
    25   6 C        2.969     0.014    27.691     8.632
    26   6 C        2.964    -0.025    28.624     8.776
    27   6 C        2.915    -0.050    29.249     8.868
    28   6 C        2.915    -0.050    29.249     8.869
    29   6 C        2.964    -0.025    28.624     8.776
    30   6 C        2.969     0.014    27.692     8.632
    31   6 C        2.922    -0.036    28.907     8.817
    32   6 C        2.917    -0.043    29.074     8.842
    33   6 C        2.912     0.060    26.654     8.466
    34   7 N        2.800    -0.023    21.689     6.917
    35   6 C        3.075     0.043    26.967     8.514
    36   6 C        2.908    -0.049    29.210     8.862
    37   6 C        2.930    -0.039    28.958     8.825
    38   6 C        2.972     0.005    27.910     8.666
    39   6 C        3.902     0.026    20.084     6.370
    40   6 C        3.761    -0.106    22.567     6.772
    41   6 C        3.761    -0.108    22.617     6.779
    42   6 C        3.761    -0.106    22.566     6.772
    43   6 C        2.917    -0.042    29.041     8.837
    44   6 C        3.064    -0.016    28.339     8.729
    45   6 C        3.064    -0.016    28.343     8.730
    46   6 C        2.917    -0.042    29.043     8.837
    47   6 C        2.972     0.005    27.904     8.665
    48   6 C        3.902     0.026    20.084     6.370
    49   6 C        3.761    -0.108    22.618     6.780
    50   6 C        3.761    -0.106    22.566     6.772
    51   6 C        3.761    -0.106    22.566     6.772
    52   6 C        2.930    -0.038    28.948     8.824
    53   6 C        2.908    -0.048    29.196     8.860
    54   6 C        3.075     0.043    26.962     8.513
    55   6 C        2.917    -0.041    29.030     8.835
    56   6 C        2.922    -0.035    28.860     8.810
    57   6 C        3.284     0.084    24.710     7.991
    58   7 N        1.849    -0.310    28.875     7.964
    59  16 S        2.566     0.131   135.831    19.616
    60   7 N        1.849    -0.310    28.876     7.964
    61   6 C        3.285     0.084    24.705     7.989
    62   6 C        2.922    -0.036    28.907     8.817
    63   6 C        2.917    -0.043    29.075     8.842
    64   1 H        0.925     0.034     2.534     2.489
    65   1 H        0.925     0.040     2.452     2.449
    66   1 H        0.925     0.037     2.490     2.468
    67   1 H        0.925     0.040     2.450     2.448
    68   1 H        0.925     0.037     2.493     2.469
    69   1 H        0.925     0.034     2.537     2.491
    70   1 H        0.925     0.037     2.485     2.465
    71   1 H        0.925     0.037     2.484     2.464
    72   1 H        0.925     0.038     2.471     2.458
    73   1 H        0.926     0.037     2.493     2.469
    74   1 H        0.926     0.033     2.538     2.491
    75   1 H        0.926     0.047     2.362     2.403
    76   1 H        0.926     0.047     2.359     2.402
    77   1 H        0.925     0.038     2.482     2.464
    78   1 H        0.925     0.037     2.483     2.464
    79   1 H        0.925     0.038     2.469     2.457
    80   1 H        0.925     0.037     2.491     2.468
    81   1 H        0.925     0.040     2.450     2.448
    82   1 H        0.925     0.034     2.534     2.490
    83   1 H        0.925     0.034     2.536     2.490
    84   1 H        0.925     0.037     2.494     2.470
    85   1 H        0.925     0.040     2.449     2.447
    86   1 H        0.926     0.037     2.495     2.470
    87   1 H        0.926     0.034     2.536     2.490
    88   1 H        0.926     0.044     2.395     2.420
    89   1 H        0.926     0.058     2.223     2.332
    90   1 H        0.926     0.032     2.551     2.498
    91   1 H        0.926     0.032     2.551     2.498
    92   1 H        0.926     0.041     2.441     2.443
    93   1 H        0.926     0.045     2.385     2.415
    94   1 H        0.926     0.033     2.538     2.491
    95   1 H        0.926     0.037     2.494     2.469
    96   1 H        0.925     0.037     2.490     2.467
    97   1 H        0.925     0.040     2.452     2.449
    98   1 H        0.925     0.034     2.534     2.489
    99   1 H        0.925     0.037     2.485     2.465
   100   1 H        0.925     0.037     2.484     2.464
   101   1 H        0.925     0.038     2.471     2.458
   102   1 H        0.925     0.037     2.493     2.469
   103   1 H        0.925     0.040     2.450     2.448
   104   1 H        0.925     0.034     2.537     2.491
   105   1 H        0.926     0.047     2.362     2.403
   106   1 H        0.926     0.047     2.359     2.402
   107   1 H        0.925     0.038     2.482     2.464
   108   1 H        0.925     0.037     2.483     2.464
   109   1 H        0.925     0.038     2.469     2.457
   110   1 H        0.925     0.034     2.536     2.490
   111   1 H        0.925     0.040     2.449     2.447
   112   1 H        0.925     0.037     2.494     2.470
   113   1 H        0.925     0.040     2.450     2.448
   114   1 H        0.925     0.034     2.534     2.490
   115   1 H        0.925     0.037     2.491     2.468
   116   1 H        0.926     0.037     2.495     2.470
   117   1 H        0.926     0.034     2.536     2.491
   118   1 H        0.926     0.044     2.396     2.420
   119   1 H        0.926     0.058     2.221     2.331
   120   1 H        0.926     0.041     2.441     2.443
   121   1 H        0.926     0.045     2.384     2.415

molecular dipole:
                 x           y           z       tot (Debye)
 q only:       -0.004      -1.546       0.583
   full:       -0.004      -1.857       0.741       5.082

 projected vibrational frequencies (cm⁻¹)
eigval :       -0.00    -0.00     0.00     0.00     0.00     0.00
eigval :        3.32     6.93     9.81    14.44    20.86    21.24
eigval :       33.30    33.96    35.35    36.92    37.39    53.22
eigval :       55.33    57.10    58.78    64.49    72.52    85.18
eigval :       90.55    98.51   102.81   103.48   109.11   120.89
eigval :      124.28   147.87   154.77   158.55   161.21   172.13
eigval :      175.01   180.61   183.46   187.31   197.48   200.24
eigval :      201.20   213.65   215.99   220.54   222.58   227.78
eigval :      228.79   231.92   236.79   248.83   256.37   257.85
eigval :      270.01   273.99   275.80   291.12   298.65   314.61
eigval :      317.81   318.53   322.07   323.02   325.87   326.69
eigval :      338.21   340.18   341.95   358.01   358.51   359.14
eigval :      366.08   368.14   383.32   383.77   389.04   391.17
eigval :      398.03   398.97   403.89   408.32   409.43   417.53
eigval :      441.03   441.56   441.97   443.39   449.53   462.58
eigval :      463.36   464.16   465.27   465.36   472.41   491.52
eigval :      492.80   517.83   517.98   524.36   533.28   558.80
eigval :      564.95   576.00   579.98   580.13   581.55   585.59
eigval :      586.14   597.89   606.23   617.92   628.56   628.98
eigval :      639.81   641.76   641.96   680.53   681.55   685.62
eigval :      691.31   692.04   708.02   709.12   716.19   716.83
eigval :      718.96   719.79   738.50   754.65   790.16   792.34
eigval :      814.93   816.14   824.46   824.85   827.07   827.73
eigval :      830.04   830.13   832.06   850.79   853.78   871.27
eigval :      871.74   871.98   872.62   873.52   873.96   892.33
eigval :      902.07   908.53   910.10   910.33   913.79   913.85
eigval :      922.78   922.82   926.04   926.55   928.10   928.74
eigval :      934.68   936.54   948.85   958.59   958.90   959.09
eigval :      959.54   961.21   961.37   961.60   962.16   962.26
eigval :      962.62   962.79   963.50   963.80  1010.97  1015.07
eigval :     1029.80  1029.89  1033.54  1033.69  1033.85  1034.15
eigval :     1035.14  1035.29  1039.96  1040.09  1106.37  1111.40
eigval :     1112.76  1127.38  1127.48  1140.23  1140.75  1141.10
eigval :     1144.38  1151.34  1168.08  1168.17  1186.92  1188.95
eigval :     1209.78  1216.64  1224.32  1224.40  1224.54  1224.55
eigval :     1228.24  1228.43  1229.00  1229.06  1230.91  1230.97
eigval :     1238.12  1240.04  1252.07  1255.12  1258.15  1262.83
eigval :     1269.72  1272.91  1280.80  1281.43  1286.67  1293.52
eigval :     1293.74  1300.95  1301.03  1319.40  1319.69  1342.38
eigval :     1344.09  1344.67  1345.48  1347.21  1354.59  1373.60
eigval :     1376.24  1399.17  1399.24  1401.71  1402.06  1402.13
eigval :     1402.68  1403.30  1403.37  1406.38  1408.01  1410.52
eigval :     1417.10  1418.59  1426.54  1426.91  1427.05  1427.10
eigval :     1431.24  1434.34  1440.31  1440.39  1467.04  1467.07
eigval :     1476.20  1477.23  1477.52  1478.49  1487.32  1487.49
eigval :     1488.30  1488.47  1491.01  1491.05  1491.24  1491.36
eigval :     1497.77  1497.80  1497.93  1498.10  1500.60  1500.77
eigval :     1501.68  1501.89  1503.51  1504.42  1511.18  1511.19
eigval :     1511.33  1511.50  1516.59  1516.77  1517.87  1518.15
eigval :     1534.63  1563.28  1563.72  1563.79  1573.70  1575.52
eigval :     1579.58  1585.81  1585.88  1599.90  1604.04  3020.42
eigval :     3020.49  3020.62  3020.70  3020.78  3021.14  3021.24
eigval :     3021.45  3024.22  3024.48  3024.49  3024.67  3025.20
eigval :     3025.57  3026.10  3026.36  3028.15  3028.31  3028.58
eigval :     3028.75  3031.39  3031.41  3031.56  3031.59  3036.69
eigval :     3036.79  3037.00  3037.15  3044.06  3044.11  3045.04
eigval :     3045.07  3047.44  3047.50  3048.47  3048.48  3080.42
eigval :     3081.77  3083.35  3083.83  3083.89  3084.43  3084.76
eigval :     3086.73  3086.86  3093.90  3095.50  3095.65  3095.66
eigval :     3096.38  3099.04  3101.05  3114.22  3114.54  3119.66
eigval :     3119.93  3122.22  3122.64

   temp. (K)  partition function   enthalpy   heat capacity  entropy
                                   cal/mol     cal/K/mol   cal/K/mol   J/K/mol
 298.15  VIB  0.109E+29            35484.852    218.455    221.624
         ROT  0.404E+09              888.752      2.981     42.362
         INT  0.439E+37            36373.604    221.436    263.987
         TR   0.237E+29             1481.254      4.968     46.052
         TOT                       37854.8578   226.4039   310.0389  1297.2029

       T/K    H(0)-H(T)+PV         H(T)/Eh          T*S/Eh         G(T)/Eh
   ------------------------------------------------------------------------
    298.15    0.603256E-01    0.105029E+01    0.147309E+00    0.902980E+00
   ------------------------------------------------------------------------

         :::::::::::::::::::::::::::::::::::::::::::::::::::::
         ::                  THERMODYNAMIC                  ::
         :::::::::::::::::::::::::::::::::::::::::::::::::::::
         :: total free energy        -167.981810680326 Eh   ::
         ::.................................................::
         :: total energy             -168.884791176068 Eh   ::
         :: zero point energy           0.989964438439 Eh   ::
         :: G(RRHO) w/o ZPVE           -0.086983942698 Eh   ::
         :: G(RRHO) contrib.            0.902980495742 Eh   ::
         :::::::::::::::::::::::::::::::::::::::::::::::::::::

           -------------------------------------------------
          | TOTAL ENERGY             -168.884791176068 Eh   |
          | TOTAL ENTHALPY           -167.834501181866 Eh   |
          | TOTAL FREE ENERGY        -167.981810680326 Eh   |
          | GRADIENT NORM               0.000044455886 Eh/α |
          | HOMO-LUMO GAP               1.181508973230 eV   |
           -------------------------------------------------

 * finished run on 2025/09/10 at 20:49:47.329
