   * xtb version 6.7.1 (edcfbbe) compiled by 'albert@albert-system' on 2024-07-22

   ID    Z sym.   atoms
    1    6 C      1-20, 22-33, 35-57, 61-63
    2    7 N      21, 34, 58, 60
    3   16 S      59
    4    1 H      64-121

          program call               : xtb data2507/toluene/CBTD2/CBTD2_toluene_S0_crest.xyz --gfn 2 --gbsa toluene --ohess vtight --parallel 40 --molden --ceasefiles --namespace data2507/toluene/CBTD2/CBTD2_toluene_S0_finalOpt
      * Solvation model:               GBSA
        Solvent                        toluene
        Solvent mass                       9.2140E+01 g/mol
          :  Hamiltonian                  GFN2-xTB          :
 * total energy  :  -168.9411056 Eh     change       -0.6862905E-08 Eh
 * total energy  :  -168.9411491 Eh     change       -0.4349672E-04 Eh
 * total energy  :  -168.9411725 Eh     change       -0.2333864E-04 Eh
 * total energy  :  -168.9411843 Eh     change       -0.1188213E-04 Eh
 * total energy  :  -168.9411915 Eh     change       -0.7149882E-05 Eh
 * total energy  :  -168.9411952 Eh     change       -0.3662956E-05 Eh
 * total energy  :  -168.9411982 Eh     change       -0.2999447E-05 Eh
 * total energy  :  -168.9412010 Eh     change       -0.2820399E-05 Eh
 * total energy  :  -168.9412038 Eh     change       -0.2863965E-05 Eh
 * total energy  :  -168.9412070 Eh     change       -0.3139924E-05 Eh
 * total energy  :  -168.9414326 Eh     change       -0.4385490E-06 Eh
 * total energy  :  -168.9414331 Eh     change       -0.4848096E-06 Eh
 * total energy  :  -168.9414336 Eh     change       -0.5346841E-06 Eh
 * total energy  :  -168.9414341 Eh     change       -0.4732288E-06 Eh
 * total energy  :  -168.9414345 Eh     change       -0.4260617E-06 Eh
 * total energy  :  -168.9414349 Eh     change       -0.4409609E-06 Eh
 * total energy  :  -168.9414355 Eh     change       -0.5661542E-06 Eh
 * total energy  :  -168.9414364 Eh     change       -0.8749322E-06 Eh
 * total energy  :  -168.9414364 Eh     change       -0.3390852E-08 Eh
   *** GEOMETRY OPTIMIZATION CONVERGED AFTER 122 ITERATIONS ***

 final structure:
================
121
 xtb: 6.7.1 (edcfbbe)
C          -10.75255690887020       -5.31568554610070        1.16839309277613
C          -10.91585828893513       -4.44494025234961       -0.08652784003892
C          -10.69102874981817       -5.29788882333137       -1.34407613192779
C          -12.35617455152196       -3.92403075814885       -0.11846867338380
C           -9.88758537743896       -3.32224841429942       -0.04957075828175
C           -8.52541397148417       -3.65203848781021       -0.02822087208112
C           -7.52329607633859       -2.70388074700374        0.01667930165938
C           -7.89069994966485       -1.36734513555223        0.05251156928904
C           -9.25380093401197       -1.00711662332251        0.00415695449085
C          -10.24152728689656       -1.98285006310880       -0.04246964301718
C           -9.29611115420083        0.42984301030941       -0.00051980009564
C          -10.34029045423546        1.34590108080264       -0.02425668774561
C          -10.06620750139343        2.70368232228861        0.00047377707592
C          -11.15838780779187        3.76431482824593       -0.03594922156985
C          -12.56303436653765        3.16039362608300       -0.13138987993570
C          -10.94516217089573        4.66466899249271       -1.26221774938062
C          -11.08792316045668        4.60717894556781        1.24628492623733
C           -8.72733035291650        3.11274630408854        0.07215421541498
C           -7.67054977604264        2.22526240182036        0.09667546536513
C           -7.95645469501048        0.86969116418480        0.03803818731699
N           -7.11145600317984       -0.22483287906551        0.07166511505524
C           -5.71411035074612       -0.18309169074345        0.09183089413448
C           -5.02030212727804        0.63976425962289       -0.79385093917237
C           -3.64234681494541        0.68410240959059       -0.77089131485679
C           -2.91463240917899       -0.10362106854502        0.12152403836315
C           -1.45171719706400       -0.07999727652702        0.12655771964803
C           -0.69837899343082       -1.20935693236939        0.37207533191646
C            0.70211768443784       -1.20772461683629        0.36716577310467
C            1.45258567791991       -0.07651497172825        0.11932311782736
C            2.91548971189736       -0.09902457210544        0.10724768134917
C            3.62181910023012       -0.94494575443176        0.96482548225307
C            5.00024587004357       -0.98224872222870        0.94951083766671
C            5.71508110056890       -0.17819287528200        0.06352532757876
N            7.11251417689377       -0.22127762713332        0.03790454522858
C            7.88776741724003       -1.36429032501469       -0.02781453885088
C            7.51461034699154       -2.69597377129735       -0.12758543266738
C            8.51307887755555       -3.64512958397161       -0.21352357870006
C            9.87665620359342       -3.32029601163885       -0.21231823220678
C           10.90050427306884       -4.44378555415405       -0.30707485725561
C           10.71508428020258       -5.39821718706033        0.88215639362258
C           12.34333024538448       -3.92955884603956       -0.28064171323667
C           10.69119825835298       -5.20761846356500       -1.62337472664464
C           10.23628095950408       -1.98442011604696       -0.13743507913914
C            9.25240709527265       -1.00754045942680       -0.04993692485745
C            9.29945538938817        0.42790702331381        0.01388765643699
C           10.34641483498146        1.34054917722150        0.04473969458590
C           10.07610712421632        2.69670142742008        0.12968727421554
C           11.17193282639658        3.75399467786041        0.15413810307741
C           12.57672876295512        3.14872940310467        0.06973195853886
C           11.07668469910403        4.55449557781674        1.46168163641671
C           10.98718180420829        4.69504138784014       -1.04593930801778
C            8.73762457485613        3.10717782186900        0.20130047613924
C            7.67796184631039        2.22322057118931        0.17323625977571
C            7.96086606648198        0.87047511489327        0.06052656157268
C            5.01839597404942        0.66996584422450       -0.79518634524154
C            3.64032620719367        0.71219870003602       -0.76666068556666
C            0.71957249823033        1.11053593891052       -0.13027941008589
N            1.21173388068629        2.32965081118503       -0.35691724545214
S           -0.00702344837127        3.36107437927466       -0.54652472949885
N           -1.22107830842278        2.32499150730263       -0.35335033719663
C           -0.72297439419201        1.10814130154527       -0.12788824161201
C           -3.61685724339895       -0.92645682702487        1.00401247139150
C           -4.99556575221751       -0.96178854497749        0.99739852705545
H          -10.89689150083387       -4.71435436730094        2.06413711959056
H          -11.48891199791578       -6.11697282551615        1.16768150719433
H           -9.76339715186769       -5.76305705481301        1.21501728288538
H          -11.43709691717124       -6.08821580005904       -1.39930858844984
H           -9.70757566441186       -5.75982563677561       -1.34104380699914
H          -10.77447590550964       -4.68070144894901       -2.23672748961544
H          -12.53471705342433       -3.32109563110360       -1.00608028596488
H          -12.57827517968654       -3.33188498228286        0.76652421984829
H          -13.04542264840785       -4.76613056505054       -0.14035346306507
H           -8.23235171315774       -4.69085308533208       -0.05115813699515
H           -6.48582174534192       -3.00309718153428        0.01116286966783
H          -11.27212147632093       -1.67121249187908       -0.07686163701155
H          -11.35093267647473        0.97436278236102       -0.05745642395198
H          -12.67098327277211        2.56293505498910       -1.03397079519751
H          -12.78369957844116        2.54162668297726        0.73555428854946
H          -13.29944297853389        3.96101483488972       -0.16807234955876
H           -9.98794361220480        5.17677966604066       -1.21791898048319
H          -11.73050498385961        5.41601744015432       -1.31681355195591
H          -10.97160346100905        4.07025726792161       -2.17366111134622
H          -11.21372208961257        3.97209555387390        2.12128330798206
H          -10.13354137766841        5.11944941305610        1.33274330874546
H          -11.87760132300737        5.35597407354131        1.24636445347350
H           -8.49773762949218        4.16673960281525        0.11395663615517
H           -6.65478190943395        2.58423574151999        0.16984965063206
H           -5.56904416736474        1.23010025501303       -1.51213929267604
H           -3.11655302551333        1.32174368821217       -1.46382648472382
H           -1.20470314415947       -2.14675682016385        0.54772967568801
H            1.21049194916709       -2.14486412592003        0.53769930163880
H            3.08568810392076       -1.55572123308834        1.67588574025660
H            5.53423543964839       -1.61995261689982        1.63824667080096
H            6.47557391943730       -2.98909384948930       -0.15154791359875
H            8.21618777144505       -4.68031968613030       -0.28914281779209
H            9.72543538269806       -5.84680666490512        0.88156451860066
H           11.45096392534094       -6.19874858853577        0.83841083700302
H           10.84491660080881       -4.86031127834485        1.81947323930531
H           12.54193827386749       -3.27623425237964       -1.12733849086875
H           12.55018822220395       -3.39187366649920        0.64205960284956
H           13.02931160715109       -4.77254076444504       -0.33925714803116
H            9.70264803240262       -5.65643569106103       -1.66918890308064
H           11.42989403440699       -6.00115614469971       -1.71793140381431
H           10.79837165340648       -4.53322611590765       -2.47103687319455
H           11.26842257095844       -1.67630850752046       -0.15101744149134
H           11.35629569793905        0.96756342206290        0.00527420614803
H           12.70659508113500        2.58898176816689       -0.85384928998829
H           12.77257279181092        2.49349730021723        0.91562684493161
H           13.31637341059048        3.94705769877910        0.08540111068820
H           11.18056503331372        3.89059074429783        2.31796197479401
H           11.86950116585902        5.29879491968603        1.50369125926815
H           10.12323773961508        5.06900406098366        1.54436766109390
H           11.77424914259750        5.44645925639146       -1.05810894370709
H           11.03315763433405        4.13112011957096       -1.97582000226244
H           10.02940718467059        5.20654265207800       -1.00551691722847
H            8.51069767349006        4.15924537248397        0.28523408223162
H            6.66211955407303        2.58158478282742        0.24873581546946
H            5.56481529411325        1.28177110612484       -1.49724609466038
H            3.11219096017648        1.36829399103525       -1.44018483432310
H           -3.07656623260917       -1.51898735798744        1.72738721946475
H           -5.52612412516627       -1.57800564584190        1.70784442480269

          :  Hamiltonian                  GFN2-xTB          :
         :: gradient norm              0.000042950873 Eh/a0 ::
         :: HOMO-LUMO gap              1.197892031932 eV    ::
         :: SCC energy              -171.839669497413 Eh    ::
         :: -> dispersion             -0.155900356671 Eh    ::
         :: -> Gsolv                  -0.066904290096 Eh    ::
         :: repulsion energy           2.898233126046 Eh    ::

    * Orbital Energies and Occupations

         #    Occupation            Energy/Eh            Energy/eV
      -------------------------------------------------------------
         1        2.0000           -0.7642134             -20.7953
       ...           ...                  ...                  ...
       146        2.0000           -0.4103422             -11.1660
       147        2.0000           -0.4072461             -11.0817
       148        2.0000           -0.4067875             -11.0693
       149        2.0000           -0.4055464             -11.0355
       150        2.0000           -0.4043728             -11.0035
       151        2.0000           -0.4042467             -11.0001
       152        2.0000           -0.3942366             -10.7277
       153        2.0000           -0.3941866             -10.7264
       154        2.0000           -0.3828828             -10.4188
       155        2.0000           -0.3710216             -10.0960
       156        2.0000           -0.3709681             -10.0946
       157        2.0000           -0.3558154              -9.6822
       158        2.0000           -0.3532472              -9.6123 (HOMO)
       159                         -0.3092255              -8.4145 (LUMO)
       160                         -0.2559275              -6.9641
       161                         -0.2412712              -6.5653
       162                         -0.2379323              -6.4745
       163                         -0.2328550              -6.3363
       164                         -0.2301996              -6.2641
       165                         -0.2300744              -6.2606
       166                         -0.2208262              -6.0090
       167                         -0.2182349              -5.9385
       168                         -0.2153157              -5.8590
       169                         -0.2152447              -5.8571
       ...                                ...                  ...
       315                          0.7437654              20.2389
      -------------------------------------------------------------
                  HL-Gap            0.0440217 Eh            1.1979 eV

     #   Z          covCN         q      C6AA      α(0)
     1   6 C        3.761    -0.104    22.540     6.768
     2   6 C        3.902     0.025    20.104     6.373
     3   6 C        3.761    -0.104    22.541     6.768
     4   6 C        3.761    -0.106    22.576     6.773
     5   6 C        2.972    -0.003    28.098     8.695
     6   6 C        2.931    -0.041    29.020     8.835
     7   6 C        2.908    -0.055    29.368     8.886
     8   6 C        3.077     0.043    26.950     8.511
     9   6 C        3.066    -0.021    28.465     8.749
    10   6 C        2.918    -0.046    29.130     8.851
    11   6 C        3.066    -0.021    28.468     8.749
    12   6 C        2.918    -0.046    29.132     8.851
    13   6 C        2.972    -0.003    28.094     8.694
    14   6 C        3.902     0.025    20.104     6.373
    15   6 C        3.761    -0.106    22.577     6.773
    16   6 C        3.761    -0.105    22.543     6.768
    17   6 C        3.761    -0.104    22.541     6.768
    18   6 C        2.931    -0.041    29.014     8.834
    19   6 C        2.908    -0.055    29.360     8.885
    20   6 C        3.078     0.043    26.948     8.511
    21   7 N        2.800    -0.048    22.163     6.992
    22   6 C        2.912     0.066    26.528     8.446
    23   6 C        2.920    -0.043    29.075     8.842
    24   6 C        2.924    -0.030    28.739     8.791
    25   6 C        2.974     0.008    27.825     8.653
    26   6 C        2.965    -0.007    28.183     8.708
    27   6 C        2.924    -0.041    29.013     8.833
    28   6 C        2.924    -0.041    29.014     8.833
    29   6 C        2.964    -0.007    28.186     8.708
    30   6 C        2.974     0.009    27.824     8.652
    31   6 C        2.924    -0.035    28.859     8.810
    32   6 C        2.920    -0.044    29.094     8.845
    33   6 C        2.912     0.066    26.528     8.446
    34   7 N        2.801    -0.048    22.168     6.993
    35   6 C        3.078     0.043    26.948     8.511
    36   6 C        2.908    -0.055    29.367     8.886
    37   6 C        2.931    -0.041    29.019     8.834
    38   6 C        2.972    -0.003    28.100     8.695
    39   6 C        3.902     0.025    20.104     6.373
    40   6 C        3.761    -0.104    22.542     6.768
    41   6 C        3.761    -0.106    22.576     6.773
    42   6 C        3.761    -0.104    22.539     6.768
    43   6 C        2.918    -0.046    29.131     8.851
    44   6 C        3.066    -0.021    28.467     8.749
    45   6 C        3.066    -0.021    28.470     8.749
    46   6 C        2.918    -0.046    29.132     8.851
    47   6 C        2.972    -0.003    28.096     8.695
    48   6 C        3.902     0.025    20.104     6.373
    49   6 C        3.761    -0.106    22.576     6.773
    50   6 C        3.761    -0.104    22.541     6.768
    51   6 C        3.761    -0.104    22.542     6.768
    52   6 C        2.931    -0.041    29.013     8.834
    53   6 C        2.908    -0.055    29.361     8.885
    54   6 C        3.078     0.043    26.946     8.511
    55   6 C        2.920    -0.043    29.070     8.842
    56   6 C        2.924    -0.030    28.746     8.792
    57   6 C        3.342     0.074    23.898     7.726
    58   7 N        1.852    -0.279    28.079     7.854
    59  16 S        2.662     0.323   128.592    19.086
    60   7 N        1.852    -0.279    28.080     7.854
    61   6 C        3.343     0.074    23.870     7.718
    62   6 C        2.924    -0.034    28.858     8.810
    63   6 C        2.920    -0.044    29.099     8.846
    64   1 H        0.925     0.032     2.559     2.502
    65   1 H        0.925     0.037     2.485     2.465
    66   1 H        0.925     0.035     2.512     2.479
    67   1 H        0.925     0.037     2.485     2.465
    68   1 H        0.925     0.035     2.513     2.479
    69   1 H        0.925     0.032     2.561     2.503
    70   1 H        0.925     0.035     2.513     2.479
    71   1 H        0.925     0.035     2.512     2.478
    72   1 H        0.925     0.036     2.501     2.473
    73   1 H        0.926     0.029     2.599     2.521
    74   1 H        0.926     0.026     2.649     2.545
    75   1 H        0.926     0.037     2.484     2.465
    76   1 H        0.926     0.037     2.484     2.465
    77   1 H        0.925     0.035     2.511     2.478
    78   1 H        0.925     0.035     2.514     2.479
    79   1 H        0.925     0.036     2.500     2.473
    80   1 H        0.925     0.036     2.508     2.477
    81   1 H        0.925     0.037     2.486     2.466
    82   1 H        0.925     0.032     2.559     2.502
    83   1 H        0.925     0.032     2.562     2.503
    84   1 H        0.925     0.035     2.512     2.479
    85   1 H        0.925     0.037     2.483     2.464
    86   1 H        0.926     0.029     2.593     2.518
    87   1 H        0.926     0.026     2.638     2.540
    88   1 H        0.926     0.044     2.395     2.420
    89   1 H        0.926     0.047     2.355     2.400
    90   1 H        0.926     0.048     2.348     2.396
    91   1 H        0.926     0.048     2.346     2.395
    92   1 H        0.926     0.042     2.428     2.437
    93   1 H        0.926     0.044     2.397     2.421
    94   1 H        0.926     0.025     2.654     2.547
    95   1 H        0.926     0.029     2.600     2.521
    96   1 H        0.925     0.035     2.511     2.478
    97   1 H        0.925     0.037     2.487     2.466
    98   1 H        0.925     0.032     2.559     2.501
    99   1 H        0.925     0.035     2.513     2.479
   100   1 H        0.925     0.035     2.512     2.479
   101   1 H        0.925     0.036     2.501     2.473
   102   1 H        0.925     0.035     2.514     2.480
   103   1 H        0.925     0.037     2.484     2.465
   104   1 H        0.925     0.032     2.562     2.503
   105   1 H        0.926     0.037     2.485     2.465
   106   1 H        0.926     0.037     2.485     2.465
   107   1 H        0.925     0.035     2.512     2.478
   108   1 H        0.925     0.035     2.514     2.479
   109   1 H        0.925     0.036     2.501     2.473
   110   1 H        0.925     0.032     2.562     2.503
   111   1 H        0.925     0.037     2.484     2.465
   112   1 H        0.925     0.035     2.512     2.478
   113   1 H        0.925     0.037     2.485     2.465
   114   1 H        0.925     0.032     2.559     2.502
   115   1 H        0.925     0.036     2.509     2.477
   116   1 H        0.926     0.029     2.594     2.519
   117   1 H        0.926     0.026     2.641     2.542
   118   1 H        0.926     0.044     2.396     2.421
   119   1 H        0.926     0.048     2.343     2.393
   120   1 H        0.926     0.041     2.431     2.438
   121   1 H        0.926     0.044     2.395     2.420

molecular dipole:
                 x           y           z       tot (Debye)
 q only:       -0.017      -0.233      -0.004
   full:       -0.017      -0.478       0.075       1.230

 projected vibrational frequencies (cm⁻¹)
eigval :       -0.00    -0.00    -0.00     0.00     0.00     0.00
eigval :       -4.66     5.43     8.12    13.73    18.89    22.54
eigval :       27.65    30.53    34.62    37.42    38.39    49.72
eigval :       54.15    55.29    58.77    66.19    71.06    82.96
eigval :       86.97    96.44    98.96    99.85   105.69   120.54
eigval :      126.39   153.07   157.36   159.49   165.27   171.46
eigval :      175.41   181.41   186.19   187.82   194.87   201.65
eigval :      201.90   208.75   215.57   219.58   221.73   224.59
eigval :      228.74   230.83   233.92   253.27   257.91   259.33
eigval :      273.13   273.92   274.58   287.66   302.57   316.88
eigval :      317.52   321.34   323.65   324.53   326.73   328.88
eigval :      337.93   342.21   347.80   357.94   359.79   361.36
eigval :      370.05   381.39   383.07   383.61   390.15   396.17
eigval :      396.60   400.07   410.89   412.30   417.21   440.51
eigval :      441.06   441.60   442.90   447.16   458.19   463.68
eigval :      464.75   465.27   467.15   473.55   480.68   488.27
eigval :      501.00   518.53   519.55   533.87   543.70   563.72
eigval :      572.33   579.24   581.96   582.40   584.59   585.75
eigval :      601.34   603.38   617.99   627.30   632.37   635.62
eigval :      639.40   640.90   649.02   687.56   689.15   689.30
eigval :      690.28   691.12   705.96   707.49   719.95   720.27
eigval :      721.64   739.37   744.45   765.97   811.69   816.95
eigval :      822.73   823.37   823.96   826.69   830.33   830.60
eigval :      841.24   864.94   867.07   867.33   872.42   872.66
eigval :      873.45   874.75   875.02   876.14   884.91   905.15
eigval :      908.12   911.20   912.19   913.18   914.49   916.92
eigval :      922.77   923.80   926.63   926.84   929.07   931.06
eigval :      935.13   937.53   957.36   957.98   958.58   958.88
eigval :      959.69   960.23   960.99   961.38   961.53   962.02
eigval :      962.04   962.59   963.28   973.37  1020.24  1026.73
eigval :     1029.77  1031.23  1033.81  1034.31  1034.40  1034.65
eigval :     1034.71  1036.54  1040.36  1041.26  1115.04  1115.31
eigval :     1128.08  1128.69  1132.11  1137.10  1139.60  1140.75
eigval :     1142.11  1143.68  1175.79  1176.23  1189.59  1189.97
eigval :     1210.94  1214.43  1225.30  1225.44  1225.60  1225.83
eigval :     1228.83  1229.04  1230.09  1230.31  1236.26  1236.44
eigval :     1241.40  1243.84  1250.98  1259.19  1260.98  1266.02
eigval :     1267.39  1274.76  1283.53  1283.95  1299.29  1302.49
eigval :     1305.01  1307.19  1307.55  1309.34  1316.64  1325.08
eigval :     1345.15  1345.34  1348.50  1356.50  1356.97  1368.45
eigval :     1378.40  1378.74  1398.66  1399.29  1400.51  1401.26
eigval :     1401.87  1401.92  1402.54  1403.32  1404.77  1408.84
eigval :     1413.99  1417.21  1425.65  1426.23  1426.74  1426.89
eigval :     1438.36  1439.48  1477.59  1480.40  1480.63  1483.26
eigval :     1483.48  1488.10  1488.77  1489.04  1489.32  1491.11
eigval :     1491.68  1492.05  1492.19  1492.36  1498.85  1499.18
eigval :     1499.21  1499.52  1501.51  1502.09  1502.42  1502.88
eigval :     1504.95  1511.10  1511.25  1511.44  1512.10  1517.92
eigval :     1518.24  1518.98  1519.12  1527.45  1548.95  1553.53
eigval :     1563.99  1569.31  1569.84  1580.13  1580.54  1589.60
eigval :     1591.97  1602.67  1602.68  1615.22  1615.28  3017.30
eigval :     3017.97  3018.03  3018.58  3018.67  3018.71  3018.78
eigval :     3018.79  3022.28  3022.42  3022.46  3022.87  3023.78
eigval :     3023.79  3023.94  3023.98  3026.08  3026.21  3026.22
eigval :     3026.69  3029.81  3030.04  3030.08  3030.24  3034.84
eigval :     3035.06  3035.21  3035.32  3041.93  3042.17  3043.83
eigval :     3043.86  3045.27  3045.41  3047.24  3047.34  3075.68
eigval :     3075.75  3076.11  3076.66  3079.76  3080.47  3084.68
eigval :     3088.24  3088.24  3088.75  3088.98  3089.66  3090.02
eigval :     3092.61  3093.10  3095.78  3107.32  3108.18  3113.61
eigval :     3113.69  3116.29  3116.85

   temp. (K)  partition function   enthalpy   heat capacity  entropy
                                   cal/mol     cal/K/mol   cal/K/mol   J/K/mol
 298.15  VIB  0.172E+29            35341.124    216.998    221.189
         ROT  0.403E+09              888.752      2.981     42.359
         INT  0.692E+37            36229.876    219.979    263.548
         TR   0.237E+29             1481.254      4.968     46.052
         TOT                       37711.1298   224.9472   309.5999  1295.3658

       T/K    H(0)-H(T)+PV         H(T)/Eh          T*S/Eh         G(T)/Eh
   ------------------------------------------------------------------------
    298.15    0.600965E-01    0.105216E+01    0.147101E+00    0.905058E+00
   ------------------------------------------------------------------------

         :::::::::::::::::::::::::::::::::::::::::::::::::::::
         ::                  THERMODYNAMIC                  ::
         :::::::::::::::::::::::::::::::::::::::::::::::::::::
         :: total free energy        -168.036378709619 Eh   ::
         ::.................................................::
         :: total energy             -168.941436369281 Eh   ::
         :: zero point energy           0.992062033821 Eh   ::
         :: G(RRHO) w/o ZPVE           -0.087004374159 Eh   ::
         :: G(RRHO) contrib.            0.905057659662 Eh   ::
         :::::::::::::::::::::::::::::::::::::::::::::::::::::

           -------------------------------------------------
          | TOTAL ENERGY             -168.941436369281 Eh   |
          | TOTAL ENTHALPY           -167.889277824772 Eh   |
          | TOTAL FREE ENERGY        -168.036378709619 Eh   |
          | GRADIENT NORM               0.000042951652 Eh/α |
          | HOMO-LUMO GAP               1.197891915932 eV   |
           -------------------------------------------------

 * finished run on 2025/09/10 at 20:49:24.454
