   * xtb version 6.7.1 (edcfbbe) compiled by 'albert@albert-system' on 2024-07-22

   ID    Z sym.   atoms
    1    6 C      1-20, 22-33, 35-57, 61-63
    2    7 N      21, 34, 58, 60
    3   16 S      59
    4    1 H      64-121

          program call               : xtb data2507/toluene/CBTD2/CBTD2.xyz --gfn 2 --gbsa toluene --ohess vtight --parallel 40 --molden --ceasefiles --namespace data2507/toluene/CBTD2/CBTD2_toluene_S0_preOpt
      * Solvation model:               GBSA
        Solvent                        toluene
        Solvent mass                       9.2140E+01 g/mol
          :  Hamiltonian                  GFN2-xTB          :
 * total energy  :  -168.9028062 Eh     change       -0.8621242E-08 Eh
 * total energy  :  -168.9253888 Eh     change       -0.2258255E-01 Eh
 * total energy  :  -168.9315701 Eh     change       -0.6181307E-02 Eh
 * total energy  :  -168.9333405 Eh     change       -0.1770426E-02 Eh
 * total energy  :  -168.9348255 Eh     change       -0.1485056E-02 Eh
 * total energy  :  -168.9357276 Eh     change       -0.9020184E-03 Eh
 * total energy  :  -168.9365008 Eh     change       -0.7732285E-03 Eh
 * total energy  :  -168.9371529 Eh     change       -0.6521253E-03 Eh
 * total energy  :  -168.9375259 Eh     change       -0.3730197E-03 Eh
 * total energy  :  -168.9377455 Eh     change       -0.2195856E-03 Eh
 * total energy  :  -168.9402321 Eh     change       -0.7656711E-06 Eh
 * total energy  :  -168.9402329 Eh     change       -0.7647999E-06 Eh
 * total energy  :  -168.9402336 Eh     change       -0.7637745E-06 Eh
 * total energy  :  -168.9402344 Eh     change       -0.7598304E-06 Eh
 * total energy  :  -168.9402351 Eh     change       -0.7589179E-06 Eh
 * total energy  :  -168.9402359 Eh     change       -0.7565242E-06 Eh
 * total energy  :  -168.9402366 Eh     change       -0.7555487E-06 Eh
 * total energy  :  -168.9402374 Eh     change       -0.7540886E-06 Eh
 * total energy  :  -168.9402374 Eh     change       -0.7375007E-08 Eh
   *** GEOMETRY OPTIMIZATION CONVERGED AFTER 540 ITERATIONS ***

 final structure:
================
121
 xtb: 6.7.1 (edcfbbe)
C          -12.38869018687365       -2.81593710939437       -2.32309334170274
C          -10.95232657083040       -3.20829980012753       -2.68350770586126
C          -10.74301500478072       -4.67450362001832       -2.27546864091441
C          -10.78738057388895       -3.06378215297892       -4.20375967951067
C           -9.91509216822029       -2.34407768921167       -1.97909069089916
C           -8.55547598587107       -2.58618194891892       -2.21790191338048
C           -7.54578829093671       -1.86755810377063       -1.60970721901442
C           -7.90170797183934       -0.87031814123626       -0.71429092707286
C           -9.26317043202933       -0.58122088192572       -0.48524818928455
C          -10.25871915487760       -1.31966021562381       -1.11177170211556
C           -9.29647584281328        0.52839881178811        0.42854490247058
C          -10.32937676020280        1.24071273609953        1.01740375730492
C          -10.04836540158840        2.27887707970114        1.89634883937453
C          -11.20137919095176        3.06018936384750        2.51351665582543
C          -10.73128982471217        4.18470490195878        3.44144935649305
C          -12.07663522805249        2.10030820017862        3.33327676197421
C          -12.03607915759706        3.69180548468755        1.38892295144793
C           -8.70998318626943        2.55853123903050        2.18716493912640
C           -7.65945009798773        1.86270494779671        1.61586656923704
C           -7.95228093147140        0.85686985564889        0.70995437959817
N           -7.11395160632505        0.00413882220684        0.01312877420142
C           -5.71684079935482        0.02188401364325        0.04219677900305
C           -5.02232639291813        1.22420752053997       -0.08284579517520
C           -3.64422748871504        1.24164311785913       -0.03590466203533
C           -2.91856464043833        0.05930723382800        0.10582266021920
C           -1.45528842300766        0.07156199282859        0.12793776139253
C           -0.70017161389707       -0.89474600856468       -0.50170188734845
C            0.70036701981877       -0.88965198437621       -0.49324466591090
C            1.44996954050869        0.07026783904416        0.15739782881739
C            2.91357707260922        0.05028397571325        0.15033691728742
C            3.65290037660858        1.23232043759893        0.22000344915985
C            5.03161115819354        1.21194617397962        0.19829477180034
C            5.71859857217973        0.00401663160816        0.09163160063623
N            7.11583378915300       -0.01743489036803        0.05511932053728
C            7.93760238916207       -0.85766640447564        0.78563047276819
C            7.62750079428713       -1.80937140521916        1.74287680875084
C            8.66449193525980       -2.50503467035627        2.33851031449071
C           10.00684495418995       -2.27728411259370        2.02200440935405
C           11.14451408166739       -3.05941631738735        2.66594453240325
C           10.65405360950522       -4.12061882728465        3.65584224148595
C           12.05743569718361       -2.08515720078672        3.42539774875591
C           11.94656080314066       -3.77204144935848        1.56625342877157
C           10.30668693380380       -1.29193072000793        1.09010624243723
C            9.28742201364530       -0.58137191388407        0.47604016931309
C            9.27514540547020        0.48185173208578       -0.49167006058594
C           10.28438153382652        1.15828584582408       -1.16476210765594
C            9.96023684695921        2.14721578666976       -2.07935504910723
C           11.01302314411383        2.94266669189925       -2.83957892833371
C           10.84231420378108        4.43555647789201       -2.51998642047959
C           10.83285742675641        2.71015991047758       -4.34713037539601
C           12.44219817205008        2.53822647954558       -2.46416621331009
C            8.60536708283959        2.41674798399596       -2.31591726393411
C            7.58248457644039        1.75988846832933       -1.66188017447028
C            7.91995703079675        0.79811598458915       -0.72159400654698
C            4.98992043129436       -1.18220640110444        0.02395653593084
C            3.61169439943239       -1.15652385319916        0.06190803052225
C            0.71134304881379        1.08064288977242        0.82577465315642
N            1.19279168097259        2.09492597353302        1.54665819126109
S           -0.03305132571905        2.95704076816440        2.12944684904985
N           -1.23923489400997        2.09782776521504        1.50482743783502
C           -0.73128518314692        1.08332614428920        0.80340657726678
C           -3.61948057247586       -1.14189577756699        0.21908480329804
C           -4.99842656354364       -1.16205000919768        0.20222735491306
H          -12.60025426605947       -1.79086912495568       -2.61930304830241
H          -13.08468001053328       -3.46735347214165       -2.84834671674099
H          -12.56819364901475       -2.92417822499327       -1.25566897520179
H          -10.83700309367597       -4.78174720573136       -1.19635370205468
H           -9.75924143194867       -5.03110812114827       -2.56823720782372
H          -11.49003558949901       -5.30653161041951       -2.75167937485673
H          -11.53944453583842       -3.65728414624627       -4.71985246482250
H           -9.80720733692651       -3.39945257640316       -4.53110135965022
H          -10.90682616420928       -2.02264541747997       -4.49776258311518
H           -8.27016113137448       -3.36528588667908       -2.90864083664021
H           -6.51160180809493       -2.07577851882463       -1.83979463054654
H          -11.28769319380088       -1.07375746384414       -0.90859294209285
H          -11.34785651571898        0.97201009732385        0.78257909094023
H          -11.59722337588834        4.71194565881092        3.83768316201479
H          -10.16651570927841        3.78942504910220        4.28283501316392
H          -10.11706943144514        4.90434699693002        2.90462360776156
H          -12.89909025116094        2.64328035531114        3.79475703722223
H          -11.48673539551177        1.63284591576312        4.11958131466522
H          -12.49464927394841        1.31488797209812        2.70953205788321
H          -12.85565797613905        4.27114251954909        1.80950281141250
H          -11.41657738052103        4.35550929499524        0.78852867279673
H          -12.45669804842641        2.93430937270757        0.73337091014879
H           -8.46355403061352        3.34204474752040        2.88461893499790
H           -6.64091802299666        2.09951149345820        1.88501265171516
H           -5.57018588879605        2.14203440093032       -0.23361680768242
H           -3.11680797824694        2.17790689792317       -0.13067459016620
H           -1.20492480221756       -1.67609216466644       -1.05043838699904
H            1.20882640801506       -1.66474900399727       -1.04637715140899
H            3.13625990031181        2.17530379919246        0.29899182117400
H            5.58610481361993        2.13468166891676        0.27910973198938
H            6.60596606681506       -2.00445788870981        2.03323660719122
H            8.40426904715460       -3.24620967879815        3.07616766979495
H           10.01290718921006       -4.84870437793933        3.16373834778384
H           11.50945113932182       -4.65175225430367        4.06927557924701
H           10.11135401636310       -3.66635984754488        4.48184276535390
H           12.49219945388014       -1.34699861466113        2.75699593996018
H           11.49086753309659       -1.55890644359426        4.19145625069943
H           12.86815251880210       -2.62840116644864        3.90696493903367
H           11.30203122857809       -4.45076278432759        1.01060001496471
H           12.75733413888637       -4.34894080874759        2.00680574894189
H           12.37653011912336       -3.06200901201781        0.86522637797047
H           11.32951479642552       -1.06314334923132        0.83299610787403
H           11.30812979286918        0.89282180342111       -0.95963250844764
H           11.60101654908611        5.01912939351144       -3.03770194011958
H           10.94668997500774        4.60522611450143       -1.44987677201694
H            9.86573344251018        4.79866416947676       -2.82822096788951
H            9.85650060575100        3.04491321061425       -4.68659459998384
H           11.59202678064317        3.25597256387515       -4.90389030307884
H           10.92916049642229        1.65091963192060       -4.57838930693965
H           13.14968732489256        3.14330395023805       -3.02812225844391
H           12.62986024412866        2.70177620266213       -1.40521505777653
H           12.62925739032850        1.49369201537449       -2.70334113790834
H            8.33414695213216        3.16810495581250       -3.04215968780993
H            6.55234566594305        1.98854729058014       -1.89076459878067
H            5.51078656069213       -2.12311962399979       -0.07112831155210
H            3.07093607465525       -2.09056514010910        0.03544160214805
H           -3.07659022144467       -2.06503361121361        0.35982475223689
H           -5.52880597039132       -2.09326867627063        0.33354055032585

          :  Hamiltonian                  GFN2-xTB          :
         :: gradient norm              0.000070037626 Eh/a0 ::
         :: HOMO-LUMO gap              1.193598528754 eV    ::
         :: SCC energy              -171.838054595565 Eh    ::
         :: -> dispersion             -0.155876608556 Eh    ::
         :: -> Gsolv                  -0.066845242113 Eh    ::
         :: repulsion energy           2.897817188003 Eh    ::

    * Orbital Energies and Occupations

         #    Occupation            Energy/Eh            Energy/eV
      -------------------------------------------------------------
         1        2.0000           -0.7641301             -20.7930
       ...           ...                  ...                  ...
       146        2.0000           -0.4101564             -11.1609
       147        2.0000           -0.4066659             -11.0659
       148        2.0000           -0.4064956             -11.0613
       149        2.0000           -0.4053408             -11.0299
       150        2.0000           -0.4046788             -11.0119
       151        2.0000           -0.4044923             -11.0068
       152        2.0000           -0.3936777             -10.7125
       153        2.0000           -0.3936134             -10.7108
       154        2.0000           -0.3825807             -10.4105
       155        2.0000           -0.3718925             -10.1197
       156        2.0000           -0.3718624             -10.1189
       157        2.0000           -0.3554247              -9.6716
       158        2.0000           -0.3529688              -9.6048 (HOMO)
       159                         -0.3091049              -8.4112 (LUMO)
       160                         -0.2555461              -6.9538
       161                         -0.2413568              -6.5677
       162                         -0.2382717              -6.4837
       163                         -0.2328666              -6.3366
       164                         -0.2300263              -6.2593
       165                         -0.2293902              -6.2420
       166                         -0.2207101              -6.0058
       167                         -0.2180821              -5.9343
       168                         -0.2160448              -5.8789
       169                         -0.2160031              -5.8777
       ...                                ...                  ...
       315                          0.7458779              20.2964
      -------------------------------------------------------------
                  HL-Gap            0.0438639 Eh            1.1936 eV

     #   Z          covCN         q      C6AA      α(0)
     1   6 C        3.761    -0.106    22.573     6.773
     2   6 C        3.902     0.025    20.103     6.373
     3   6 C        3.761    -0.104    22.541     6.768
     4   6 C        3.761    -0.104    22.542     6.768
     5   6 C        2.972    -0.003    28.097     8.695
     6   6 C        2.931    -0.041    29.017     8.834
     7   6 C        2.908    -0.055    29.367     8.886
     8   6 C        3.076     0.043    26.946     8.511
     9   6 C        3.065    -0.021    28.462     8.748
    10   6 C        2.918    -0.045    29.124     8.850
    11   6 C        3.065    -0.021    28.453     8.747
    12   6 C        2.920    -0.041    29.026     8.835
    13   6 C        2.972    -0.003    28.093     8.694
    14   6 C        3.902     0.025    20.103     6.373
    15   6 C        3.761    -0.106    22.580     6.774
    16   6 C        3.761    -0.104    22.538     6.768
    17   6 C        3.761    -0.104    22.540     6.768
    18   6 C        2.928    -0.045    29.124     8.850
    19   6 C        2.909    -0.055    29.377     8.888
    20   6 C        3.074     0.043    26.950     8.512
    21   7 N        2.800    -0.048    22.160     6.992
    22   6 C        2.912     0.066    26.531     8.446
    23   6 C        2.921    -0.044    29.084     8.844
    24   6 C        2.924    -0.029    28.721     8.789
    25   6 C        2.975     0.009    27.824     8.652
    26   6 C        2.965    -0.006    28.177     8.707
    27   6 C        2.924    -0.041    29.011     8.833
    28   6 C        2.924    -0.041    29.017     8.834
    29   6 C        2.963    -0.007    28.187     8.708
    30   6 C        2.973     0.008    27.843     8.655
    31   6 C        2.924    -0.031    28.785     8.798
    32   6 C        2.920    -0.044    29.088     8.844
    33   6 C        2.911     0.066    26.531     8.446
    34   7 N        2.800    -0.048    22.163     6.992
    35   6 C        3.074     0.044    26.948     8.511
    36   6 C        2.909    -0.056    29.379     8.888
    37   6 C        2.928    -0.045    29.128     8.851
    38   6 C        2.972    -0.003    28.096     8.694
    39   6 C        3.902     0.025    20.103     6.373
    40   6 C        3.761    -0.106    22.577     6.774
    41   6 C        3.761    -0.104    22.538     6.768
    42   6 C        3.761    -0.104    22.540     6.768
    43   6 C        2.920    -0.041    29.025     8.835
    44   6 C        3.065    -0.021    28.451     8.747
    45   6 C        3.065    -0.021    28.463     8.748
    46   6 C        2.918    -0.045    29.124     8.850
    47   6 C        2.972    -0.003    28.094     8.694
    48   6 C        3.902     0.025    20.103     6.373
    49   6 C        3.761    -0.104    22.543     6.768
    50   6 C        3.761    -0.104    22.541     6.768
    51   6 C        3.761    -0.106    22.573     6.773
    52   6 C        2.931    -0.041    29.014     8.834
    53   6 C        2.908    -0.055    29.364     8.885
    54   6 C        3.076     0.044    26.942     8.510
    55   6 C        2.920    -0.045    29.119     8.849
    56   6 C        2.924    -0.035    28.868     8.811
    57   6 C        3.338     0.074    23.983     7.750
    58   7 N        1.853    -0.278    28.074     7.853
    59  16 S        2.661     0.323   128.571    19.084
    60   7 N        1.852    -0.279    28.078     7.854
    61   6 C        3.347     0.074    23.795     7.696
    62   6 C        2.924    -0.034    28.854     8.809
    63   6 C        2.920    -0.045    29.107     8.847
    64   1 H        0.925     0.035     2.516     2.480
    65   1 H        0.925     0.036     2.500     2.473
    66   1 H        0.925     0.035     2.514     2.480
    67   1 H        0.925     0.032     2.560     2.502
    68   1 H        0.925     0.035     2.510     2.478
    69   1 H        0.925     0.037     2.484     2.465
    70   1 H        0.925     0.037     2.484     2.464
    71   1 H        0.925     0.035     2.512     2.478
    72   1 H        0.925     0.032     2.560     2.502
    73   1 H        0.926     0.029     2.595     2.519
    74   1 H        0.926     0.026     2.641     2.541
    75   1 H        0.926     0.037     2.495     2.470
    76   1 H        0.926     0.030     2.585     2.514
    77   1 H        0.925     0.036     2.497     2.471
    78   1 H        0.925     0.035     2.518     2.481
    79   1 H        0.925     0.035     2.515     2.480
    80   1 H        0.925     0.037     2.485     2.465
    81   1 H        0.925     0.032     2.564     2.504
    82   1 H        0.925     0.036     2.506     2.476
    83   1 H        0.925     0.037     2.487     2.466
    84   1 H        0.925     0.032     2.563     2.503
    85   1 H        0.925     0.036     2.504     2.475
    86   1 H        0.926     0.037     2.491     2.468
    87   1 H        0.926     0.027     2.628     2.535
    88   1 H        0.926     0.044     2.390     2.418
    89   1 H        0.926     0.045     2.382     2.414
    90   1 H        0.926     0.047     2.355     2.400
    91   1 H        0.926     0.048     2.340     2.392
    92   1 H        0.926     0.051     2.312     2.378
    93   1 H        0.926     0.044     2.398     2.422
    94   1 H        0.926     0.026     2.646     2.544
    95   1 H        0.926     0.036     2.498     2.471
    96   1 H        0.925     0.035     2.518     2.481
    97   1 H        0.925     0.036     2.497     2.471
    98   1 H        0.925     0.035     2.520     2.482
    99   1 H        0.925     0.036     2.505     2.475
   100   1 H        0.925     0.032     2.564     2.504
   101   1 H        0.925     0.037     2.485     2.465
   102   1 H        0.925     0.032     2.564     2.504
   103   1 H        0.925     0.037     2.487     2.466
   104   1 H        0.925     0.036     2.503     2.474
   105   1 H        0.926     0.030     2.585     2.514
   106   1 H        0.926     0.037     2.495     2.470
   107   1 H        0.925     0.037     2.485     2.465
   108   1 H        0.925     0.032     2.558     2.501
   109   1 H        0.925     0.036     2.509     2.477
   110   1 H        0.925     0.035     2.512     2.479
   111   1 H        0.925     0.037     2.483     2.464
   112   1 H        0.925     0.032     2.560     2.502
   113   1 H        0.925     0.036     2.499     2.472
   114   1 H        0.925     0.035     2.514     2.479
   115   1 H        0.925     0.035     2.516     2.481
   116   1 H        0.926     0.029     2.595     2.519
   117   1 H        0.926     0.026     2.642     2.542
   118   1 H        0.926     0.044     2.400     2.422
   119   1 H        0.926     0.041     2.431     2.438
   120   1 H        0.926     0.041     2.440     2.443
   121   1 H        0.926     0.044     2.393     2.419

molecular dipole:
                 x           y           z       tot (Debye)
 q only:       -0.023      -0.166      -0.171
   full:       -0.023      -0.396      -0.307       1.275

 projected vibrational frequencies (cm⁻¹)
eigval :       -0.00    -0.00     0.00     0.00     0.00     0.00
eigval :        5.85     6.46     9.36    15.87    21.28    24.75
eigval :       29.48    34.59    35.61    36.72    39.03    45.17
eigval :       54.24    57.47    61.48    66.02    74.26    77.55
eigval :       89.58    93.35    96.86    99.00   107.00   125.30
eigval :      129.47   150.57   161.35   162.87   164.75   175.57
eigval :      179.15   180.98   185.42   190.75   192.54   197.40
eigval :      199.27   212.33   222.13   224.11   226.39   229.24
eigval :      231.40   239.88   242.88   253.81   262.88   266.25
eigval :      268.22   279.22   285.16   298.04   302.56   309.59
eigval :      317.88   318.56   320.43   324.66   325.82   329.28
eigval :      334.29   344.74   354.81   356.64   357.07   358.91
eigval :      367.15   378.44   381.33   384.69   390.42   397.03
eigval :      397.74   403.95   411.88   412.38   414.11   441.96
eigval :      442.04   444.08   445.34   448.74   459.02   462.93
eigval :      463.91   465.53   468.66   475.13   479.04   490.64
eigval :      500.94   518.31   519.77   533.90   543.92   563.12
eigval :      572.14   578.02   582.16   583.45   584.05   585.91
eigval :      601.16   601.36   620.09   624.53   632.09   635.35
eigval :      639.42   639.73   648.68   688.01   688.28   688.36
eigval :      689.36   690.62   707.09   707.72   719.87   720.15
eigval :      721.57   739.20   743.99   765.86   809.81   814.42
eigval :      820.41   821.55   823.91   826.51   831.31   831.40
eigval :      840.87   865.08   867.01   867.16   872.43   872.82
eigval :      874.77   876.28   881.55   883.22   885.50   904.52
eigval :      906.87   906.99   908.52   911.00   912.86   916.04
eigval :      922.80   922.90   926.17   927.08   927.43   929.79
eigval :      935.64   937.69   957.08   957.56   958.78   959.05
eigval :      959.62   960.21   961.40   961.85   961.87   962.13
eigval :      962.39   962.80   965.48   973.47  1020.28  1026.80
eigval :     1031.74  1033.35  1033.59  1034.46  1035.29  1035.53
eigval :     1035.55  1035.59  1039.02  1040.20  1116.00  1116.35
eigval :     1129.22  1129.42  1132.39  1137.45  1139.62  1142.69
eigval :     1143.25  1146.33  1178.01  1179.65  1190.02  1192.40
eigval :     1212.87  1216.93  1225.20  1225.30  1225.40  1225.87
eigval :     1227.02  1227.28  1230.65  1230.72  1234.66  1235.37
eigval :     1245.05  1248.20  1251.45  1259.04  1260.99  1266.62
eigval :     1267.95  1276.27  1284.47  1284.69  1297.84  1299.64
eigval :     1304.13  1305.19  1305.94  1308.91  1317.07  1325.41
eigval :     1344.63  1345.70  1348.53  1358.86  1359.48  1368.30
eigval :     1377.38  1377.96  1398.82  1399.41  1401.33  1401.72
eigval :     1402.22  1402.75  1402.76  1404.08  1405.07  1408.60
eigval :     1414.34  1417.57  1426.72  1426.82  1427.08  1428.45
eigval :     1437.78  1438.87  1473.45  1473.65  1477.53  1481.83
eigval :     1482.23  1489.49  1490.15  1490.21  1490.40  1491.14
eigval :     1492.43  1492.55  1492.58  1492.75  1499.03  1499.72
eigval :     1500.19  1500.52  1503.24  1503.53  1503.57  1503.95
eigval :     1504.16  1511.70  1512.07  1512.16  1512.34  1517.63
eigval :     1518.13  1518.56  1519.65  1527.75  1549.10  1553.83
eigval :     1564.15  1570.08  1570.50  1581.63  1581.93  1590.44
eigval :     1592.67  1602.85  1602.87  1616.48  1616.69  3016.84
eigval :     3017.83  3018.76  3018.86  3018.93  3019.25  3019.27
eigval :     3019.34  3022.28  3022.34  3022.65  3022.70  3023.63
eigval :     3023.93  3024.10  3024.25  3026.16  3026.36  3026.41
eigval :     3026.57  3028.98  3029.50  3029.92  3030.01  3033.91
eigval :     3034.51  3034.84  3035.07  3043.02  3043.66  3043.71
eigval :     3044.64  3046.35  3047.30  3047.50  3048.00  3075.43
eigval :     3077.22  3078.62  3079.41  3081.74  3082.42  3084.62
eigval :     3086.40  3086.53  3088.65  3089.46  3090.21  3090.97
eigval :     3093.55  3094.76  3097.17  3104.22  3112.53  3113.66
eigval :     3114.62  3115.03  3116.27

   temp. (K)  partition function   enthalpy   heat capacity  entropy
                                   cal/mol     cal/K/mol   cal/K/mol   J/K/mol
 298.15  VIB  0.494E+28            35246.300    216.981    219.650
         ROT  0.403E+09              888.752      2.981     42.358
         INT  0.199E+37            36135.053    219.962    262.008
         TR   0.237E+29             1481.254      4.968     46.052
         TOT                       37616.3065   224.9301   308.0599  1288.9227

       T/K    H(0)-H(T)+PV         H(T)/Eh          T*S/Eh         G(T)/Eh
   ------------------------------------------------------------------------
    298.15    0.599454E-01    0.105235E+01    0.146369E+00    0.905982E+00
   ------------------------------------------------------------------------

         :::::::::::::::::::::::::::::::::::::::::::::::::::::
         ::                  THERMODYNAMIC                  ::
         :::::::::::::::::::::::::::::::::::::::::::::::::::::
         :: total free energy        -168.034255429842 Eh   ::
         ::.................................................::
         :: total energy             -168.940237406209 Eh   ::
         :: zero point energy           0.992405785256 Eh   ::
         :: G(RRHO) w/o ZPVE           -0.086423808889 Eh   ::
         :: G(RRHO) contrib.            0.905981976367 Eh   ::
         :::::::::::::::::::::::::::::::::::::::::::::::::::::

           -------------------------------------------------
          | TOTAL ENERGY             -168.940237406209 Eh   |
          | TOTAL ENTHALPY           -167.887886220867 Eh   |
          | TOTAL FREE ENERGY        -168.034255429842 Eh   |
          | GRADIENT NORM               0.000070038345 Eh/α |
          | HOMO-LUMO GAP               1.193598549271 eV   |
           -------------------------------------------------

 * finished run on 2025/09/10 at 20:28:41.478
