   * xtb version 6.7.1 (edcfbbe) compiled by 'albert@albert-system' on 2024-07-22

   ID    Z sym.   atoms
    1    6 C      1-20, 22-33, 35-57, 61-63
    2    7 N      21, 34, 58, 60
    3   16 S      59
    4    1 H      64-121

          program call               : xtb data2507/toluene/CBTD2/CBTD2_toluene_T1_crest.xyz --gfn 2 --uhf 2 --gbsa toluene --ohess vtight --parallel 40 --molden --ceasefiles --namespace data2507/toluene/CBTD2/CBTD2_toluene_T1_finalOpt
      * Solvation model:               GBSA
        Solvent                        toluene
        Solvent mass                       9.2140E+01 g/mol
          :  Hamiltonian                  GFN2-xTB          :
 * total energy  :  -168.8845975 Eh     change       -0.2224539E-07 Eh
 * total energy  :  -168.8846757 Eh     change       -0.7821344E-04 Eh
 * total energy  :  -168.8847245 Eh     change       -0.4881894E-04 Eh
 * total energy  :  -168.8847401 Eh     change       -0.1560545E-04 Eh
 * total energy  :  -168.8847475 Eh     change       -0.7375523E-05 Eh
 * total energy  :  -168.8847551 Eh     change       -0.7595521E-05 Eh
 * total energy  :  -168.8847592 Eh     change       -0.4107545E-05 Eh
 * total energy  :  -168.8847650 Eh     change       -0.5796952E-05 Eh
 * total energy  :  -168.8847675 Eh     change       -0.2570538E-05 Eh
 * total energy  :  -168.8847698 Eh     change       -0.2239039E-05 Eh
 * total energy  :  -168.8847748 Eh     change       -0.8426523E-06 Eh
 * total energy  :  -168.8847754 Eh     change       -0.5675012E-06 Eh
 * total energy  :  -168.8847758 Eh     change       -0.4424404E-06 Eh
 * total energy  :  -168.8847762 Eh     change       -0.3368292E-06 Eh
 * total energy  :  -168.8847765 Eh     change       -0.3715486E-06 Eh
 * total energy  :  -168.8847770 Eh     change       -0.4226661E-06 Eh
 * total energy  :  -168.8847773 Eh     change       -0.3203621E-06 Eh
 * total energy  :  -168.8847775 Eh     change       -0.1992038E-06 Eh
 * total energy  :  -168.8847775 Eh     change       -0.1136004E-07 Eh
   *** GEOMETRY OPTIMIZATION CONVERGED AFTER 22 ITERATIONS ***

 final structure:
================
121
 xtb: 6.7.1 (edcfbbe)
C          -10.65773467719652       -5.33481803890864        1.14604492417932
C          -10.88978524715119       -4.41435322673962       -0.06197767649745
C          -10.72225354614904       -5.21261559333020       -1.36379040704498
C          -12.33248275223584       -3.90304343529162        0.00002348565633
C           -9.86721272388923       -3.28792775190536       -0.02929704428188
C           -8.50382056675971       -3.60748162231346       -0.07784195804020
C           -7.50660984012291       -2.65316002062048       -0.03962657646138
C           -7.88216072033144       -1.32148996934284        0.06322490260290
C           -9.24901486465726       -0.97095544127763        0.08002967338693
C          -10.23055985785244       -1.94950237386043        0.03796048371362
C           -9.30032807002753        0.46794731798760        0.12538936653047
C          -10.34907763193045        1.37328209089847        0.18277183346338
C          -10.08166736448022        2.73424687629512        0.24790918595313
C          -11.18187519761382        3.78428130891126        0.29800373697886
C          -12.58497226915526        3.17107117269322        0.25342585927883
C          -11.03330791456564        4.72172778563605       -0.91004882724646
C          -11.05398845421119        4.58973950566465        1.59989230088824
C           -8.74408541599428        3.15089042971594        0.27768659098252
C           -7.68131205063212        2.27100121049950        0.22333722996684
C           -7.96208710764146        0.91589363733156        0.12349829319615
N           -7.11012784437808       -0.17367702247502        0.08845232833018
C           -5.72001541322320       -0.12456818470388        0.07445182108701
C           -5.04357815516419        0.76357547206406       -0.76978189200881
C           -3.67242994309954        0.80710781390365       -0.78340975164702
C           -2.89713022599548       -0.03433607542992        0.04035597408924
C           -1.46231397816016        0.00319003644657        0.01234403614270
C           -0.68155058656422       -1.09883106795617        0.45946599627397
C            0.68150147546467       -1.09931142543960        0.45804173112976
C            1.46276826136354        0.00277126411214        0.01113791181505
C            2.89755462636905       -0.03589382886583        0.03736091359850
C            3.59914152313729       -0.93013260124838        0.87397675434814
C            4.97077994813140       -0.97503329013592        0.88947630314293
C            5.72074242985392       -0.12594294291537        0.06843016805956
N            7.11099630880399       -0.17368722445207        0.08245556257589
C            7.88444061573106       -1.31946973694783        0.03281435053234
C            7.51025624160425       -2.64852740495775       -0.10278602057887
C            8.50861842915657       -3.60051560029642       -0.16334627833232
C            9.87158561586467       -3.28057798125856       -0.10582276001866
C           10.89566614299026       -4.40434109695693       -0.16997969784196
C           10.66420994320943       -5.36091194176050        1.00973156638561
C           12.33757090135683       -3.89306481072896       -0.09147656850385
C           10.73039790715457       -5.16366253695165       -1.49524938205535
C           10.23346886343920       -1.94389004688422       -0.00384961076623
C            9.25081842726780       -0.96772535693015        0.06139242967504
C            9.29998775567527        0.46974040628543        0.14210194516168
C           10.34691154045290        1.37498876116133        0.22764410554561
C           10.07689799507492        2.73356489592023        0.32495205980669
C           11.17517925355148        3.78300978127169        0.41475534210989
C           12.57944763317478        3.17326440522198        0.35986723686736
C           11.03656744218209        4.54410763850611        1.74208050828386
C           11.03408799782688        4.76034857071101       -0.76204521545818
C            8.73852588246941        3.14766976159792        0.35591688010494
C            7.67746252831497        2.26775900868675        0.27486785534028
C            7.96111687733585        0.91582371516118        0.14531538162875
C            5.04380121590489        0.77422165483344       -0.76238923439808
C            3.67263016511600        0.81654667960998       -0.77559325325972
C            0.72343754388046        1.11544705364704       -0.46757380922206
N            1.23114695573101        2.26091011607820       -0.91223549071510
S           -0.00098339551424        3.27342424987249       -1.31547278818037
N           -1.23229961997265        2.25967038388666       -0.91335404619262
C           -0.72337549081593        1.11493574910423       -0.46815901663642
C           -3.59758831817491       -0.91685244713517        0.88991257327452
C           -4.96924963703315       -0.96074899201306        0.90806523590005
H          -10.75295390618605       -4.77124787646816        2.07229480306440
H          -11.39371742491903       -6.13616194642544        1.15206123594758
H           -9.66835950510929       -5.78312296745890        1.12039639894673
H          -11.46276989253676       -6.00837189599011       -1.41161124409958
H           -9.73581280657411       -5.66298565884701       -1.43099256807068
H          -10.85909489757849       -4.56173399135496       -2.22529348283146
H          -12.56108501337424       -3.27004646783226       -0.85441542530769
H          -12.51202349778098       -3.34644008650110        0.91709432840868
H          -13.01655915542409       -4.74921330223225       -0.01781197992523
H           -8.20523469610156       -4.64175203685462       -0.15309126017168
H           -6.46881896837589       -2.94260715784666       -0.10385301131285
H          -11.26386323977096       -1.64693502277041        0.05317149940724
H          -11.35816207100931        0.99726931852390        0.18134730694425
H          -12.73578494890480        2.60492463316263       -0.66294371954574
H          -12.75666265765111        2.52184859935593        1.10899235032774
H          -13.32740929676737        3.96618207684118        0.28219464542095
H          -10.07742321681675        5.23798324392446       -0.89809323694073
H          -11.82366725491167        5.46945890033259       -0.90219897648623
H          -11.10304186330895        4.15505619495023       -1.83666061511725
H          -11.12988732941683        3.92897523160785        2.46146038598138
H          -10.10224365432095        5.11100962897017        1.65370348869978
H          -11.85009716388507        5.32892377826416        1.66090560519652
H           -8.51892556774147        4.20370783260994        0.35076580699815
H           -6.66623142486866        2.63464657729862        0.27177861282020
H           -5.60977753526871        1.39040904008035       -1.44250295876660
H           -3.16269903164493        1.48358419798621       -1.45005415509225
H           -1.19350354069136       -1.99613946157530        0.77137459533642
H            1.19272060613182       -1.99736472152328        0.76874516683375
H            3.05556289238847       -1.56392548268009        1.55711813240502
H            5.48237472590198       -1.63980561814029        1.56987797638444
H            6.47265133459050       -2.93692727899998       -0.17499288544253
H            8.21146264003660       -4.63293034534705       -0.26491314705824
H            9.67524782002445       -5.80915131653229        0.97062908013306
H           11.40087382513009       -6.16144222659206        0.99157212268436
H           10.75914378283950       -4.82544300297753        1.95253033053348
H           12.56647155340704       -3.23556916441260       -0.92712776436599
H           12.51496017452480       -3.36268040963323        0.84140689167741
H           13.02282231807730       -4.73745976193339       -0.13261734890669
H            9.74458652423082       -5.61308373893048       -1.57670694658069
H           11.47214040039138       -5.95655886399277       -1.56607708473402
H           10.86715928855894       -4.48708669043210       -2.33671829165005
H           11.26645457030604       -1.64077730729167        0.02030479020960
H           11.35659408205988        1.00062591555210        0.22306735603852
H           12.73619096974346        2.63456226915113       -0.57192361626601
H           12.74731583590673        2.49931420922454        1.19688736943542
H           13.32056612838512        3.96812906107504        0.41629231287616
H           11.10485061289245        3.85393106403766        2.58084086849963
H           11.83222715815830        5.28038963476168        1.83510231949829
H           10.08431780031443        5.06338611198024        1.80535813008015
H           11.82200489052149        5.50958820828952       -0.72156350287830
H           11.11388270783313        4.22585748137947       -1.70679382310024
H           10.07664670603601        5.27339978719346       -0.74112597408598
H            8.51133920088128        4.19811640365133        0.45290596929178
H            6.66137245945882        2.62826627998245        0.32598148407396
H            5.60971922854451        1.41167046724617       -1.42539706666269
H            3.16238027358989        1.50180919997728       -1.43277788321276
H           -3.05260355191313       -1.54072035023052        1.58110863082685
H           -5.47998013310752       -1.61441055099973        1.59969780191213

          :  Hamiltonian                  GFN2-xTB          :
         :: gradient norm              0.000055921923 Eh/a0 ::
         :: HOMO-LUMO gap              1.182392327792 eV    ::
         :: SCC energy              -171.767204242255 Eh    ::
         :: -> dispersion             -0.155761359331 Eh    ::
         :: -> Gsolv                  -0.071731772519 Eh    ::
         :: repulsion energy           2.882426752587 Eh    ::

    * Orbital Energies and Occupations

         #    Occupation            Energy/Eh            Energy/eV
      -------------------------------------------------------------
         1        2.0000           -0.7241962             -19.7064
       ...           ...                  ...                  ...
       147        2.0000           -0.4092018             -11.1349
       148        2.0000           -0.4064593             -11.0603
       149        2.0000           -0.4016447             -10.9293
       150        2.0000           -0.4016192             -10.9286
       151        2.0000           -0.3899597             -10.6113
       152        2.0000           -0.3866277             -10.5207
       153        2.0000           -0.3828146             -10.4169
       154        2.0000           -0.3792832             -10.3208
       155        2.0000           -0.3792657             -10.3203
       156        2.0000           -0.3725298             -10.1371
       157        1.9971           -0.3631678              -9.8823
       158        1.0029           -0.3520586              -9.5800
       159        1.0000           -0.2946807              -8.0187 (HOMO)
       160                         -0.2512286              -6.8363 (LUMO)
       161                         -0.2474061              -6.7323
       162                         -0.2440263              -6.6403
       163                         -0.2339537              -6.3662
       164                         -0.2272085              -6.1827
       165                         -0.2271545              -6.1812
       166                         -0.2239105              -6.0929
       167                         -0.2238830              -6.0922
       168                         -0.2012306              -5.4758
       169                         -0.2009291              -5.4676
       170                         -0.1980922              -5.3904
       ...                                ...                  ...
       315                          0.7355008              20.0140
      -------------------------------------------------------------
                  HL-Gap            0.0434521 Eh            1.1824 eV

     #   Z          covCN         q      C6AA      α(0)
     1   6 C        3.761    -0.106    22.567     6.772
     2   6 C        3.902     0.026    20.084     6.370
     3   6 C        3.761    -0.106    22.566     6.772
     4   6 C        3.761    -0.108    22.617     6.780
     5   6 C        2.972     0.005    27.910     8.666
     6   6 C        2.930    -0.039    28.958     8.825
     7   6 C        2.908    -0.049    29.210     8.862
     8   6 C        3.075     0.043    26.967     8.514
     9   6 C        3.064    -0.016    28.339     8.729
    10   6 C        2.917    -0.042    29.041     8.837
    11   6 C        3.064    -0.016    28.343     8.730
    12   6 C        2.917    -0.042    29.043     8.837
    13   6 C        2.972     0.005    27.904     8.665
    14   6 C        3.902     0.026    20.084     6.370
    15   6 C        3.761    -0.108    22.618     6.780
    16   6 C        3.761    -0.106    22.567     6.772
    17   6 C        3.761    -0.106    22.566     6.772
    18   6 C        2.930    -0.038    28.948     8.824
    19   6 C        2.908    -0.048    29.197     8.860
    20   6 C        3.075     0.043    26.962     8.514
    21   7 N        2.800    -0.023    21.688     6.917
    22   6 C        2.912     0.060    26.653     8.466
    23   6 C        2.917    -0.041    29.030     8.835
    24   6 C        2.922    -0.034    28.856     8.809
    25   6 C        2.969     0.014    27.691     8.632
    26   6 C        2.964    -0.025    28.624     8.776
    27   6 C        2.915    -0.050    29.248     8.868
    28   6 C        2.915    -0.050    29.250     8.869
    29   6 C        2.964    -0.025    28.624     8.776
    30   6 C        2.969     0.014    27.692     8.632
    31   6 C        2.922    -0.036    28.907     8.817
    32   6 C        2.917    -0.043    29.072     8.842
    33   6 C        2.912     0.060    26.655     8.466
    34   7 N        2.800    -0.023    21.691     6.917
    35   6 C        3.075     0.043    26.966     8.514
    36   6 C        2.908    -0.049    29.209     8.862
    37   6 C        2.930    -0.039    28.958     8.825
    38   6 C        2.972     0.005    27.911     8.666
    39   6 C        3.902     0.026    20.084     6.370
    40   6 C        3.761    -0.106    22.567     6.772
    41   6 C        3.761    -0.108    22.617     6.780
    42   6 C        3.761    -0.106    22.566     6.772
    43   6 C        2.917    -0.042    29.041     8.837
    44   6 C        3.064    -0.016    28.340     8.730
    45   6 C        3.064    -0.016    28.344     8.730
    46   6 C        2.917    -0.042    29.043     8.837
    47   6 C        2.972     0.005    27.905     8.665
    48   6 C        3.902     0.026    20.084     6.370
    49   6 C        3.761    -0.108    22.618     6.780
    50   6 C        3.761    -0.106    22.565     6.772
    51   6 C        3.761    -0.106    22.567     6.772
    52   6 C        2.930    -0.038    28.948     8.824
    53   6 C        2.908    -0.048    29.197     8.860
    54   6 C        3.075     0.043    26.961     8.513
    55   6 C        2.917    -0.041    29.028     8.835
    56   6 C        2.922    -0.035    28.863     8.810
    57   6 C        3.284     0.084    24.715     7.992
    58   7 N        1.849    -0.310    28.873     7.964
    59  16 S        2.566     0.131   135.828    19.615
    60   7 N        1.849    -0.310    28.876     7.964
    61   6 C        3.285     0.084    24.703     7.988
    62   6 C        2.922    -0.036    28.906     8.817
    63   6 C        2.917    -0.043    29.074     8.842
    64   1 H        0.925     0.034     2.534     2.489
    65   1 H        0.925     0.040     2.452     2.449
    66   1 H        0.925     0.037     2.490     2.468
    67   1 H        0.925     0.040     2.450     2.448
    68   1 H        0.925     0.037     2.493     2.469
    69   1 H        0.925     0.034     2.537     2.491
    70   1 H        0.925     0.037     2.485     2.465
    71   1 H        0.925     0.037     2.484     2.464
    72   1 H        0.925     0.038     2.471     2.458
    73   1 H        0.926     0.037     2.493     2.469
    74   1 H        0.926     0.033     2.538     2.491
    75   1 H        0.926     0.047     2.362     2.403
    76   1 H        0.926     0.047     2.359     2.402
    77   1 H        0.925     0.038     2.482     2.464
    78   1 H        0.925     0.037     2.483     2.464
    79   1 H        0.925     0.038     2.469     2.457
    80   1 H        0.925     0.037     2.491     2.468
    81   1 H        0.925     0.040     2.451     2.448
    82   1 H        0.925     0.034     2.534     2.489
    83   1 H        0.925     0.034     2.536     2.490
    84   1 H        0.925     0.037     2.494     2.470
    85   1 H        0.925     0.040     2.449     2.447
    86   1 H        0.926     0.037     2.495     2.470
    87   1 H        0.926     0.034     2.536     2.490
    88   1 H        0.926     0.044     2.395     2.420
    89   1 H        0.926     0.058     2.224     2.332
    90   1 H        0.926     0.032     2.552     2.498
    91   1 H        0.926     0.033     2.551     2.498
    92   1 H        0.926     0.041     2.441     2.443
    93   1 H        0.926     0.045     2.386     2.416
    94   1 H        0.926     0.033     2.540     2.492
    95   1 H        0.926     0.037     2.494     2.469
    96   1 H        0.925     0.037     2.490     2.468
    97   1 H        0.925     0.040     2.452     2.449
    98   1 H        0.925     0.034     2.534     2.489
    99   1 H        0.925     0.037     2.485     2.465
   100   1 H        0.925     0.037     2.484     2.464
   101   1 H        0.925     0.038     2.471     2.458
   102   1 H        0.925     0.037     2.493     2.469
   103   1 H        0.925     0.040     2.450     2.448
   104   1 H        0.925     0.034     2.537     2.491
   105   1 H        0.926     0.047     2.362     2.403
   106   1 H        0.926     0.047     2.359     2.402
   107   1 H        0.925     0.038     2.482     2.464
   108   1 H        0.925     0.037     2.483     2.464
   109   1 H        0.925     0.038     2.469     2.457
   110   1 H        0.925     0.034     2.536     2.491
   111   1 H        0.925     0.040     2.448     2.447
   112   1 H        0.925     0.037     2.494     2.469
   113   1 H        0.925     0.040     2.451     2.448
   114   1 H        0.925     0.034     2.534     2.489
   115   1 H        0.925     0.037     2.492     2.468
   116   1 H        0.926     0.037     2.496     2.470
   117   1 H        0.926     0.033     2.538     2.491
   118   1 H        0.926     0.044     2.397     2.421
   119   1 H        0.926     0.058     2.219     2.329
   120   1 H        0.926     0.041     2.441     2.443
   121   1 H        0.926     0.045     2.384     2.415

molecular dipole:
                 x           y           z       tot (Debye)
 q only:       -0.009      -1.548       0.575
   full:       -0.009      -1.862       0.730       5.083

 projected vibrational frequencies (cm⁻¹)
eigval :       -0.00    -0.00     0.00     0.00     0.00     0.00
eigval :        3.89     5.55    10.14    14.82    20.85    21.71
eigval :       29.69    32.63    34.28    34.97    36.16    51.66
eigval :       53.21    55.17    57.78    64.60    72.39    85.61
eigval :       90.66    98.07   100.72   103.20   108.71   118.84
eigval :      123.66   147.45   154.55   157.08   160.69   171.93
eigval :      175.23   181.27   183.74   187.32   198.15   201.18
eigval :      201.78   213.29   215.68   220.21   222.44   227.35
eigval :      228.54   231.55   236.72   248.76   258.12   259.83
eigval :      269.81   273.55   275.82   290.67   298.13   314.55
eigval :      318.70   320.08   323.44   324.62   325.71   326.67
eigval :      337.55   340.32   341.28   358.29   358.81   359.59
eigval :      366.11   368.05   382.37   383.64   389.05   391.05
eigval :      397.97   399.18   404.10   408.13   409.50   417.53
eigval :      440.37   440.86   441.38   443.00   449.17   462.61
eigval :      463.90   464.24   465.22   465.42   472.37   492.03
eigval :      493.12   517.76   517.97   524.32   533.26   558.78
eigval :      564.84   575.98   579.93   580.10   581.32   586.08
eigval :      586.33   598.03   606.43   618.00   628.59   629.04
eigval :      639.91   641.95   643.19   680.45   681.53   685.58
eigval :      690.63   692.03   706.89   708.87   716.15   716.84
eigval :      718.88   719.79   738.61   754.69   789.80   790.19
eigval :      814.58   815.57   823.83   824.51   826.38   827.41
eigval :      830.02   830.13   831.96   850.11   853.20   870.96
eigval :      871.45   872.10   872.31   873.32   873.71   889.34
eigval :      902.00   908.35   909.92   910.24   913.64   913.92
eigval :      922.09   922.76   925.10   926.17   927.39   928.19
eigval :      933.63   936.08   948.89   959.01   959.06   959.13
eigval :      959.17   961.43   961.58   961.61   961.88   962.33
eigval :      962.60   962.81   963.01   963.20  1010.74  1014.86
eigval :     1029.82  1029.91  1033.55  1033.99  1034.43  1035.00
eigval :     1035.13  1035.16  1039.96  1040.01  1106.39  1111.29
eigval :     1112.70  1127.40  1127.54  1140.09  1140.47  1140.76
eigval :     1143.98  1151.34  1168.04  1168.18  1186.50  1188.65
eigval :     1209.78  1216.52  1224.35  1224.43  1224.57  1224.67
eigval :     1228.19  1228.39  1228.82  1229.04  1231.00  1231.15
eigval :     1238.08  1240.05  1251.95  1255.10  1258.12  1262.61
eigval :     1269.66  1272.96  1280.85  1281.44  1286.70  1293.67
eigval :     1293.95  1300.79  1300.98  1319.27  1319.61  1342.31
eigval :     1344.02  1344.58  1345.46  1347.12  1354.68  1373.68
eigval :     1376.33  1399.22  1399.30  1401.47  1401.61  1402.02
eigval :     1402.15  1402.57  1403.13  1406.36  1408.06  1410.54
eigval :     1417.19  1418.49  1426.46  1426.52  1426.62  1427.02
eigval :     1431.22  1434.36  1440.19  1440.42  1466.89  1467.06
eigval :     1476.21  1477.17  1477.46  1478.48  1487.30  1487.48
eigval :     1488.07  1488.60  1490.91  1490.95  1491.20  1491.51
eigval :     1497.80  1497.87  1497.91  1497.99  1500.61  1500.94
eigval :     1501.25  1502.03  1503.56  1504.50  1511.17  1511.51
eigval :     1511.69  1511.89  1516.86  1516.96  1517.91  1518.03
eigval :     1534.60  1563.23  1563.49  1563.74  1573.54  1575.34
eigval :     1579.49  1585.61  1585.84  1599.82  1603.97  3020.48
eigval :     3020.59  3020.68  3020.77  3021.15  3021.38  3021.51
eigval :     3021.62  3024.29  3024.65  3024.76  3024.89  3025.11
eigval :     3026.17  3026.24  3026.37  3028.18  3028.51  3028.73
eigval :     3028.84  3031.46  3031.62  3031.64  3031.98  3036.78
eigval :     3036.82  3037.12  3037.45  3044.11  3044.47  3045.13
eigval :     3045.19  3047.43  3047.78  3048.54  3048.56  3080.25
eigval :     3081.49  3083.21  3083.44  3083.87  3084.40  3084.72
eigval :     3086.30  3086.85  3093.90  3095.55  3095.63  3095.65
eigval :     3096.38  3099.07  3101.19  3114.21  3114.57  3119.90
eigval :     3120.11  3122.37  3122.80

   temp. (K)  partition function   enthalpy   heat capacity  entropy
                                   cal/mol     cal/K/mol   cal/K/mol   J/K/mol
 298.15  VIB  0.158E+29            35511.751    218.212    221.815
         ROT  0.404E+09              888.752      2.981     42.363
         INT  0.638E+37            36400.503    221.193    264.177
         TR   0.237E+29             1481.254      4.968     46.052
         TOT                       37881.7573   226.1612   310.2293  1297.9994

       T/K    H(0)-H(T)+PV         H(T)/Eh          T*S/Eh         G(T)/Eh
   ------------------------------------------------------------------------
    298.15    0.603684E-01    0.105025E+01    0.147400E+00    0.902854E+00
   ------------------------------------------------------------------------

         :::::::::::::::::::::::::::::::::::::::::::::::::::::
         ::                  THERMODYNAMIC                  ::
         :::::::::::::::::::::::::::::::::::::::::::::::::::::
         :: total free energy        -167.981923361667 Eh   ::
         ::.................................................::
         :: total energy             -168.884777490422 Eh   ::
         :: zero point energy           0.989885652518 Eh   ::
         :: G(RRHO) w/o ZPVE           -0.087031523763 Eh   ::
         :: G(RRHO) contrib.            0.902854128756 Eh   ::
         :::::::::::::::::::::::::::::::::::::::::::::::::::::

           -------------------------------------------------
          | TOTAL ENERGY             -168.884777490422 Eh   |
          | TOTAL ENTHALPY           -167.834523415028 Eh   |
          | TOTAL FREE ENERGY        -167.981923361667 Eh   |
          | GRADIENT NORM               0.000056008017 Eh/α |
          | HOMO-LUMO GAP               1.182392568321 eV   |
           -------------------------------------------------

 * finished run on 2025/09/10 at 21:11:32.047
