   * xtb version 6.7.1 (edcfbbe) compiled by 'albert@albert-system' on 2024-07-22

   ID    Z sym.   atoms
    1    6 C      1-6, 8-13, 15-23
    2    8 O      7
    3    7 N      14, 24
    4    1 H      25-38

          program call               : xtb data2507/gas/PXZ-QL/PXZ-QL_gas_S0_finalOpt.xtbopt.xyz --gfn 2 --spinpol --tblite --uhf 2 --ohess vtight --parallel 40 --molden --ceasefiles --namespace data2507/gas/PXZ-QL/PXZ-QL_gas_T1_preOpt
 * total energy  :   -61.9527364 Eh     change        0.2666402E-07 Eh
 * total energy  :   -61.9572412 Eh     change       -0.4504779E-02 Eh
 * total energy  :   -61.9587019 Eh     change       -0.1460755E-02 Eh
 * total energy  :   -61.9589985 Eh     change       -0.2966174E-03 Eh
 * total energy  :   -61.9592934 Eh     change       -0.2948397E-03 Eh
 * total energy  :   -61.9594959 Eh     change       -0.2025730E-03 Eh
 * total energy  :   -61.9597321 Eh     change       -0.2361769E-03 Eh
 * total energy  :   -61.9600063 Eh     change       -0.2742090E-03 Eh
 * total energy  :   -61.9602674 Eh     change       -0.2610888E-03 Eh
 * total energy  :   -61.9604835 Eh     change       -0.2160493E-03 Eh
 * total energy  :   -61.9612357 Eh     change       -0.2911797E-05 Eh
 * total energy  :   -61.9612385 Eh     change       -0.2789177E-05 Eh
 * total energy  :   -61.9612407 Eh     change       -0.2234697E-05 Eh
 * total energy  :   -61.9612421 Eh     change       -0.1383196E-05 Eh
 * total energy  :   -61.9612428 Eh     change       -0.6863461E-06 Eh
 * total energy  :   -61.9612431 Eh     change       -0.3471821E-06 Eh
 * total energy  :   -61.9612433 Eh     change       -0.1941203E-06 Eh
 * total energy  :   -61.9612435 Eh     change       -0.1743897E-06 Eh
 * total energy  :   -61.9612435 Eh     change       -0.2893600E-08 Eh
   *** GEOMETRY OPTIMIZATION CONVERGED AFTER 44 ITERATIONS ***

 final structure:
================
38
 xtb: 6.7.1 (edcfbbe)
C           -3.51436377175883       -3.18451357317191       -0.62691315125409
C           -2.15379921941676       -3.43957472445708       -0.72279728434066
C           -1.23529023096205       -2.42737222645908       -0.53234514116000
C           -1.65631625652756       -1.12845077312004       -0.23738838718762
C           -3.03965586502050       -0.87194718612529       -0.19357503618598
C           -3.95433115688994       -1.89631369277672       -0.37498963881291
O           -3.53703572880175        0.38309077865494        0.00498919639067
C           -2.64507391442002        1.41239739508835        0.09093588603236
C           -3.16536498439191        2.69293891272710        0.19509535098896
C           -2.31483211310197        3.78097171592176        0.29518647486820
C           -0.94380276521396        3.58466677464617        0.30367906638804
C           -0.41590755997096        2.30992539209349        0.21342934066027
C           -1.25483112832011        1.20314256893770        0.08688982461255
N           -0.76094117770745       -0.09143913039901       -0.01932227889292
C            0.60270145729978       -0.34892590789894        0.17606329830186
C            1.02454841896780       -1.25967892382566        1.12954522441808
C            2.38158919923141       -1.44362947007310        1.34495962872006
C            3.32791454217240       -0.72160542721645        0.57158050370152
C            4.70695198799401       -0.86061525766364        0.68645093236999
C            5.57799277973159       -0.11389941388003       -0.10919031501439
C            5.07702027195730        0.76249661712996       -1.04938934249370
C            3.70366658328330        0.90777835587850       -1.21217827468273
C            2.80921146357513        0.17706161488203       -0.41862224585656
N            1.49331784486353        0.31203748075127       -0.60537624014076
H           -4.23038090264357       -3.97928398194949       -0.76185854437104
H           -1.80480655097755       -4.43516572590790       -0.94815942836684
H           -0.17942671675725       -2.62716231490850       -0.62063916185627
H           -5.00470445724738       -1.65928020392641       -0.32078159947763
H           -4.23697525982236        2.81082282294648        0.20169639026941
H           -2.72553507753652        4.77481017462041        0.37814076516879
H           -0.27634346174887        4.42738074360291        0.39319134410019
H            0.65116665018776        2.16330374809906        0.22287628158104
H            0.28654454635493       -1.77009892628254        1.73103398181032
H            2.72437270147796       -2.09811923225717        2.13009439750145
H            5.10150339308032       -1.57711548781335        1.39256745800270
H            6.64442151337231       -0.23254823335960        0.01332642397731
H            5.74790125124618        1.34043467001194       -1.66777866159707
H            3.29968141866285        1.61387835581271       -1.92095129108393

 projected vibrational frequencies (cm⁻¹)
eigval :       -0.00    -0.00    -0.00     0.00     0.00     0.00
eigval :       26.15    34.41    45.45    65.94   107.19   138.67
eigval :      163.61   166.79   197.26   245.35   257.31   274.60
eigval :      288.78   330.39   347.97   393.41   414.95   423.09
eigval :      432.74   438.29   462.48   484.78   490.93   497.25
eigval :      516.71   520.56   533.91   557.43   566.32   596.90
eigval :      613.66   663.35   669.48   673.63   676.12   702.52
eigval :      741.98   765.86   772.52   776.60   781.55   789.24
eigval :      825.93   834.37   850.50   853.52   854.51   856.20
eigval :      871.72   891.81   895.13   900.48   911.22   915.99
eigval :      917.75   983.59  1073.47  1080.63  1084.90  1098.49
eigval :     1115.01  1119.24  1125.17  1168.64  1172.74  1173.02
eigval :     1187.95  1202.12  1210.12  1214.57  1228.92  1236.23
eigval :     1250.19  1271.16  1284.96  1308.71  1313.91  1322.57
eigval :     1331.87  1349.02  1383.39  1385.53  1405.43  1410.94
eigval :     1433.83  1438.77  1461.07  1467.31  1486.11  1517.01
eigval :     1533.06  1538.78  1557.87  1574.01  3067.12  3068.63
eigval :     3073.69  3086.07  3093.16  3095.87  3096.07  3096.27
eigval :     3104.56  3104.82  3111.92  3115.13  3116.21  3120.67

   temp. (K)  partition function   enthalpy   heat capacity  entropy
                                   cal/mol     cal/K/mol   cal/K/mol   J/K/mol
 298.15  VIB  0.151E+07             9620.478     67.123     56.326
         ROT  0.888E+07              888.752      2.981     34.776
         INT  0.134E+14            10509.230     70.104     91.103
         TR   0.529E+28             1481.254      4.968     43.074
         TOT                       11990.4841    75.0718   134.1769   561.3961

       T/K    H(0)-H(T)+PV         H(T)/Eh          T*S/Eh         G(T)/Eh
   ------------------------------------------------------------------------
    298.15    0.191081E-01    0.301318E+00    0.637518E-01    0.237566E+00
   ------------------------------------------------------------------------

         :::::::::::::::::::::::::::::::::::::::::::::::::::::
         ::                  THERMODYNAMIC                  ::
         :::::::::::::::::::::::::::::::::::::::::::::::::::::
         :: total free energy         -61.723677420048 Eh   ::
         ::.................................................::
         :: total energy              -61.961243476179 Eh   ::
         :: zero point energy           0.282209770967 Eh   ::
         :: G(RRHO) w/o ZPVE           -0.044643714836 Eh   ::
         :: G(RRHO) contrib.            0.237566056131 Eh   ::
         :::::::::::::::::::::::::::::::::::::::::::::::::::::

           -------------------------------------------------
          | TOTAL ENERGY              -61.961243476179 Eh   |
          | TOTAL ENTHALPY            -61.659925652527 Eh   |
          | TOTAL FREE ENERGY         -61.723677420048 Eh   |
          | GRADIENT NORM               0.000028868960 Eh/α |
           -------------------------------------------------

 * finished run on 2025/08/30 at 23:36:15.200
