   * xtb version 6.7.1 (edcfbbe) compiled by 'albert@albert-system' on 2024-07-22

   ID    Z sym.   atoms
    1    6 C      1-6, 8-13, 15-23
    2    8 O      7
    3    7 N      14, 24
    4    1 H      25-38

          program call               : xtb data2507/gas/PXZ-QL/PXZ-QL_gas_T1_crest.xyz --gfn 2 --spinpol --tblite --uhf 2 --ohess vtight --parallel 40 --molden --ceasefiles --namespace data2507/gas/PXZ-QL/PXZ-QL_gas_T1_finalOpt
 * total energy  :   -61.9607359 Eh     change       -0.7446857E-08 Eh
 * total energy  :   -61.9609820 Eh     change       -0.2460939E-03 Eh
 * total energy  :   -61.9611637 Eh     change       -0.1816561E-03 Eh
 * total energy  :   -61.9611958 Eh     change       -0.3206748E-04 Eh
 * total energy  :   -61.9612065 Eh     change       -0.1074278E-04 Eh
 * total energy  :   -61.9612154 Eh     change       -0.8904505E-05 Eh
 * total energy  :   -61.9612203 Eh     change       -0.4863922E-05 Eh
 * total energy  :   -61.9612276 Eh     change       -0.7291016E-05 Eh
 * total energy  :   -61.9612309 Eh     change       -0.3321989E-05 Eh
 * total energy  :   -61.9612328 Eh     change       -0.1931992E-05 Eh
 * total energy  :   -61.9612367 Eh     change       -0.2104698E-05 Eh
 * total energy  :   -61.9612389 Eh     change       -0.2221128E-05 Eh
 * total energy  :   -61.9612407 Eh     change       -0.1767081E-05 Eh
 * total energy  :   -61.9612418 Eh     change       -0.1056667E-05 Eh
 * total energy  :   -61.9612424 Eh     change       -0.6127055E-06 Eh
 * total energy  :   -61.9612427 Eh     change       -0.3646975E-06 Eh
 * total energy  :   -61.9612429 Eh     change       -0.1966329E-06 Eh
 * total energy  :   -61.9612431 Eh     change       -0.1139271E-06 Eh
 * total energy  :   -61.9612431 Eh     change       -0.9063972E-07 Eh
   *** GEOMETRY OPTIMIZATION CONVERGED AFTER 20 ITERATIONS ***

 final structure:
================
38
 xtb: 6.7.1 (edcfbbe)
C           -3.51215523107271       -3.19304846247471       -0.40190668015127
C           -2.15345329130262       -3.45567276963136       -0.50494790077442
C           -1.23050849098138       -2.43824609977704       -0.37334957103174
C           -1.64505184850631       -1.12614468589045       -0.13216111413503
C           -3.02719317872593       -0.86438414545500       -0.08091895989271
C           -3.94621658026936       -1.89365305355649       -0.20272598714725
O           -3.51908002903540        0.39972327896701        0.06774338283474
C           -2.62401248094422        1.42965156967597        0.09012789758320
C           -3.14026473694566        2.71515175498665        0.14009232426285
C           -2.28630118453076        3.80454433326242        0.17316977087474
C           -0.91563349722833        3.60545800960716        0.16861723447888
C           -0.39156500175694        2.32644922934558        0.13290804680182
C           -1.23437960103991        1.21698612012620        0.07497312415990
N           -0.74463095679873       -0.08275032498084        0.02610838612360
C            0.61923316267046       -0.33576912245832        0.22564815824945
C            1.04248066430089       -1.20211802411068        1.21918501178353
C            2.39981568097128       -1.37967832096505        1.43765247584217
C            3.34497355863609       -0.69724680798580        0.62779634998500
C            4.72411314828515       -0.83387620381626        0.74443229057296
C            5.59391154118388       -0.12795418119300       -0.08883362570675
C            5.09151945647859        0.70379739077856       -1.06805954480831
C            3.71793661233789        0.84447403472218       -1.23279808283499
C            2.82475715842409        0.15470394767095       -0.40207235322468
N            1.50841673826743        0.28415717205435       -0.59000866732781
H           -4.23145001543242       -3.99135650649205       -0.49065084202183
H           -1.80961184496691       -4.46137024814047       -0.68969948908260
H           -0.17625620958233       -2.64430701163052       -0.46662453944642
H           -4.99529658691878       -1.65185959911324       -0.14453407000952
H           -4.21141706363642        2.83596175040575        0.15831706329248
H           -2.69384645401987        4.80229113147987        0.21435253422724
H           -0.24531094087770        4.44985363344489        0.20532734685258
H            0.67526367228822        2.17734772328654        0.13172008645517
H            0.30550137815181       -1.68137822395554        1.84698523561095
H            2.74394493617323       -1.99761468391067        2.25129253384588
H            5.11957377543319       -1.51670871016824        1.48265827530297
H            6.66052016164478       -0.24289808952639        0.03569094652849
H            5.76149548610436        1.25008380750801       -1.71551497905133
H            3.31303998522070        1.51691621111073       -1.97308884682201

 projected vibrational frequencies (cm⁻¹)
eigval :       -0.00    -0.00     0.00     0.00     0.00     0.00
eigval :       26.17    35.09    45.17    66.12   107.10   138.75
eigval :      163.55   166.97   197.71   245.35   257.02   274.79
eigval :      288.89   330.60   347.05   393.92   414.85   423.29
eigval :      432.82   438.32   462.30   484.44   490.96   497.09
eigval :      516.65   520.54   534.00   557.24   566.12   596.92
eigval :      613.80   663.23   669.59   673.65   676.30   702.30
eigval :      741.83   765.94   772.63   776.57   781.42   789.80
eigval :      825.99   833.93   851.25   853.64   854.14   855.98
eigval :      871.62   891.80   895.29   900.40   911.11   916.07
eigval :      917.72   983.71  1073.47  1080.30  1084.79  1098.61
eigval :     1114.97  1120.14  1125.11  1168.15  1172.78  1173.03
eigval :     1187.85  1202.03  1209.93  1214.70  1228.89  1236.45
eigval :     1249.80  1270.77  1284.86  1308.71  1313.76  1322.61
eigval :     1331.84  1349.04  1383.47  1385.56  1405.31  1411.12
eigval :     1433.77  1438.80  1461.13  1467.57  1486.38  1517.22
eigval :     1532.71  1538.52  1557.94  1573.91  3067.06  3068.64
eigval :     3073.81  3086.09  3093.02  3095.70  3095.98  3096.23
eigval :     3104.51  3104.73  3111.78  3115.06  3116.09  3119.84

   temp. (K)  partition function   enthalpy   heat capacity  entropy
                                   cal/mol     cal/K/mol   cal/K/mol   J/K/mol
 298.15  VIB  0.148E+07             9619.590     67.132     56.318
         ROT  0.888E+07              888.752      2.981     34.776
         INT  0.132E+14            10508.343     70.113     91.094
         TR   0.529E+28             1481.254      4.968     43.074
         TOT                       11989.5964    75.0807   134.1686   561.3616

       T/K    H(0)-H(T)+PV         H(T)/Eh          T*S/Eh         G(T)/Eh
   ------------------------------------------------------------------------
    298.15    0.191066E-01    0.301312E+00    0.637478E-01    0.237565E+00
   ------------------------------------------------------------------------

         :::::::::::::::::::::::::::::::::::::::::::::::::::::
         ::                  THERMODYNAMIC                  ::
         :::::::::::::::::::::::::::::::::::::::::::::::::::::
         :: total free energy         -61.723678638260 Eh   ::
         ::.................................................::
         :: total energy              -61.961243144048 Eh   ::
         :: zero point energy           0.282205716795 Eh   ::
         :: G(RRHO) w/o ZPVE           -0.044641211007 Eh   ::
         :: G(RRHO) contrib.            0.237564505788 Eh   ::
         :::::::::::::::::::::::::::::::::::::::::::::::::::::

           -------------------------------------------------
          | TOTAL ENERGY              -61.961243144048 Eh   |
          | TOTAL ENTHALPY            -61.659930789140 Eh   |
          | TOTAL FREE ENERGY         -61.723678638260 Eh   |
          | GRADIENT NORM               0.000040302104 Eh/α |
           -------------------------------------------------

 * finished run on 2025/08/30 at 23:37:43.058
