   * xtb version 6.7.1 (edcfbbe) compiled by 'albert@albert-system' on 2024-07-22

   ID    Z sym.   atoms
    1    6 C      1-6, 8-13, 15-23
    2    8 O      7
    3    7 N      14, 24
    4    1 H      25-38

          program call               : xtb data2507/gas/PXZ-QL/PXZ-QL_gas_S0_crest.xyz --gfn 2 --ohess vtight --parallel 40 --molden --ceasefiles --namespace data2507/gas/PXZ-QL/PXZ-QL_gas_S0_finalOpt
          :  Hamiltonian                  GFN2-xTB          :
 * total energy  :   -62.0440666 Eh     change       -0.4027989E-08 Eh
 * total energy  :   -62.0440672 Eh     change       -0.6538808E-06 Eh
 * total energy  :   -62.0440680 Eh     change       -0.7821022E-06 Eh
 * total energy  :   -62.0440696 Eh     change       -0.1571918E-05 Eh
 * total energy  :   -62.0440706 Eh     change       -0.9648756E-06 Eh
 * total energy  :   -62.0440709 Eh     change       -0.2845398E-06 Eh
 * total energy  :   -62.0440710 Eh     change       -0.1532512E-06 Eh
 * total energy  :   -62.0440712 Eh     change       -0.1559492E-06 Eh
 * total energy  :   -62.0440713 Eh     change       -0.1276336E-06 Eh
 * total energy  :   -62.0440714 Eh     change       -0.8905485E-07 Eh
   *** GEOMETRY OPTIMIZATION CONVERGED AFTER 10 ITERATIONS ***

 final structure:
================
38
 xtb: 6.7.1 (edcfbbe)
C           -3.49037919484460       -3.15364626789333       -0.41563854425720
C           -2.19641322130420       -3.34604775667301       -0.86374647771696
C           -1.27001446369974       -2.32033144895742       -0.78213944239639
C           -1.61910973593611       -1.09433342794368       -0.22741255388127
C           -2.94531834450339       -0.89066825056761        0.16686147406363
C           -3.87031080210626       -1.91803454600713        0.08141017986295
O           -3.37218997093598        0.32210026942894        0.63588138937917
C           -2.57407454445633        1.39997920957022        0.32973957810342
C           -3.14774189054927        2.65493939019434        0.43784106392556
C           -2.40162542715491        3.78706037769316        0.15583012150183
C           -1.08901577320685        3.65343632257683       -0.25362461089801
C           -0.51286906465838        2.39899150402664       -0.37509176462832
C           -1.23905544135202        1.25648296582589       -0.06938826133090
N           -0.69568917950042       -0.04369879498158       -0.10589902252841
C            0.65162407281855       -0.31817811362078        0.08173662141918
C            1.01705046645366       -1.44917692388103        0.86677196738140
C            2.33669615474785       -1.70825896633061        1.07320351753564
C            3.31783561855517       -0.86063518866355        0.50637680633713
C            4.70008851885869       -1.05962169123416        0.65909261734467
C            5.59098778570604       -0.18659552725408        0.09384098969428
C            5.13238635627244        0.91543651333540       -0.64172555682083
C            3.79210326694608        1.13843894167261       -0.80545433321167
C            2.85282723020019        0.25494494711774       -0.23814625021956
N            1.54114672274372        0.49415376645171       -0.43333074875919
H           -4.21114372395322       -3.95454701970887       -0.46732889277778
H           -1.90032285520120       -4.29558778554092       -1.28219029863581
H           -0.26362086979113       -2.46875137168782       -1.14345916880407
H           -4.87867641214315       -1.73033452762709        0.41396004572455
H           -4.17594567788585        2.72131448175693        0.75637330525003
H           -2.85177301613888        4.76283975565543        0.25243433676308
H           -0.50014242322707        4.52801761234569       -0.48398359799165
H            0.51167908381108        2.28919330818750       -0.68655071332779
H            0.24928748052715       -2.06109377075343        1.31465819454983
H            2.64878233385567       -2.54649948087922        1.68112225132333
H            5.04452731846508       -1.91206923577946        1.22802269712875
H            6.65337581513969       -0.34147686446346        0.21141343331282
H            5.85094088787860        1.59203725150171       -1.08099393890010
H            3.42489127246922        1.98065200970758       -1.37097197041530

          :  Hamiltonian                  GFN2-xTB          :
         :: gradient norm              0.000040010397 Eh/a0 ::
         :: HOMO-LUMO gap              2.100231997559 eV    ::
         :: SCC energy               -63.126000600120 Eh    ::
         :: -> dispersion             -0.048241493898 Eh    ::
         :: repulsion energy           1.081929223425 Eh    ::

    * Orbital Energies and Occupations

         #    Occupation            Energy/Eh            Energy/eV
      -------------------------------------------------------------
         1        2.0000           -0.7287299             -19.8297
       ...           ...                  ...                  ...
        45        2.0000           -0.4441518             -12.0860
        46        2.0000           -0.4379666             -11.9177
        47        2.0000           -0.4361496             -11.8682
        48        2.0000           -0.4343901             -11.8204
        49        2.0000           -0.4336137             -11.7992
        50        2.0000           -0.4220810             -11.4854
        51        2.0000           -0.4145402             -11.2802
        52        2.0000           -0.4129927             -11.2381
        53        2.0000           -0.4075854             -11.0910
        54        2.0000           -0.3935283             -10.7084
        55        2.0000           -0.3894203             -10.5967
        56        2.0000           -0.3665630              -9.9747
        57        2.0000           -0.3483586              -9.4793 (HOMO)
        58                         -0.2711766              -7.3791 (LUMO)
        59                         -0.2403739              -6.5409
        60                         -0.2358719              -6.4184
        61                         -0.2291528              -6.2356
        62                         -0.2152786              -5.8580
        63                         -0.2048260              -5.5736
        64                         -0.1960243              -5.3341
        65                         -0.1529531              -4.1621
        66                         -0.1023476              -2.7850
        67                         -0.0816610              -2.2221
        68                         -0.0642430              -1.7481
       ...                                ...                  ...
       110                          0.6933679              18.8675
      -------------------------------------------------------------
                  HL-Gap            0.0771820 Eh            2.1002 eV

     #   Z          covCN         q      C6AA      α(0)
     1   6 C        2.920    -0.037    28.920     8.819
     2   6 C        2.919    -0.039    28.960     8.825
     3   6 C        2.923    -0.051    29.277     8.873
     4   6 C        2.930     0.041    27.073     8.533
     5   6 C        2.893     0.128    25.191     8.229
     6   6 C        2.919    -0.055    29.372     8.887
     7   8 O        1.708    -0.254    18.201     5.760
     8   6 C        2.893     0.125    25.264     8.241
     9   6 C        2.919    -0.055    29.368     8.887
    10   6 C        2.919    -0.037    28.930     8.820
    11   6 C        2.920    -0.037    28.921     8.819
    12   6 C        2.922    -0.057    29.422     8.895
    13   6 C        2.924     0.044    27.003     8.522
    14   7 N        2.755    -0.065    22.494     7.044
    15   6 C        2.892     0.152    24.706     8.149
    16   6 C        2.913    -0.057    29.423     8.895
    17   6 C        2.921    -0.021    28.527     8.759
    18   6 C        2.985    -0.005    28.147     8.703
    19   6 C        2.917    -0.035    28.865     8.810
    20   6 C        2.916    -0.032    28.807     8.801
    21   6 C        2.917    -0.028    28.688     8.783
    22   6 C        2.921    -0.041    29.026     8.835
    23   6 C        2.965     0.092    25.961     8.357
    24   7 N        1.848    -0.270    27.860     7.823
    25   1 H        0.926     0.041     2.432     2.439
    26   1 H        0.926     0.039     2.458     2.452
    27   1 H        0.926     0.039     2.462     2.454
    28   1 H        0.926     0.053     2.285     2.364
    29   1 H        0.926     0.051     2.312     2.378
    30   1 H        0.926     0.039     2.458     2.452
    31   1 H        0.926     0.040     2.454     2.450
    32   1 H        0.926     0.077     2.007     2.215
    33   1 H        0.926     0.034     2.524     2.484
    34   1 H        0.925     0.034     2.532     2.488
    35   1 H        0.926     0.031     2.566     2.505
    36   1 H        0.926     0.033     2.548     2.496
    37   1 H        0.926     0.035     2.516     2.481
    38   1 H        0.926     0.048     2.350     2.397

molecular dipole:
                 x           y           z       tot (Debye)
 q only:        0.199      -0.149      -0.062
   full:        0.362      -0.528       0.188       1.695

 projected vibrational frequencies (cm⁻¹)
eigval :       -0.00    -0.00     0.00     0.00     0.00     0.00
eigval :       22.60    44.90    62.00    67.69   103.62   139.65
eigval :      168.66   175.63   215.23   243.84   255.17   292.16
eigval :      303.20   341.02   363.06   395.08   409.92   427.81
eigval :      437.59   445.82   456.19   499.16   507.49   509.82
eigval :      528.37   535.59   545.99   580.10   598.29   620.83
eigval :      641.20   662.38   669.06   685.43   733.05   762.23
eigval :      778.57   783.20   789.53   805.77   830.59   838.09
eigval :      856.00   871.85   874.76   876.03   892.96   903.81
eigval :      905.25   912.31   918.43   918.89   919.80   928.58
eigval :      930.41  1001.77  1071.32  1085.50  1087.05  1102.81
eigval :     1119.03  1139.77  1163.86  1170.95  1174.30  1175.53
eigval :     1183.41  1199.89  1220.07  1233.60  1238.17  1240.07
eigval :     1252.21  1301.96  1305.27  1314.63  1331.57  1338.08
eigval :     1367.75  1381.44  1409.82  1426.12  1441.53  1455.95
eigval :     1474.33  1494.96  1499.00  1545.38  1571.52  1577.63
eigval :     1586.89  1591.20  1598.76  1606.43  3061.09  3066.69
eigval :     3077.21  3087.41  3088.10  3089.22  3092.33  3094.68
eigval :     3098.01  3102.06  3102.98  3109.96  3113.04  3131.30

   temp. (K)  partition function   enthalpy   heat capacity  entropy
                                   cal/mol     cal/K/mol   cal/K/mol   J/K/mol
 298.15  VIB  0.751E+06             9306.738     65.640     54.716
         ROT  0.886E+07              888.752      2.981     34.770
         INT  0.665E+13            10195.490     68.621     89.486
         TR   0.529E+28             1481.254      4.968     43.074
         TOT                       11676.7443    73.5894   132.5607   554.6340

       T/K    H(0)-H(T)+PV         H(T)/Eh          T*S/Eh         G(T)/Eh
   ------------------------------------------------------------------------
    298.15    0.186081E-01    0.305152E+00    0.629839E-01    0.242168E+00
   ------------------------------------------------------------------------

         :::::::::::::::::::::::::::::::::::::::::::::::::::::
         ::                  THERMODYNAMIC                  ::
         :::::::::::::::::::::::::::::::::::::::::::::::::::::
         :: total free energy         -61.801903217967 Eh   ::
         ::.................................................::
         :: total energy              -62.044071376696 Eh   ::
         :: zero point energy           0.286543950161 Eh   ::
         :: G(RRHO) w/o ZPVE           -0.044375791431 Eh   ::
         :: G(RRHO) contrib.            0.242168158729 Eh   ::
         :::::::::::::::::::::::::::::::::::::::::::::::::::::

           -------------------------------------------------
          | TOTAL ENERGY              -62.044071376696 Eh   |
          | TOTAL ENTHALPY            -61.738919349960 Eh   |
          | TOTAL FREE ENERGY         -61.801903217967 Eh   |
          | GRADIENT NORM               0.000040087395 Eh/α |
          | HOMO-LUMO GAP               2.100229063650 eV   |
           -------------------------------------------------

 * finished run on 2025/08/30 at 23:36:12.253
