   * xtb version 6.7.1 (edcfbbe) compiled by 'albert@albert-system' on 2024-07-22

   ID    Z sym.   atoms
    1    6 C      1-6, 8-13, 15-23
    2    8 O      7
    3    7 N      14, 24
    4    1 H      25-38

          program call               : xtb data2507/gas/PXZ-QL/PXZ-QL.xyz --gfn 2 --ohess vtight --parallel 40 --molden --ceasefiles --namespace data2507/gas/PXZ-QL/PXZ-QL_gas_S0_preOpt
          :  Hamiltonian                  GFN2-xTB          :
 * total energy  :   -62.0286298 Eh     change       -0.1142105E-08 Eh
 * total energy  :   -62.0374061 Eh     change       -0.8776271E-02 Eh
 * total energy  :   -62.0403346 Eh     change       -0.2928582E-02 Eh
 * total energy  :   -62.0409641 Eh     change       -0.6294586E-03 Eh
 * total energy  :   -62.0412924 Eh     change       -0.3283451E-03 Eh
 * total energy  :   -62.0413874 Eh     change       -0.9497443E-04 Eh
 * total energy  :   -62.0414877 Eh     change       -0.1003165E-03 Eh
 * total energy  :   -62.0416036 Eh     change       -0.1158845E-03 Eh
 * total energy  :   -62.0417535 Eh     change       -0.1498585E-03 Eh
 * total energy  :   -62.0419539 Eh     change       -0.2004471E-03 Eh
 * total energy  :   -62.0440694 Eh     change       -0.5829264E-06 Eh
 * total energy  :   -62.0440699 Eh     change       -0.4807578E-06 Eh
 * total energy  :   -62.0440702 Eh     change       -0.3313308E-06 Eh
 * total energy  :   -62.0440705 Eh     change       -0.2652572E-06 Eh
 * total energy  :   -62.0440707 Eh     change       -0.2819565E-06 Eh
 * total energy  :   -62.0440710 Eh     change       -0.3025126E-06 Eh
 * total energy  :   -62.0440713 Eh     change       -0.2287057E-06 Eh
 * total energy  :   -62.0440714 Eh     change       -0.1266742E-06 Eh
 * total energy  :   -62.0440715 Eh     change       -0.8226282E-07 Eh
   *** GEOMETRY OPTIMIZATION CONVERGED AFTER 60 ITERATIONS ***

 final structure:
================
38
 xtb: 6.7.1 (edcfbbe)
C           -3.57917884810583       -3.21613630530310       -0.14197595474289
C           -2.28756287027711       -3.40610114188111       -0.59786495364810
C           -1.38528708177987       -2.35593988803203       -0.59537488476639
C           -1.75621178508002       -1.10593483681075       -0.11316606058347
C           -3.08125157935090       -0.90869002282663        0.28818361987345
C           -3.98200218533698       -1.96083121620017        0.28240635219141
O           -3.53061374542122        0.32127586349269        0.68606955084481
C           -2.76381170674230        1.39565689318393        0.29826151347109
C           -3.36688456245404        2.64095728345461        0.33300996345299
C           -2.65277963288910        3.76964030312813       -0.03314397928845
C           -1.34271625707873        3.64089978063818       -0.45223524657878
C           -0.73741519278257        2.39526633544820       -0.50064173925278
C           -1.43119281525475        1.25821630117186       -0.11090124175181
N           -0.85689177793837       -0.02849619844369       -0.07209694693364
C            0.49886779844974       -0.25918425210282        0.11331563010602
C            0.90112793647938       -1.32974773255803        0.96250118999010
C            2.22908493247179       -1.54528702616286        1.16551363081880
C            3.18242171806734       -0.71306794609986        0.53229045128767
C            4.57086091072174       -0.87095734793010        0.67659053004301
C            5.43345957356723       -0.01516163087273        0.04497541892677
C            4.93939891251107        1.02817780700684       -0.75075107882385
C            3.59218948133052        1.21019138950322       -0.90827116671409
C            2.68150730286860        0.34285389563178       -0.27343524971156
N            1.36209058015084        0.53940587567577       -0.46420027507480
H           -4.28085662314577       -4.03538164013885       -0.13176036703460
H           -1.97458769668499       -4.37292893230362       -0.96073620949776
H           -0.38078884739716       -2.50319751093364       -0.96240238095469
H           -4.98974957235051       -1.77626786595371        0.61854805839260
H           -4.39209789837684        2.70357426800078        0.66177855575695
H           -3.12567947048624        4.73862375464575        0.00626588757668
H           -0.77873985419813        4.51238410121760       -0.74750018145002
H            0.28534214604044        2.28969355498748       -0.81937217851585
H            0.15389742762130       -1.92940548896005        1.45905185786899
H            2.56882590320355       -2.33621254021254        1.82020874421630
H            4.94274166063892       -1.67824994903553        1.29220186783513
H            6.50065601317489       -0.13857381468795        0.15605509159824
H            5.63598698425310        1.69204265121251       -1.24178560442301
H            3.19784272158100        2.00689222905086       -1.51961121450305

          :  Hamiltonian                  GFN2-xTB          :
         :: gradient norm              0.000031169922 Eh/a0 ::
         :: HOMO-LUMO gap              2.101537386143 eV    ::
         :: SCC energy               -63.126003292000 Eh    ::
         :: -> dispersion             -0.048242201493 Eh    ::
         :: repulsion energy           1.081931816383 Eh    ::

    * Orbital Energies and Occupations

         #    Occupation            Energy/Eh            Energy/eV
      -------------------------------------------------------------
         1        2.0000           -0.7287255             -19.8296
       ...           ...                  ...                  ...
        45        2.0000           -0.4441341             -12.0855
        46        2.0000           -0.4379687             -11.9177
        47        2.0000           -0.4361627             -11.8686
        48        2.0000           -0.4343838             -11.8202
        49        2.0000           -0.4336031             -11.7989
        50        2.0000           -0.4220820             -11.4854
        51        2.0000           -0.4145402             -11.2802
        52        2.0000           -0.4129962             -11.2382
        53        2.0000           -0.4075800             -11.0908
        54        2.0000           -0.3935190             -10.7082
        55        2.0000           -0.3894300             -10.5969
        56        2.0000           -0.3665548              -9.9745
        57        2.0000           -0.3483840              -9.4800 (HOMO)
        58                         -0.2711539              -7.3785 (LUMO)
        59                         -0.2403679              -6.5407
        60                         -0.2358679              -6.4183
        61                         -0.2291578              -6.2357
        62                         -0.2153046              -5.8587
        63                         -0.2048501              -5.5743
        64                         -0.1960233              -5.3341
        65                         -0.1529265              -4.1613
        66                         -0.1023569              -2.7853
        67                         -0.0817128              -2.2235
        68                         -0.0642234              -1.7476
       ...                                ...                  ...
       110                          0.6933667              18.8675
      -------------------------------------------------------------
                  HL-Gap            0.0772301 Eh            2.1015 eV

     #   Z          covCN         q      C6AA      α(0)
     1   6 C        2.920    -0.037    28.920     8.819
     2   6 C        2.919    -0.039    28.960     8.825
     3   6 C        2.923    -0.051    29.277     8.873
     4   6 C        2.930     0.041    27.073     8.533
     5   6 C        2.893     0.128    25.191     8.229
     6   6 C        2.919    -0.055    29.372     8.887
     7   8 O        1.708    -0.254    18.201     5.760
     8   6 C        2.894     0.125    25.264     8.241
     9   6 C        2.919    -0.055    29.367     8.887
    10   6 C        2.919    -0.037    28.930     8.820
    11   6 C        2.920    -0.037    28.921     8.819
    12   6 C        2.922    -0.057    29.421     8.895
    13   6 C        2.924     0.044    27.003     8.522
    14   7 N        2.755    -0.065    22.494     7.044
    15   6 C        2.892     0.152    24.705     8.149
    16   6 C        2.913    -0.057    29.423     8.895
    17   6 C        2.921    -0.021    28.527     8.759
    18   6 C        2.985    -0.005    28.147     8.703
    19   6 C        2.917    -0.035    28.865     8.810
    20   6 C        2.916    -0.032    28.807     8.801
    21   6 C        2.917    -0.028    28.688     8.783
    22   6 C        2.921    -0.041    29.026     8.835
    23   6 C        2.965     0.092    25.961     8.357
    24   7 N        1.848    -0.270    27.861     7.823
    25   1 H        0.926     0.041     2.432     2.439
    26   1 H        0.926     0.039     2.458     2.452
    27   1 H        0.926     0.039     2.462     2.454
    28   1 H        0.926     0.053     2.284     2.364
    29   1 H        0.926     0.051     2.312     2.378
    30   1 H        0.926     0.039     2.458     2.452
    31   1 H        0.926     0.040     2.454     2.450
    32   1 H        0.926     0.077     2.007     2.215
    33   1 H        0.926     0.034     2.524     2.484
    34   1 H        0.925     0.034     2.532     2.488
    35   1 H        0.926     0.031     2.566     2.505
    36   1 H        0.926     0.033     2.549     2.496
    37   1 H        0.926     0.035     2.517     2.481
    38   1 H        0.926     0.048     2.350     2.397

molecular dipole:
                 x           y           z       tot (Debye)
 q only:        0.200      -0.148      -0.057
   full:        0.375      -0.507       0.214       1.692

 projected vibrational frequencies (cm⁻¹)
eigval :       -0.00    -0.00    -0.00     0.00     0.00     0.00
eigval :       22.62    44.92    62.04    67.69   103.62   139.58
eigval :      168.68   175.61   215.19   243.82   255.13   292.08
eigval :      303.32   341.12   363.04   395.09   409.94   427.79
eigval :      437.57   445.79   456.21   499.18   507.48   509.81
eigval :      528.40   535.61   546.00   580.10   598.28   620.80
eigval :      641.15   662.44   669.07   685.49   733.03   762.23
eigval :      778.55   783.20   789.59   805.77   830.59   838.07
eigval :      855.95   871.85   874.74   876.02   892.96   903.81
eigval :      905.25   912.30   918.43   918.90   919.82   928.57
eigval :      930.35  1001.78  1071.33  1085.45  1087.00  1102.79
eigval :     1119.03  1139.78  1163.88  1170.98  1174.30  1175.52
eigval :     1183.39  1199.86  1220.04  1233.57  1238.18  1240.06
eigval :     1252.21  1301.93  1305.31  1314.64  1331.58  1338.06
eigval :     1367.77  1381.45  1409.82  1426.15  1441.52  1455.95
eigval :     1474.30  1494.96  1499.01  1545.39  1571.53  1577.62
eigval :     1586.92  1591.21  1598.75  1606.43  3061.06  3066.65
eigval :     3077.21  3087.42  3088.08  3089.23  3092.32  3094.67
eigval :     3098.00  3102.05  3103.00  3109.95  3113.08  3131.28

   temp. (K)  partition function   enthalpy   heat capacity  entropy
                                   cal/mol     cal/K/mol   cal/K/mol   J/K/mol
 298.15  VIB  0.750E+06             9306.700     65.642     54.716
         ROT  0.886E+07              888.752      2.981     34.770
         INT  0.664E+13            10195.452     68.622     89.486
         TR   0.529E+28             1481.254      4.968     43.074
         TOT                       11676.7062    73.5906   132.5603   554.6322

       T/K    H(0)-H(T)+PV         H(T)/Eh          T*S/Eh         G(T)/Eh
   ------------------------------------------------------------------------
    298.15    0.186080E-01    0.305152E+00    0.629837E-01    0.242168E+00
   ------------------------------------------------------------------------

         :::::::::::::::::::::::::::::::::::::::::::::::::::::
         ::                  THERMODYNAMIC                  ::
         :::::::::::::::::::::::::::::::::::::::::::::::::::::
         :: total free energy         -61.801903505565 Eh   ::
         ::.................................................::
         :: total energy              -62.044071475618 Eh   ::
         :: zero point energy           0.286543625099 Eh   ::
         :: G(RRHO) w/o ZPVE           -0.044375655045 Eh   ::
         :: G(RRHO) contrib.            0.242167970054 Eh   ::
         :::::::::::::::::::::::::::::::::::::::::::::::::::::

           -------------------------------------------------
          | TOTAL ENERGY              -62.044071475618 Eh   |
          | TOTAL ENTHALPY            -61.738919834753 Eh   |
          | TOTAL FREE ENERGY         -61.801903505565 Eh   |
          | GRADIENT NORM               0.000031170052 Eh/α |
          | HOMO-LUMO GAP               2.101538619876 eV   |
           -------------------------------------------------

 * finished run on 2025/08/30 at 23:35:06.322
