   * xtb version 6.7.1 (edcfbbe) compiled by 'albert@albert-system' on 2024-07-22

   ID    Z sym.   atoms
    1    6 C      1-5, 7-13, 15-21, 23-33, 35-41, 43-45, 47, 48
    2    7 N      6, 14, 22, 34, 42, 46
    3    1 H      49-76

          program call               : xtb data2507/toluene/B4PyPPM/B4PyPPM_toluene_S0_crest.xyz --gfn 2 --gbsa toluene --ohess vtight --parallel 40 --molden --ceasefiles --namespace data2507/toluene/B4PyPPM/B4PyPPM_toluene_S0_finalOpt
      * Solvation model:               GBSA
        Solvent                        toluene
        Solvent mass                       9.2140E+01 g/mol
          :  Hamiltonian                  GFN2-xTB          :
 * total energy  :  -121.7868094 Eh     change       -0.4136780E-08 Eh
 * total energy  :  -121.7868424 Eh     change       -0.3298856E-04 Eh
 * total energy  :  -121.7868530 Eh     change       -0.1055207E-04 Eh
 * total energy  :  -121.7868569 Eh     change       -0.3937593E-05 Eh
 * total energy  :  -121.7868614 Eh     change       -0.4462911E-05 Eh
 * total energy  :  -121.7868678 Eh     change       -0.6448008E-05 Eh
 * total energy  :  -121.7868752 Eh     change       -0.7405141E-05 Eh
 * total energy  :  -121.7868799 Eh     change       -0.4690136E-05 Eh
 * total energy  :  -121.7868827 Eh     change       -0.2744223E-05 Eh
 * total energy  :  -121.7868853 Eh     change       -0.2607151E-05 Eh
 * total energy  :  -121.7869046 Eh     change        0.2845499E-06 Eh
 * total energy  :  -121.7869051 Eh     change       -0.5567252E-06 Eh
 * total energy  :  -121.7869054 Eh     change       -0.2374028E-06 Eh
 * total energy  :  -121.7869058 Eh     change       -0.3743008E-06 Eh
 * total energy  :  -121.7869061 Eh     change       -0.3912318E-06 Eh
 * total energy  :  -121.7869064 Eh     change       -0.2377567E-06 Eh
 * total energy  :  -121.7869066 Eh     change       -0.1860517E-06 Eh
 * total energy  :  -121.7869067 Eh     change       -0.1441400E-06 Eh
 * total energy  :  -121.7869068 Eh     change       -0.9518291E-07 Eh
   *** GEOMETRY OPTIMIZATION CONVERGED AFTER 34 ITERATIONS ***

 final structure:
================
76
 xtb: 6.7.1 (edcfbbe)
C            0.02441482874221       -6.64172686073655       -1.82114648630912
C            1.21835038519513       -5.94174492803330       -1.73849268871236
C            1.21591120131758       -4.60537245181128       -1.38737881974893
C            0.01392052098407       -3.95393957705922       -1.11501806274442
C            0.00832940670592       -2.53837876990377       -0.73545393036957
N           -1.17236036512553       -1.95228924844853       -0.56133224596229
C           -1.18764997744302       -0.66943669645056       -0.20835412756774
C           -2.50992925372585       -0.05288848333174       -0.02511258561869
C           -2.71060993826057        1.30713621056026       -0.23710974196959
C           -3.97221380391269        1.86899264349172       -0.07048723222815
C           -4.18360154049195        3.30421899419720       -0.31678022533380
C           -5.31543320410805        3.76406984827046       -0.98887459878574
C           -5.46125547759692        5.12522816435631       -1.19770150816944
N           -4.58270256406388        6.02729679676681       -0.79013791325256
C           -3.50901210267603        5.59398912460862       -0.14923883481033
C           -3.25982522173511        4.25700654437847        0.11129295891780
C           -5.03187769221107        1.05954499943444        0.32584272158023
C           -4.84688890291405       -0.30293401927882        0.53996679848483
C           -5.97509016806330       -1.15188793016359        0.95353610204680
C           -6.15972583903216       -2.42190891441397        0.40842947253874
C           -7.24040854922351       -3.17818179524934        0.82966984346487
N           -8.11696232494867       -2.76510561235374        1.73134466371629
C           -7.94228453863584       -1.56095442080119        2.25179914032498
C           -6.90041173073365       -0.71829361206345        1.90210046058479
C           -3.58421065282466       -0.85266618747142        0.35255102278288
C           -0.00079757810013        0.03527940754116       -0.01088466700141
C            1.19169003035673       -0.65424127737132       -0.22773176161455
C            2.51136611387269       -0.02941623195152       -0.05392022512806
C            2.69222629718659        1.34331621662732       -0.18860203286871
C            3.94739731062091        1.91248603561989       -0.00073652147223
C            4.13104263438836        3.36539846600607       -0.14464797283604
C            3.51563142779646        4.07466138444588       -1.17548896376870
C            3.71992692037652        5.44164973204656       -1.26073198368254
N            4.47008482826917        6.12440005689232       -0.41075093558516
C            5.05627896859643        5.45354244192532        0.56799398295615
C            4.92538736949013        4.08654918087247        0.74590556607633
C            5.02554781354863        1.09537962889745        0.32355991802769
C            4.86557212769220       -0.28251329131602        0.43798517122978
C            6.01604032139520       -1.14230139343161        0.75663551789605
C            6.19643171181951       -2.37045817663355        0.12166101938313
C            7.29946169585311       -3.13851931774684        0.45445386090005
N            8.20107066859573       -2.77569054848789        1.35298780266058
C            8.03021158909691       -1.61191192287601        1.95945336278613
C            6.96800813723483       -0.76178908247174        1.70159738330324
C            3.60545575778291       -0.83617752401168        0.24573598226922
N            1.18376418367652       -1.93524345362620       -0.58956619482588
C           -1.18308782802821       -4.66284247927961       -1.20468385059759
C           -1.17504061370610       -5.99944981487216       -1.55462462379958
H            0.02856672409498       -7.68671028233813       -2.09439420089805
H            2.15274922376237       -6.44104206228454       -1.94915262475829
H            2.13595359722753       -4.04603846463891       -1.32258987430087
H           -1.89697670672352        1.92922442411056       -0.57846280437750
H           -6.05611766397377        3.07203955189568       -1.35887059588160
H           -6.32455825742934        5.51936869348688       -1.71875447910961
H           -2.81655612088182        6.36268716117621        0.17026062425146
H           -2.37492325995633        3.96286396730521        0.65455064289071
H           -6.01089137567290        1.49370117375924        0.46334281972850
H           -5.48454729715930       -2.80152942617503       -0.34258421805115
H           -7.41982450951661       -4.16691351573945        0.42667160262472
H           -8.67852540487012       -1.26104955808685        2.98684199094202
H           -6.79840510521778        0.24784241935019        2.37202977348753
H           -3.41075336941454       -1.90364426889027        0.52326950913108
H           -0.00687786416334        1.05499535344702        0.33437403519717
H            1.85861486130706        1.98023043582624       -0.44239726612317
H            2.90625122502070        3.56680848457508       -1.90735816904594
H            3.26138482365040        6.02543082726406       -2.04898538423420
H            5.66029597744530        6.04799243544989        1.24178276474481
H            5.41413213424814        3.59408389391558        1.57221553436234
H            6.00672327991707        1.53068083919489        0.44111821158555
H            5.50008195591146       -2.70837196047008       -0.62988154308038
H            7.47605666834846       -4.09531894948425       -0.02050492379829
H            8.78672083950404       -1.35263270272667        2.68933223260763
H            6.87214042362712        0.16902213805198        2.23883763919342
H            3.44852235831381       -1.89816437487947        0.35230671262735
H           -2.10803379130969       -4.14810058088020       -0.99736363707039
H           -2.10555595722434       -6.54407202349648       -1.62054469921145

          :  Hamiltonian                  GFN2-xTB          :
         :: gradient norm              0.000047375916 Eh/a0 ::
         :: HOMO-LUMO gap              2.182915204424 eV    ::
         :: SCC energy              -123.983486608857 Eh    ::
         :: -> dispersion             -0.097795396182 Eh    ::
         :: -> Gsolv                  -0.058689491304 Eh    ::
         :: repulsion energy           2.196579800242 Eh    ::

    * Orbital Energies and Occupations

         #    Occupation            Energy/Eh            Energy/eV
      -------------------------------------------------------------
         1        2.0000           -0.6853771             -18.6501
       ...           ...                  ...                  ...
       101        2.0000           -0.4239394             -11.5360
       102        2.0000           -0.4156492             -11.3104
       103        2.0000           -0.4155124             -11.3067
       104        2.0000           -0.4127719             -11.2321
       105        2.0000           -0.4114152             -11.1952
       106        2.0000           -0.4112731             -11.1913
       107        2.0000           -0.4089527             -11.1282
       108        2.0000           -0.4038356             -10.9889
       109        2.0000           -0.3772972             -10.2668
       110        2.0000           -0.3770609             -10.2603
       111        2.0000           -0.3751722             -10.2090
       112        2.0000           -0.3748954             -10.2014
       113        2.0000           -0.3728747             -10.1464 (HOMO)
       114                         -0.2926540              -7.9635 (LUMO)
       115                         -0.2831432              -7.7047
       116                         -0.2770478              -7.5389
       117                         -0.2764945              -7.5238
       118                         -0.2682197              -7.2986
       119                         -0.2632901              -7.1645
       120                         -0.2449501              -6.6654
       121                         -0.2448373              -6.6624
       122                         -0.2426205              -6.6020
       123                         -0.2425674              -6.6006
       124                         -0.2424378              -6.5971
       ...                                ...                  ...
       220                          0.6811927              18.5362
      -------------------------------------------------------------
                  HL-Gap            0.0802207 Eh            2.1829 eV

     #   Z          covCN         q      C6AA      α(0)
     1   6 C        2.920    -0.024    28.612     8.772
     2   6 C        2.918    -0.028    28.702     8.785
     3   6 C        2.924    -0.028    28.696     8.785
     4   6 C        2.984    -0.004    28.125     8.699
     5   6 C        2.943     0.189    23.968     8.029
     6   7 N        1.849    -0.288    28.313     7.886
     7   6 C        2.968     0.113    25.513     8.285
     8   6 C        2.977     0.003    27.965     8.674
     9   6 C        2.928    -0.035    28.883     8.814
    10   6 C        2.973     0.012    27.747     8.640
    11   6 C        2.985     0.029    27.350     8.579
    12   6 C        2.919    -0.044    29.096     8.846
    13   6 C        2.913     0.061    26.642     8.464
    14   7 N        1.835    -0.240    27.117     7.717
    15   6 C        2.913     0.060    26.651     8.465
    16   6 C        2.919    -0.044    29.103     8.847
    17   6 C        2.929    -0.033    28.825     8.805
    18   6 C        2.973     0.013    27.715     8.635
    19   6 C        2.986     0.029    27.345     8.578
    20   6 C        2.919    -0.044    29.085     8.844
    21   6 C        2.913     0.060    26.645     8.464
    22   7 N        1.835    -0.240    27.121     7.718
    23   6 C        2.913     0.060    26.652     8.465
    24   6 C        2.918    -0.044    29.103     8.847
    25   6 C        2.931    -0.028    28.699     8.786
    26   6 C        2.912    -0.071    29.769     8.947
    27   6 C        2.967     0.112    25.520     8.286
    28   6 C        2.976     0.002    27.969     8.675
    29   6 C        2.928    -0.036    28.886     8.814
    30   6 C        2.973     0.012    27.748     8.641
    31   6 C        2.986     0.029    27.351     8.579
    32   6 C        2.919    -0.044    29.105     8.847
    33   6 C        2.913     0.060    26.648     8.465
    34   7 N        1.835    -0.240    27.119     7.717
    35   6 C        2.913     0.060    26.645     8.464
    36   6 C        2.919    -0.044    29.099     8.846
    37   6 C        2.929    -0.033    28.820     8.804
    38   6 C        2.973     0.013    27.716     8.636
    39   6 C        2.986     0.029    27.346     8.578
    40   6 C        2.919    -0.044    29.084     8.844
    41   6 C        2.913     0.061    26.643     8.464
    42   7 N        1.835    -0.240    27.124     7.718
    43   6 C        2.913     0.060    26.654     8.466
    44   6 C        2.918    -0.044    29.103     8.846
    45   6 C        2.931    -0.028    28.705     8.787
    46   7 N        1.849    -0.288    28.310     7.886
    47   6 C        2.924    -0.028    28.695     8.785
    48   6 C        2.918    -0.028    28.701     8.785
    49   1 H        0.926     0.044     2.399     2.422
    50   1 H        0.926     0.043     2.415     2.430
    51   1 H        0.926     0.050     2.323     2.383
    52   1 H        0.926     0.042     2.425     2.435
    53   1 H        0.926     0.045     2.383     2.414
    54   1 H        0.925     0.040     2.452     2.449
    55   1 H        0.925     0.039     2.465     2.455
    56   1 H        0.926     0.041     2.433     2.439
    57   1 H        0.926     0.049     2.330     2.387
    58   1 H        0.926     0.046     2.376     2.410
    59   1 H        0.925     0.040     2.453     2.449
    60   1 H        0.925     0.039     2.463     2.454
    61   1 H        0.926     0.044     2.398     2.421
    62   1 H        0.926     0.054     2.266     2.354
    63   1 H        0.926     0.040     2.452     2.449
    64   1 H        0.926     0.042     2.419     2.432
    65   1 H        0.926     0.042     2.424     2.435
    66   1 H        0.925     0.039     2.466     2.455
    67   1 H        0.925     0.040     2.452     2.449
    68   1 H        0.926     0.045     2.387     2.416
    69   1 H        0.926     0.049     2.330     2.387
    70   1 H        0.926     0.045     2.378     2.411
    71   1 H        0.925     0.040     2.455     2.450
    72   1 H        0.925     0.039     2.462     2.454
    73   1 H        0.926     0.044     2.399     2.422
    74   1 H        0.926     0.056     2.247     2.344
    75   1 H        0.926     0.050     2.324     2.384
    76   1 H        0.926     0.043     2.415     2.430

molecular dipole:
                 x           y           z       tot (Debye)
 q only:       -0.000      -0.478      -0.045
   full:        0.002      -0.360      -0.041       0.921

 projected vibrational frequencies (cm⁻¹)
eigval :       -0.00    -0.00    -0.00    -0.00     0.00     0.00
eigval :        3.89     6.58    16.77    20.57    28.39    36.22
eigval :       38.14    39.70    43.27    44.33    45.32    48.80
eigval :       51.02    69.03    72.17    90.99    96.25   107.41
eigval :      110.59   118.60   155.53   167.01   193.21   201.73
eigval :      211.32   219.47   222.71   226.08   232.24   259.79
eigval :      265.41   268.63   277.22   305.66   322.46   333.10
eigval :      334.52   335.87   337.01   346.00   359.15   362.86
eigval :      367.64   387.98   398.53   402.92   434.38   465.42
eigval :      485.97   503.99   526.31   546.82   558.31   583.76
eigval :      585.44   586.13   586.70   599.27   599.95   603.86
eigval :      604.51   625.99   626.73   632.18   632.62   634.03
eigval :      636.50   659.55   665.95   673.32   678.13   684.19
eigval :      705.57   707.21   707.75   708.15   738.00   741.90
eigval :      777.73   788.08   791.22   799.13   801.07   817.04
eigval :      838.14   840.04   843.47   846.92   874.23   881.11
eigval :      882.24   883.47   884.04   885.20   890.51   891.90
eigval :      900.90   901.41   906.01   912.49   913.53   915.46
eigval :      915.81   921.21   922.84   924.36   924.74   925.08
eigval :      928.44   930.01   966.40   986.22   989.79  1005.25
eigval :     1006.89  1007.91  1008.27  1027.27  1075.26  1082.81
eigval :     1094.51  1095.35  1096.89  1097.96  1101.79  1107.46
eigval :     1110.34  1113.44  1114.28  1115.06  1117.43  1119.88
eigval :     1126.39  1128.01  1166.13  1178.18  1193.39  1193.62
eigval :     1204.78  1206.03  1206.95  1207.17  1237.10  1239.15
eigval :     1241.80  1242.71  1249.26  1260.64  1260.94  1261.63
eigval :     1262.65  1268.24  1279.15  1279.47  1279.63  1279.87
eigval :     1290.66  1320.62  1321.15  1323.56  1330.18  1360.47
eigval :     1365.49  1367.06  1372.52  1373.34  1377.70  1394.57
eigval :     1424.18  1424.62  1429.83  1440.32  1447.85  1469.61
eigval :     1475.65  1476.38  1476.45  1477.61  1516.42  1528.43
eigval :     1547.08  1547.25  1547.35  1547.45  1572.43  1572.84
eigval :     1573.71  1574.27  1579.18  1579.58  1579.95  1580.45
eigval :     1583.58  1594.02  3049.84  3050.14  3050.93  3051.06
eigval :     3051.79  3052.03  3052.27  3052.69  3074.76  3079.44
eigval :     3087.00  3087.84  3088.82  3089.45  3089.71  3089.93
eigval :     3091.57  3091.60  3092.20  3093.15  3093.78  3095.24
eigval :     3095.55  3104.65  3104.79  3106.76  3108.22  3111.85

   temp. (K)  partition function   enthalpy   heat capacity  entropy
                                   cal/mol     cal/K/mol   cal/K/mol   J/K/mol
 298.15  VIB  0.698E+20            22729.218    136.688    145.994
         ROT  0.115E+09              888.752      2.981     39.859
         INT  0.800E+28            23617.970    139.669    185.853
         TR   0.148E+29             1481.254      4.968     45.120
         TOT                       25099.2243   144.6375   230.9732   966.3918

       T/K    H(0)-H(T)+PV         H(T)/Eh          T*S/Eh         G(T)/Eh
   ------------------------------------------------------------------------
    298.15    0.399982E-01    0.612531E+00    0.109743E+00    0.502788E+00
   ------------------------------------------------------------------------

         :::::::::::::::::::::::::::::::::::::::::::::::::::::
         ::                  THERMODYNAMIC                  ::
         :::::::::::::::::::::::::::::::::::::::::::::::::::::
         :: total free energy        -121.284118969355 Eh   ::
         ::.................................................::
         :: total energy             -121.786906810109 Eh   ::
         :: zero point energy           0.572532494127 Eh   ::
         :: G(RRHO) w/o ZPVE           -0.069744653373 Eh   ::
         :: G(RRHO) contrib.            0.502787840755 Eh   ::
         :::::::::::::::::::::::::::::::::::::::::::::::::::::

           -------------------------------------------------
          | TOTAL ENERGY             -121.786906810109 Eh   |
          | TOTAL ENTHALPY           -121.174376156086 Eh   |
          | TOTAL FREE ENERGY        -121.284118969355 Eh   |
          | GRADIENT NORM               0.000047378883 Eh/α |
          | HOMO-LUMO GAP               2.182915439391 eV   |
           -------------------------------------------------

 * finished run on 2025/08/22 at 17:00:12.769
