   * xtb version 6.7.1 (edcfbbe) compiled by 'albert@albert-system' on 2024-07-22

   ID    Z sym.   atoms
    1    6 C      1-5, 7-13, 15-21, 23-33, 35-41, 43-45, 47, 48
    2    7 N      6, 14, 22, 34, 42, 46
    3    1 H      49-76

          program call               : xtb data2507/toluene/B4PyPPM/B4PyPPM_toluene_S0_finalOpt.xtbopt.xyz --gfn 2 --uhf 2 --gbsa toluene --ohess vtight --parallel 40 --molden --ceasefiles --namespace data2507/toluene/B4PyPPM/B4PyPPM_toluene_T1_preOpt
      * Solvation model:               GBSA
        Solvent                        toluene
        Solvent mass                       9.2140E+01 g/mol
          :  Hamiltonian                  GFN2-xTB          :
 * total energy  :  -121.6982455 Eh     change       -0.1124685E-07 Eh
 * total energy  :  -121.7016029 Eh     change       -0.3357408E-02 Eh
 * total energy  :  -121.7030304 Eh     change       -0.1427502E-02 Eh
 * total energy  :  -121.7031836 Eh     change       -0.1532041E-03 Eh
 * total energy  :  -121.7033852 Eh     change       -0.2015674E-03 Eh
 * total energy  :  -121.7034526 Eh     change       -0.6745692E-04 Eh
 * total energy  :  -121.7035175 Eh     change       -0.6480655E-04 Eh
 * total energy  :  -121.7035508 Eh     change       -0.3338483E-04 Eh
 * total energy  :  -121.7035939 Eh     change       -0.4307360E-04 Eh
 * total energy  :  -121.7036298 Eh     change       -0.3588227E-04 Eh
 * total energy  :  -121.7050465 Eh     change       -0.9980894E-06 Eh
 * total energy  :  -121.7050475 Eh     change       -0.1026065E-05 Eh
 * total energy  :  -121.7050487 Eh     change       -0.1123028E-05 Eh
 * total energy  :  -121.7050499 Eh     change       -0.1273196E-05 Eh
 * total energy  :  -121.7050514 Eh     change       -0.1480047E-05 Eh
 * total energy  :  -121.7050531 Eh     change       -0.1697522E-05 Eh
 * total energy  :  -121.7050551 Eh     change       -0.1940975E-05 Eh
 * total energy  :  -121.7050572 Eh     change       -0.2113757E-05 Eh
 * total energy  :  -121.7050572 Eh     change       -0.1409107E-07 Eh
   *** GEOMETRY OPTIMIZATION CONVERGED AFTER 122 ITERATIONS ***

 final structure:
================
76
 xtb: 6.7.1 (edcfbbe)
C            0.00946209091201       -6.79189862064593       -0.81962347366875
C            1.20904893656710       -6.10264772355757       -0.72805798497412
C            1.20858295311470       -4.73056240411807       -0.56605620051990
C            0.00492874144573       -4.03265435141006       -0.49480466817580
C            0.00209403528830       -2.57818032146389       -0.33468475961372
N           -1.14715463359413       -1.94225297448777       -0.26354695524752
C           -1.19902062032362       -0.58394445200260       -0.13213616946308
C           -2.50568586954132        0.02038634666520       -0.04252918827864
C           -2.71553574506273        1.40521014038698       -0.11555645980971
C           -3.99109709195961        1.94068948271350       -0.02947707918746
C           -4.18746427544758        3.39427567865648       -0.13464773607928
C           -5.25712034212716        3.93033096624396       -0.85249911297512
C           -5.39334429791452        5.30585525979644       -0.92487256860963
N           -4.55806768918279        6.14907543497057       -0.34226558786808
C           -3.54325077974770        5.65069531538861        0.34311613499509
C           -3.31275436705113        4.29255527200554        0.47775243922923
C           -5.08834852894160        1.09727708190202        0.14869405783279
C           -4.90312680511221       -0.28365622983758        0.22415345324101
C           -6.05650304701760       -1.17505427463725        0.42159064811144
C           -6.16617158693766       -2.38297207755740       -0.26730108298869
C           -7.27247215176730       -3.18383095285682       -0.04151917562732
N           -8.23919828553762       -2.86173687387475        0.80039020675522
C           -8.14402031400878       -1.71969693804681        1.45846843282076
C           -7.08200755299467       -0.84440479865813        1.30742406597537
C           -3.62797986983992       -0.80986887628624        0.11867719620293
C           -0.00279853082987        0.12676092627675       -0.07031288811027
C            1.19824773521051       -0.57874717563576       -0.13621656359268
C            2.50332248908741        0.02686046619570       -0.05625403630102
C            2.70875251279060        1.41465283976520       -0.03714018362713
C            3.98439247851284        1.94801666249328        0.05650154138348
C            4.17114702233016        3.40639367805247        0.07792395976907
C            3.42855454783567        4.24574103191991       -0.75343223473820
C            3.64405104804173        5.61157207858150       -0.69229674234106
N            4.52413461440899        6.17075860734951        0.12060445328818
C            5.23267681144566        5.38373220829155        0.91232394606400
C            5.09795797341535        4.00636640085508        0.93103597574534
C            5.09002006095995        1.09996591857267        0.13522212942106
C            4.91127603406545       -0.28376306571633        0.09880018104096
C            6.07164433063490       -1.18408805651593        0.17554514805585
C            6.15240000423651       -2.33046111380720       -0.61515731200874
C            7.26543756543791       -3.14542774441705       -0.50040006508439
N            8.26495876757462       -2.89274126260856        0.32683862191189
C            8.19798864331429       -1.80879312138520        1.07992539094946
C            7.13208027820987       -0.92613612670923        1.04412964343884
C            3.63448844397944       -0.80623255621116        0.00077419680395
N            1.14771507757497       -1.93679833922459       -0.27354239484143
C           -1.19638781640316       -4.73210296646190       -0.58714297026290
C           -1.19240200777748       -6.10420040776597       -0.74897607236475
H            0.01128690293898       -7.86439792082423       -0.94681218038082
H            2.14551854174691       -6.63799608321560       -0.78289235239736
H            2.13397883625650       -4.17956534590378       -0.49386367141424
H           -1.88437345372841        2.07139107913503       -0.28561597190757
H           -5.95773440059840        3.28645488899953       -1.36094355138358
H           -6.20738321879981        5.75929618096787       -1.47557462237202
H           -2.88856972155355        6.37819041297184        0.80565775034309
H           -2.47964993946313        3.93795688176455        1.06483039185259
H           -6.08078930296514        1.51354968423739        0.22434964424343
H           -5.41179580526624       -2.68177782614056       -0.97816647014755
H           -7.39605576584826       -4.12684196291010       -0.55813621754599
H           -8.95737795081711       -1.50060597635460        2.13809281081903
H           -7.04245262355925        0.06834122831432        1.88144598348040
H           -3.46584956183834       -1.87390864915723        0.19441320502138
H           -0.00604595033767        1.19517465755807        0.05977429266349
H            1.86835043917613        2.08953705894987       -0.07702130019184
H            2.71084453664018        3.83852396418197       -1.44882132532214
H            3.09009508675345        6.29445592685134       -1.32364653195388
H            5.93821656029036        5.88625949549349        1.56136983435512
H            5.68932041007144        3.41080055262199        1.60878651809160
H            6.08535071776734        1.51491143114636        0.17091224314624
H            5.36959709219309       -2.57075977837265       -1.31752976226579
H            7.36675397803678       -4.04222771418580       -1.09784488225334
H            9.03789912882520       -1.64571431867066        1.74280310208814
H            7.11734368311949       -0.06420407267750        1.69272460650599
H            3.47803178551563       -1.87371801485850        0.00016043279182
H           -2.12314705197813       -4.18141095718903       -0.53284374782469
H           -2.12704091182266       -6.64076861925405       -0.82044196571250

          :  Hamiltonian                  GFN2-xTB          :
         :: gradient norm              0.000077061827 Eh/a0 ::
         :: HOMO-LUMO gap              0.352743398846 eV    ::
         :: SCC energy              -123.899274030001 Eh    ::
         :: -> dispersion             -0.098273713433 Eh    ::
         :: -> Gsolv                  -0.057172586299 Eh    ::
         :: repulsion energy           2.194216851185 Eh    ::

    * Orbital Energies and Occupations

         #    Occupation            Energy/Eh            Energy/eV
      -------------------------------------------------------------
         1        2.0000           -0.6789549             -18.4753
       ...           ...                  ...                  ...
       102        2.0000           -0.4152413             -11.2993
       103        2.0000           -0.4103810             -11.1670
       104        2.0000           -0.4099252             -11.1546
       105        2.0000           -0.4041016             -10.9962
       106        2.0000           -0.4032225             -10.9722
       107        2.0000           -0.4024034             -10.9500
       108        2.0000           -0.3965697             -10.7912
       109        1.9804           -0.3818148             -10.3897
       110        1.9726           -0.3814879             -10.3808
       111        1.9038           -0.3802236             -10.3464
       112        1.8963           -0.3801446             -10.3443
       113        1.2469           -0.3770363             -10.2597
       114        0.9989           -0.2910847              -7.9208 (HOMO)
       115        0.0011           -0.2781215              -7.5681 (LUMO)
       116        0.0000           -0.2730334              -7.4296
       117        0.0000           -0.2718575              -7.3976
       118                         -0.2661748              -7.2430
       119                         -0.2625997              -7.1457
       120                         -0.2451355              -6.6705
       121                         -0.2450342              -6.6677
       122                         -0.2447908              -6.6611
       123                         -0.2446807              -6.6581
       124                         -0.2409235              -6.5559
       125                         -0.2324505              -6.3253
       ...                                ...                  ...
       220                          0.6889987              18.7486
      -------------------------------------------------------------
                  HL-Gap            0.0129632 Eh            0.3527 eV

     #   Z          covCN         q      C6AA      α(0)
     1   6 C        2.920    -0.024    28.605     8.771
     2   6 C        2.918    -0.027    28.680     8.782
     3   6 C        2.924    -0.026    28.649     8.778
     4   6 C        2.983    -0.002    28.070     8.691
     5   6 C        2.882     0.191    23.937     8.021
     6   7 N        1.854    -0.248    27.322     7.747
     7   6 C        2.935     0.075    26.329     8.415
     8   6 C        2.972    -0.002    28.076     8.691
     9   6 C        2.926    -0.045    29.116     8.849
    10   6 C        2.972     0.006    27.887     8.662
    11   6 C        2.985     0.031    27.298     8.571
    12   6 C        2.919    -0.043    29.064     8.841
    13   6 C        2.909     0.059    26.675     8.469
    14   7 N        1.837    -0.222    26.678     7.654
    15   6 C        2.909     0.059    26.681     8.470
    16   6 C        2.919    -0.043    29.073     8.842
    17   6 C        2.927    -0.049    29.227     8.866
    18   6 C        2.971     0.007    27.871     8.660
    19   6 C        2.986     0.032    27.271     8.566
    20   6 C        2.919    -0.042    29.044     8.838
    21   6 C        2.909     0.059    26.678     8.469
    22   7 N        1.837    -0.217    26.566     7.638
    23   6 C        2.909     0.059    26.681     8.470
    24   6 C        2.919    -0.042    29.051     8.839
    25   6 C        2.931    -0.038    28.946     8.823
    26   6 C        2.912    -0.054    29.352     8.884
    27   6 C        2.934     0.074    26.345     8.418
    28   6 C        2.972    -0.003    28.089     8.693
    29   6 C        2.926    -0.045    29.126     8.850
    30   6 C        2.972     0.006    27.893     8.663
    31   6 C        2.986     0.031    27.299     8.571
    32   6 C        2.919    -0.043    29.075     8.842
    33   6 C        2.909     0.059    26.680     8.470
    34   7 N        1.837    -0.222    26.680     7.655
    35   6 C        2.909     0.059    26.679     8.470
    36   6 C        2.919    -0.043    29.064     8.841
    37   6 C        2.927    -0.050    29.243     8.868
    38   6 C        2.971     0.006    27.879     8.661
    39   6 C        2.986     0.032    27.271     8.566
    40   6 C        2.919    -0.042    29.045     8.838
    41   6 C        2.909     0.059    26.677     8.469
    42   7 N        1.837    -0.217    26.567     7.638
    43   6 C        2.909     0.059    26.684     8.470
    44   6 C        2.919    -0.042    29.050     8.839
    45   6 C        2.932    -0.039    28.958     8.825
    46   7 N        1.854    -0.247    27.284     7.742
    47   6 C        2.924    -0.026    28.651     8.778
    48   6 C        2.918    -0.027    28.680     8.782
    49   1 H        0.926     0.046     2.372     2.409
    50   1 H        0.926     0.045     2.387     2.416
    51   1 H        0.926     0.046     2.367     2.406
    52   1 H        0.926     0.031     2.568     2.506
    53   1 H        0.926     0.047     2.353     2.399
    54   1 H        0.925     0.044     2.398     2.422
    55   1 H        0.925     0.043     2.411     2.428
    56   1 H        0.926     0.044     2.398     2.422
    57   1 H        0.926     0.036     2.508     2.476
    58   1 H        0.926     0.048     2.347     2.395
    59   1 H        0.925     0.045     2.377     2.411
    60   1 H        0.925     0.045     2.382     2.414
    61   1 H        0.926     0.048     2.347     2.396
    62   1 H        0.926     0.043     2.414     2.430
    63   1 H        0.926     0.036     2.501     2.473
    64   1 H        0.926     0.031     2.577     2.510
    65   1 H        0.926     0.044     2.394     2.420
    66   1 H        0.925     0.043     2.411     2.428
    67   1 H        0.925     0.044     2.398     2.422
    68   1 H        0.926     0.047     2.358     2.401
    69   1 H        0.926     0.035     2.522     2.483
    70   1 H        0.926     0.048     2.351     2.398
    71   1 H        0.925     0.045     2.379     2.412
    72   1 H        0.925     0.045     2.381     2.413
    73   1 H        0.926     0.048     2.350     2.397
    74   1 H        0.926     0.042     2.417     2.431
    75   1 H        0.926     0.047     2.362     2.403
    76   1 H        0.926     0.045     2.385     2.415

molecular dipole:
                 x           y           z       tot (Debye)
 q only:       -0.050      -0.718      -0.028
   full:       -0.046      -0.643      -0.034       1.642

 projected vibrational frequencies (cm⁻¹)
eigval :       -0.00    -0.00    -0.00     0.00     0.00     0.00
eigval :        4.60     8.05    19.22    25.47    31.95    36.26
eigval :       40.56    43.72    45.37    47.21    50.07    51.05
eigval :       52.20    68.26    70.37    94.97   101.72   108.46
eigval :      110.68   115.72   160.08   167.76   194.76   199.29
eigval :      205.64   210.13   214.64   223.35   224.21   258.24
eigval :      264.12   269.24   273.86   303.53   317.41   338.07
eigval :      339.86   340.37   341.47   348.98   355.94   363.33
eigval :      368.67   385.58   399.76   409.61   420.94   455.68
eigval :      483.20   497.83   512.64   538.17   549.92   569.05
eigval :      573.22   576.71   580.24   588.26   589.91   591.33
eigval :      592.29   599.30   605.80   622.76   624.37   627.20
eigval :      627.84   629.38   648.79   654.09   655.45   657.47
eigval :      666.16   701.11   702.72   703.81   704.17   735.65
eigval :      766.28   780.39   782.63   796.59   797.84   811.24
eigval :      816.86   819.23   826.05   828.24   848.71   851.75
eigval :      859.05   863.35   865.87   871.61   877.71   878.63
eigval :      880.48   881.03   902.52   903.74   909.02   910.70
eigval :      912.52   912.78   920.34   921.50   921.59   922.43
eigval :      925.14   932.00   952.27   963.46   970.31   985.64
eigval :      992.00   992.83   993.71  1000.77  1068.96  1071.45
eigval :     1073.25  1087.80  1093.09  1093.43  1094.20  1096.55
eigval :     1100.82  1108.26  1111.34  1113.53  1114.91  1117.80
eigval :     1118.59  1126.69  1130.35  1163.93  1177.20  1196.55
eigval :     1198.53  1200.34  1200.95  1202.03  1223.50  1237.31
eigval :     1238.33  1245.29  1252.63  1255.66  1257.87  1258.19
eigval :     1258.63  1268.26  1278.82  1286.05  1286.42  1286.70
eigval :     1287.19  1291.11  1326.81  1331.83  1334.10  1335.60
eigval :     1347.86  1363.01  1364.99  1368.86  1372.68  1378.59
eigval :     1383.24  1409.09  1417.85  1421.50  1432.37  1435.68
eigval :     1450.90  1464.65  1465.56  1467.11  1470.59  1474.23
eigval :     1518.23  1519.43  1541.65  1543.42  1544.63  1544.88
eigval :     1554.69  1558.81  1560.77  1562.97  1563.84  1574.43
eigval :     1582.07  1592.43  3052.23  3053.13  3053.76  3054.37
eigval :     3054.58  3055.01  3055.18  3055.89  3075.50  3079.16
eigval :     3087.77  3089.54  3089.89  3091.43  3091.95  3092.92
eigval :     3093.34  3093.65  3094.12  3094.29  3094.72  3095.35
eigval :     3095.89  3096.69  3096.86  3098.17  3098.75  3115.70

   temp. (K)  partition function   enthalpy   heat capacity  entropy
                                   cal/mol     cal/K/mol   cal/K/mol   J/K/mol
 298.15  VIB  0.253E+20            22929.608    139.131    146.449
         ROT  0.115E+09              888.752      2.981     39.858
         INT  0.290E+28            23818.360    142.111    186.307
         TR   0.148E+29             1481.254      4.968     45.120
         TOT                       25299.6140   147.0796   231.4275   968.2926

       T/K    H(0)-H(T)+PV         H(T)/Eh          T*S/Eh         G(T)/Eh
   ------------------------------------------------------------------------
    298.15    0.403175E-01    0.608925E+00    0.109959E+00    0.498966E+00
   ------------------------------------------------------------------------

         :::::::::::::::::::::::::::::::::::::::::::::::::::::
         ::                  THERMODYNAMIC                  ::
         :::::::::::::::::::::::::::::::::::::::::::::::::::::
         :: total free energy        -121.206090961127 Eh   ::
         ::.................................................::
         :: total energy             -121.705057182120 Eh   ::
         :: zero point energy           0.568607381200 Eh   ::
         :: G(RRHO) w/o ZPVE           -0.069641160206 Eh   ::
         :: G(RRHO) contrib.            0.498966220994 Eh   ::
         :::::::::::::::::::::::::::::::::::::::::::::::::::::

           -------------------------------------------------
          | TOTAL ENERGY             -121.705057182120 Eh   |
          | TOTAL ENTHALPY           -121.096132299631 Eh   |
          | TOTAL FREE ENERGY        -121.206090961127 Eh   |
          | GRADIENT NORM               0.000075022338 Eh/α |
          | HOMO-LUMO GAP               0.352745868800 eV   |
           -------------------------------------------------

 * finished run on 2025/08/22 at 17:00:26.994
