   * xtb version 6.7.1 (edcfbbe) compiled by 'albert@albert-system' on 2024-07-22

   ID    Z sym.   atoms
    1    6 C      1-5, 7-13, 15-21, 23-33, 35-41, 43-45, 47, 48
    2    7 N      6, 14, 22, 34, 42, 46
    3    1 H      49-76

          program call               : xtb data2507/toluene/B4PyPPM/B4PyPPM.xyz --gfn 2 --gbsa toluene --ohess vtight --parallel 40 --molden --ceasefiles --namespace data2507/toluene/B4PyPPM/B4PyPPM_toluene_S0_preOpt
      * Solvation model:               GBSA
        Solvent                        toluene
        Solvent mass                       9.2140E+01 g/mol
          :  Hamiltonian                  GFN2-xTB          :
 * total energy  :  -121.7706654 Eh     change       -0.3074589E-08 Eh
 * total energy  :  -121.7814293 Eh     change       -0.1076384E-01 Eh
 * total energy  :  -121.7839247 Eh     change       -0.2495440E-02 Eh
 * total energy  :  -121.7845893 Eh     change       -0.6645577E-03 Eh
 * total energy  :  -121.7849585 Eh     change       -0.3692235E-03 Eh
 * total energy  :  -121.7851134 Eh     change       -0.1549180E-03 Eh
 * total energy  :  -121.7853390 Eh     change       -0.2256272E-03 Eh
 * total energy  :  -121.7855900 Eh     change       -0.2510238E-03 Eh
 * total energy  :  -121.7858596 Eh     change       -0.2695601E-03 Eh
 * total energy  :  -121.7861003 Eh     change       -0.2406543E-03 Eh
 * total energy  :  -121.7869005 Eh     change       -0.4779964E-06 Eh
 * total energy  :  -121.7869008 Eh     change       -0.3497087E-06 Eh
 * total energy  :  -121.7869012 Eh     change       -0.3174281E-06 Eh
 * total energy  :  -121.7869015 Eh     change       -0.3548535E-06 Eh
 * total energy  :  -121.7869020 Eh     change       -0.4677171E-06 Eh
 * total energy  :  -121.7869025 Eh     change       -0.5350765E-06 Eh
 * total energy  :  -121.7869032 Eh     change       -0.6573194E-06 Eh
 * total energy  :  -121.7869038 Eh     change       -0.5989585E-06 Eh
 * total energy  :  -121.7869038 Eh     change       -0.2556277E-08 Eh
   *** GEOMETRY OPTIMIZATION CONVERGED AFTER 94 ITERATIONS ***

 final structure:
================
76
 xtb: 6.7.1 (edcfbbe)
C           -0.06818074282709       -6.62804771820150       -1.72017563667040
C            1.13497020979962       -5.94227141589128       -1.65348790158387
C            1.15122516546410       -4.60052768362074       -1.32385512938953
C           -0.04125483870271       -3.92955379972618       -1.05691928116358
C           -0.02651454190891       -2.50806379876209       -0.70063709040707
N           -1.19792262148437       -1.90266418336804       -0.53177113634797
C           -1.19531191654159       -0.61282521723920       -0.20387243527789
C           -2.50938798823196        0.01980047802286       -0.01657349197811
C           -2.69757239473058        1.38166125005994       -0.22842418508994
C           -3.95189739963450        1.95688578452479       -0.05228880729129
C           -4.14953855088165        3.39457836907033       -0.29556597096343
C           -5.28234945610975        3.86783263214386       -0.95663220925347
C           -5.41506985093135        5.23079115918828       -1.16231998579193
N           -4.52279878115733        6.12258282046148       -0.76199321645612
C           -3.44791965941924        5.67654042439782       -0.13192540324114
C           -3.21130187539733        4.33657279331426        0.12492686512282
C           -5.01753970342156        1.15879980890600        0.35109552725582
C           -4.84566645845772       -0.20565851492229        0.56347204613495
C           -5.98021104916358       -1.04373560376231        0.98189395188481
C           -6.17895722340418       -2.31163752470413        0.43674818429698
C           -7.26495060738836       -3.05810453246821        0.86170544630415
N           -8.13420608158881       -2.63733459514596        1.76688302418233
C           -7.94631537272890       -1.43513251618212        2.28722964992088
C           -6.89783346580708       -0.60206843928041        1.93418222952830
C           -3.58983388230123       -0.76818918872066        0.36885734765606
C            0.00198952684500        0.08118999872809       -0.03236571065303
C            1.18339881655180       -0.63114339859697       -0.23459424943824
C            2.51181870295563       -0.02151869684809       -0.07289849191903
C            2.72243899791503        1.33519849163657       -0.29535885001389
C            3.98577517951378        1.89104537808471       -0.12149531525920
C            4.20590527622662        3.32654339015178       -0.35972125502889
C            3.62830611713455        3.97902589407577       -1.44827568021159
C            3.86945144004259        5.33170024758424       -1.62142660962162
N            4.62072529243329        6.05243969784237       -0.80448090035358
C            5.16979500794940        5.43586260526385        0.22995628538411
C            5.00002736232216        4.08789864304789        0.49713317292623
C            5.03935561666347        1.07677034290390        0.28155488096649
C            4.84828168277286       -0.28604177581599        0.48891562020994
C            5.97192270973332       -1.14285773925356        0.89834459351667
C            6.14307219358093       -2.41689107418053        0.35828720467954
C            7.21860765851954       -3.18106327743462        0.77852298770932
N            8.10259556788863       -2.77220175741510        1.67480680452044
C            7.94088039928257       -1.56425031261403        2.19062251249409
C            6.90517014119981       -0.71405504359050        1.84138705734466
C            3.58171775322032       -0.82763015970932        0.30438725162601
N            1.15796194485676       -1.91948803490448       -0.56692617353937
C           -1.24762172366661       -4.62418682098551       -1.13086121330521
C           -1.25820757302291       -5.96622378432037       -1.45929260752270
H           -0.07857940223875       -7.67726884659503       -1.97650920047013
H            2.06194254299689       -6.45684591195756       -1.86018816009239
H            2.07852993392478       -4.05181780298891       -1.27197233758563
H           -1.88034854639358        1.99548066899131       -0.57592314227321
H           -6.03421858085900        3.18463096263517       -1.32043264505827
H           -6.27896583030612        5.63517504482304       -1.67445145012067
H           -2.74389467349617        6.43707058487549        0.18178131157244
H           -2.32464661315810        4.03199672840532        0.65950551397366
H           -5.99085710274155        1.60337525578405        0.49550633262501
H           -5.51037427490178       -2.69702403235297       -0.31719268383394
H           -7.45491221892144       -4.04497439692652        0.45898503137571
H           -8.67716270237303       -1.12869564740503        3.02495891929657
H           -6.78510068983922        0.36276013502461        2.40433925546573
H           -3.42591085731317       -1.82066107045608        0.53960046179914
H            0.01485822302138        1.10953850470369        0.28636801719782
H            1.90547676868100        1.96813800279945       -0.60743834766811
H            3.01991234378846        3.43842540392701       -2.15700781987958
H            3.44085091080194        5.87145600716352       -2.45648273737015
H            5.77541695987151        6.05978803497354        0.87500970681068
H            5.45918549856268        3.64182486813441        1.36569840277848
H            6.02694845514320        1.49959200799912        0.39025005942874
H            5.46120866703070       -2.79436901982548       -0.38766529709988
H            7.38704508942604       -4.17332363364216        0.37947370128338
H            8.68269436482970       -1.26794500397295        2.92151747529893
H            6.81383851898939        0.25441436922951        2.30838432730608
H            3.40096886991531       -1.87694951572192        0.47823155222820
H           -2.16503884375375       -4.09436976528094       -0.92821337332399
H           -2.19589681465588       -6.49977353409950       -1.51290557953502

          :  Hamiltonian                  GFN2-xTB          :
         :: gradient norm              0.000037120469 Eh/a0 ::
         :: HOMO-LUMO gap              2.188258697273 eV    ::
         :: SCC energy              -123.983470698355 Eh    ::
         :: -> dispersion             -0.097737868689 Eh    ::
         :: -> Gsolv                  -0.058701975774 Eh    ::
         :: repulsion energy           2.196566914748 Eh    ::

    * Orbital Energies and Occupations

         #    Occupation            Energy/Eh            Energy/eV
      -------------------------------------------------------------
         1        2.0000           -0.6854476             -18.6520
       ...           ...                  ...                  ...
       101        2.0000           -0.4239560             -11.5364
       102        2.0000           -0.4156655             -11.3108
       103        2.0000           -0.4155403             -11.3074
       104        2.0000           -0.4127842             -11.2324
       105        2.0000           -0.4113895             -11.1945
       106        2.0000           -0.4112985             -11.1920
       107        2.0000           -0.4090145             -11.1299
       108        2.0000           -0.4038817             -10.9902
       109        2.0000           -0.3772833             -10.2664
       110        2.0000           -0.3770502             -10.2601
       111        2.0000           -0.3751730             -10.2090
       112        2.0000           -0.3749018             -10.2016
       113        2.0000           -0.3728699             -10.1463 (HOMO)
       114                         -0.2924529              -7.9580 (LUMO)
       115                         -0.2830860              -7.7032
       116                         -0.2770650              -7.5393
       117                         -0.2765046              -7.5241
       118                         -0.2682572              -7.2996
       119                         -0.2632749              -7.1641
       120                         -0.2448950              -6.6639
       121                         -0.2448222              -6.6620
       122                         -0.2426020              -6.6015
       123                         -0.2425939              -6.6013
       124                         -0.2423241              -6.5940
       ...                                ...                  ...
       220                          0.6809433              18.5294
      -------------------------------------------------------------
                  HL-Gap            0.0804170 Eh            2.1883 eV

     #   Z          covCN         q      C6AA      α(0)
     1   6 C        2.920    -0.024    28.612     8.772
     2   6 C        2.918    -0.028    28.701     8.785
     3   6 C        2.924    -0.028    28.697     8.785
     4   6 C        2.984    -0.004    28.125     8.699
     5   6 C        2.943     0.189    23.967     8.029
     6   7 N        1.849    -0.288    28.311     7.886
     7   6 C        2.968     0.113    25.514     8.285
     8   6 C        2.977     0.002    27.966     8.675
     9   6 C        2.928    -0.035    28.882     8.813
    10   6 C        2.973     0.012    27.747     8.640
    11   6 C        2.985     0.029    27.350     8.579
    12   6 C        2.919    -0.044    29.097     8.846
    13   6 C        2.913     0.061    26.642     8.464
    14   7 N        1.835    -0.240    27.117     7.717
    15   6 C        2.913     0.060    26.651     8.465
    16   6 C        2.919    -0.044    29.103     8.847
    17   6 C        2.929    -0.033    28.823     8.805
    18   6 C        2.973     0.013    27.715     8.635
    19   6 C        2.986     0.029    27.345     8.578
    20   6 C        2.919    -0.044    29.085     8.844
    21   6 C        2.913     0.060    26.645     8.464
    22   7 N        1.835    -0.240    27.121     7.718
    23   6 C        2.913     0.060    26.652     8.465
    24   6 C        2.918    -0.044    29.103     8.847
    25   6 C        2.931    -0.028    28.700     8.786
    26   6 C        2.912    -0.071    29.769     8.947
    27   6 C        2.968     0.113    25.516     8.286
    28   6 C        2.977     0.003    27.964     8.674
    29   6 C        2.927    -0.035    28.883     8.814
    30   6 C        2.973     0.012    27.747     8.640
    31   6 C        2.985     0.029    27.350     8.579
    32   6 C        2.918    -0.044    29.103     8.847
    33   6 C        2.913     0.060    26.648     8.465
    34   7 N        1.835    -0.240    27.119     7.717
    35   6 C        2.913     0.060    26.646     8.465
    36   6 C        2.919    -0.044    29.099     8.846
    37   6 C        2.929    -0.033    28.824     8.805
    38   6 C        2.973     0.013    27.716     8.636
    39   6 C        2.986     0.029    27.346     8.578
    40   6 C        2.919    -0.044    29.083     8.844
    41   6 C        2.913     0.061    26.644     8.464
    42   7 N        1.835    -0.240    27.125     7.718
    43   6 C        2.913     0.060    26.654     8.466
    44   6 C        2.918    -0.044    29.103     8.846
    45   6 C        2.931    -0.028    28.703     8.786
    46   7 N        1.849    -0.288    28.311     7.886
    47   6 C        2.924    -0.028    28.694     8.785
    48   6 C        2.918    -0.028    28.702     8.785
    49   1 H        0.926     0.044     2.398     2.422
    50   1 H        0.926     0.043     2.416     2.430
    51   1 H        0.926     0.050     2.321     2.382
    52   1 H        0.926     0.042     2.423     2.434
    53   1 H        0.926     0.045     2.383     2.414
    54   1 H        0.925     0.040     2.452     2.449
    55   1 H        0.925     0.039     2.466     2.456
    56   1 H        0.926     0.041     2.432     2.439
    57   1 H        0.926     0.049     2.329     2.387
    58   1 H        0.926     0.046     2.375     2.410
    59   1 H        0.925     0.040     2.453     2.449
    60   1 H        0.925     0.039     2.463     2.454
    61   1 H        0.926     0.044     2.398     2.421
    62   1 H        0.926     0.055     2.260     2.351
    63   1 H        0.926     0.040     2.453     2.449
    64   1 H        0.926     0.042     2.422     2.434
    65   1 H        0.926     0.042     2.424     2.435
    66   1 H        0.925     0.039     2.466     2.456
    67   1 H        0.925     0.040     2.452     2.449
    68   1 H        0.926     0.045     2.387     2.416
    69   1 H        0.926     0.049     2.330     2.387
    70   1 H        0.926     0.045     2.377     2.411
    71   1 H        0.925     0.040     2.455     2.450
    72   1 H        0.925     0.039     2.462     2.454
    73   1 H        0.926     0.044     2.399     2.422
    74   1 H        0.926     0.055     2.260     2.351
    75   1 H        0.926     0.050     2.325     2.384
    76   1 H        0.926     0.043     2.415     2.430

molecular dipole:
                 x           y           z       tot (Debye)
 q only:       -0.018      -0.476      -0.045
   full:       -0.014      -0.355      -0.054       0.914

 projected vibrational frequencies (cm⁻¹)
eigval :       -0.00    -0.00    -0.00     0.00     0.00     0.00
eigval :        7.69     7.86    18.13    21.30    30.32    37.94
eigval :       40.16    42.89    44.15    45.42    47.03    49.77
eigval :       51.42    70.45    72.43    91.68    96.68   107.75
eigval :      112.13   119.72   156.75   167.93   194.20   203.22
eigval :      211.17   220.47   222.94   226.41   232.97   261.83
eigval :      265.76   268.92   277.04   306.62   322.52   333.10
eigval :      333.78   336.95   337.61   346.41   359.38   363.46
eigval :      368.15   387.93   398.07   402.34   435.68   464.95
eigval :      486.24   504.71   526.41   546.86   558.96   584.28
eigval :      585.70   586.45   586.69   599.44   599.93   604.01
eigval :      604.64   626.14   626.72   632.29   632.51   634.13
eigval :      637.66   660.03   666.34   675.34   679.52   686.19
eigval :      705.32   707.35   707.49   707.64   739.17   741.96
eigval :      778.02   788.48   791.26   799.00   800.65   834.55
eigval :      839.06   842.24   844.77   852.43   875.07   880.68
eigval :      882.30   882.97   884.04   885.38   891.77   896.20
eigval :      900.78   902.13   906.30   913.59   914.08   914.43
eigval :      916.25   921.57   923.06   924.34   924.66   925.34
eigval :      928.76   930.13   966.41   986.33   989.82  1005.26
eigval :     1006.88  1007.92  1008.34  1027.26  1075.21  1082.86
eigval :     1095.10  1095.74  1097.01  1098.34  1101.92  1107.74
eigval :     1110.35  1114.30  1114.79  1115.95  1118.69  1120.66
eigval :     1126.71  1127.33  1166.54  1176.82  1193.28  1193.68
eigval :     1205.90  1206.02  1207.01  1209.39  1237.27  1239.15
eigval :     1241.76  1242.73  1249.25  1260.99  1261.31  1261.99
eigval :     1263.36  1268.30  1279.36  1279.51  1279.77  1280.01
eigval :     1290.92  1320.63  1321.15  1323.60  1330.30  1360.67
eigval :     1365.58  1367.22  1372.76  1373.51  1378.24  1394.70
eigval :     1424.34  1424.76  1429.95  1440.77  1448.01  1469.66
eigval :     1475.75  1476.38  1476.56  1477.75  1516.47  1528.63
eigval :     1546.98  1547.07  1547.29  1547.42  1572.47  1572.84
eigval :     1573.86  1574.35  1579.29  1579.69  1580.14  1580.59
eigval :     1583.60  1594.00  3050.39  3050.61  3050.71  3051.01
eigval :     3051.91  3051.97  3052.31  3052.67  3074.22  3078.81
eigval :     3087.31  3088.16  3089.44  3089.56  3089.69  3090.17
eigval :     3091.42  3091.49  3091.66  3093.12  3093.18  3095.82
eigval :     3097.52  3103.84  3105.53  3106.06  3108.39  3111.17

   temp. (K)  partition function   enthalpy   heat capacity  entropy
                                   cal/mol     cal/K/mol   cal/K/mol   J/K/mol
 298.15  VIB  0.179E+20            22672.488    136.875    144.759
         ROT  0.115E+09              888.752      2.981     39.862
         INT  0.206E+28            23561.241    139.856    184.621
         TR   0.148E+29             1481.254      4.968     45.120
         TOT                       25042.4947   144.8242   229.7408   961.2357

       T/K    H(0)-H(T)+PV         H(T)/Eh          T*S/Eh         G(T)/Eh
   ------------------------------------------------------------------------
    298.15    0.399078E-01    0.612676E+00    0.109157E+00    0.503519E+00
   ------------------------------------------------------------------------

         :::::::::::::::::::::::::::::::::::::::::::::::::::::
         ::                  THERMODYNAMIC                  ::
         :::::::::::::::::::::::::::::::::::::::::::::::::::::
         :: total free energy        -121.283384980134 Eh   ::
         ::.................................................::
         :: total energy             -121.786903784869 Eh   ::
         :: zero point energy           0.572768337318 Eh   ::
         :: G(RRHO) w/o ZPVE           -0.069249532583 Eh   ::
         :: G(RRHO) contrib.            0.503518804735 Eh   ::
         :::::::::::::::::::::::::::::::::::::::::::::::::::::

           -------------------------------------------------
          | TOTAL ENERGY             -121.786903784869 Eh   |
          | TOTAL ENTHALPY           -121.174227692074 Eh   |
          | TOTAL FREE ENERGY        -121.283384980134 Eh   |
          | GRADIENT NORM               0.000037114135 Eh/α |
          | HOMO-LUMO GAP               2.188258677890 eV   |
           -------------------------------------------------

 * finished run on 2025/08/22 at 16:55:50.373
