   * xtb version 6.7.1 (edcfbbe) compiled by 'albert@albert-system' on 2024-07-22

   ID    Z sym.   atoms
    1    6 C      1-5, 7-13, 15-21, 23-33, 35-41, 43-45, 47, 48
    2    7 N      6, 14, 22, 34, 42, 46
    3    1 H      49-76

          program call               : xtb data2507/toluene/B4PyPPM/B4PyPPM_toluene_T1_crest.xyz --gfn 2 --uhf 2 --gbsa toluene --ohess vtight --parallel 40 --molden --ceasefiles --namespace data2507/toluene/B4PyPPM/B4PyPPM_toluene_T1_finalOpt
      * Solvation model:               GBSA
        Solvent                        toluene
        Solvent mass                       9.2140E+01 g/mol
          :  Hamiltonian                  GFN2-xTB          :
 * total energy  :  -121.7051619 Eh     change       -0.9725241E-08 Eh
 * total energy  :  -121.7051939 Eh     change       -0.3194050E-04 Eh
 * total energy  :  -121.7052041 Eh     change       -0.1026269E-04 Eh
 * total energy  :  -121.7052075 Eh     change       -0.3337000E-05 Eh
 * total energy  :  -121.7052104 Eh     change       -0.2915220E-05 Eh
 * total energy  :  -121.7052140 Eh     change       -0.3658434E-05 Eh
 * total energy  :  -121.7052174 Eh     change       -0.3374104E-05 Eh
 * total energy  :  -121.7052191 Eh     change       -0.1677243E-05 Eh
 * total energy  :  -121.7052200 Eh     change       -0.8859725E-06 Eh
 * total energy  :  -121.7052208 Eh     change       -0.8151065E-06 Eh
 * total energy  :  -121.7052215 Eh     change       -0.7054266E-06 Eh
 * total energy  :  -121.7052218 Eh     change       -0.3314048E-06 Eh
 * total energy  :  -121.7052221 Eh     change       -0.2368341E-06 Eh
 * total energy  :  -121.7052223 Eh     change       -0.1999758E-06 Eh
 * total energy  :  -121.7052225 Eh     change       -0.2354969E-06 Eh
 * total energy  :  -121.7052227 Eh     change       -0.2073883E-06 Eh
 * total energy  :  -121.7052228 Eh     change       -0.1173995E-06 Eh
 * total energy  :  -121.7052228 Eh     change        0.5401020E-08 Eh
 * total energy  :  -121.7052229 Eh     change       -0.8429541E-07 Eh
   *** GEOMETRY OPTIMIZATION CONVERGED AFTER 19 ITERATIONS ***

 final structure:
================
76
 xtb: 6.7.1 (edcfbbe)
C            0.00585464469580       -6.82376823969387       -0.25998277322738
C            1.20543872918254       -6.12875321351565       -0.27707315381326
C            1.20675683854883       -4.74828459995878       -0.21946417005417
C            0.00461085258023       -4.04804517473744       -0.14477056500103
C            0.00316659181140       -2.58587681048442       -0.09045436464113
N           -1.14490541460699       -1.94561012949497       -0.06463251030437
C           -1.19804936940145       -0.58111281212347       -0.02544699494091
C           -2.50575340906852        0.02530660770765       -0.00210793616296
C           -2.71362637210533        1.41202986107704       -0.04801567065680
C           -3.99311615164344        1.94427031038888       -0.03226645744742
C           -4.18490468687957        3.40077631477001       -0.10039531958929
C           -5.19657133566637        3.96203408502170       -0.88020692032741
C           -5.33375155388269        5.33906871736304       -0.90972837540483
N           -4.55140163701477        6.16052782846529       -0.23056276541705
C           -3.59028528678137        5.63797944792756        0.51186804159090
C           -3.36424705640834        4.27608032480011        0.61181486705716
C           -5.09928781747148        1.09706591578847        0.04257768004861
C           -4.91698996565023       -0.28551117720992        0.09201002856218
C           -6.07833296808646       -1.18429385568507        0.17536424297106
C           -6.12745010211240       -2.37225431412389       -0.55440322590879
C           -7.24475177777301       -3.18149825713583       -0.44095631251401
N           -8.27687752396738       -2.88587209164473        0.33011948153857
C           -8.23951484265487       -1.76293953102795        1.02584518334119
C           -7.17274415491732       -0.88131191386983        0.98528512574737
C           -3.63644052897219       -0.80744936853476        0.06297586136869
C           -0.00006194875327        0.13045285257298       -0.00579162673296
C            1.20001596382513       -0.57815226407731       -0.02834293530653
C            2.50638012828584        0.03041596605021       -0.00396808076027
C            2.71192069891009        1.41835271544961       -0.00295879127754
C            3.99054279779578        1.95164953523861        0.03019620707752
C            4.17796578095653        3.41034753929603        0.04502187221364
C            3.40598710693332        4.24924417216447       -0.75935129697740
C            3.62422683943233        5.61505483890324       -0.70675790474181
N            4.53315679198063        6.17403012456790        0.07391581202453
C            5.26891692873473        5.38710500530694        0.84046380866408
C            5.13519321205492        4.00955912953154        0.86419651653533
C            5.09910252715152        1.10475279997006        0.05177942124407
C            4.91966869612933       -0.27924021072196        0.04177921850758
C            6.08282898891640       -1.17930622128937        0.05350765353796
C            6.08767017635109       -2.34522277637883        0.81970823717479
C            7.20742925013965       -3.15857010921909        0.79368920398195
N            8.28261920352837       -2.88679909907681        0.07440677133295
C            8.28820776475091       -1.78404111255937       -0.65387993258433
C            7.22317767633479       -0.90067408250085       -0.69998218620133
C            3.63924339091851       -0.80169444498006        0.01906707473213
N            1.14942984607284       -1.94261704758584       -0.07302860873604
C           -1.19677450086932       -4.75325697877374       -0.12734550162346
C           -1.19440478769780       -6.13366848837574       -0.18515024440324
H            0.00635766086631       -7.90282984790451       -0.30532726127587
H            2.14058759098955       -6.66601604037413       -0.33584048141633
H            2.13227417163396       -4.19274440818615       -0.23535534594491
H           -1.87551253180669        2.08565307420718       -0.13188446215580
H           -5.85183145598625        3.33659396054447       -1.46631533777758
H           -6.10413555742814        5.81202158419707       -1.50504921199108
H           -2.97749359609355        6.34821756377337        1.05208444976650
H           -2.57715476531029        3.90030532814291        1.24732896369951
H           -6.09498994875490        1.51202016187898        0.06019830295139
H           -5.31729949066776       -2.64921528861735       -1.21085248013189
H           -7.32270461489125       -4.10903991680335       -0.99324619693424
H           -9.10586834443517       -1.56513752862213        1.64373153145730
H           -7.18421858011958        0.01508221496073        1.58562454456999
H           -3.47761285018175       -1.87303782175970        0.11893287021367
H           -0.00154666447870        1.20565308197664        0.03761449864370
H            1.87121437334065        2.09395852231557       -0.00336661419449
H            2.66318034062404        3.84168039224449       -1.42771335526866
H            3.04850286177538        6.29792522178098       -1.31831835135790
H            5.99719033844540        5.88953024344150        1.46396969362189
H            5.75070459579982        3.41323971415919        1.51967982363169
H            6.09405730907844        1.52120244542344        0.07489140060666
H            5.24040877564566       -2.60333273639990        1.43574970121393
H            7.25083471520197       -4.06988319929800        1.37598973074475
H            9.18870543204053       -1.60490085305876       -1.22699898048296
H            7.27156639927945       -0.02238099896581       -1.32471987159928
H            3.48317351900786       -1.86887276689705       -0.00505742164811
H           -2.12255310132781       -4.20128168115421       -0.06786011369788
H           -2.12902177998312       -6.67487718338625       -0.17134658994039

          :  Hamiltonian                  GFN2-xTB          :
         :: gradient norm              0.000062115816 Eh/a0 ::
         :: HOMO-LUMO gap              0.359626446818 eV    ::
         :: SCC energy              -123.899411119319 Eh    ::
         :: -> dispersion             -0.098188196598 Eh    ::
         :: -> Gsolv                  -0.057066741956 Eh    ::
         :: repulsion energy           2.194188214285 Eh    ::

    * Orbital Energies and Occupations

         #    Occupation            Energy/Eh            Energy/eV
      -------------------------------------------------------------
         1        2.0000           -0.6789314             -18.4747
       ...           ...                  ...                  ...
       102        2.0000           -0.4152326             -11.2991
       103        2.0000           -0.4103056             -11.1650
       104        2.0000           -0.4096523             -11.1472
       105        2.0000           -0.4040493             -10.9947
       106        2.0000           -0.4032281             -10.9724
       107        2.0000           -0.4024108             -10.9502
       108        2.0000           -0.3965121             -10.7896
       109        1.9806           -0.3817670             -10.3884
       110        1.9733           -0.3814585             -10.3800
       111        1.9021           -0.3801518             -10.3445
       112        1.8969           -0.3800979             -10.3430
       113        1.2472           -0.3769843             -10.2583
       114        0.9990           -0.2914104              -7.9297 (HOMO)
       115        0.0009           -0.2781944              -7.5701 (LUMO)
       116        0.0000           -0.2728653              -7.4250
       117        0.0000           -0.2726141              -7.4182
       118                         -0.2655727              -7.2266
       119                         -0.2619280              -7.1274
       120                         -0.2451144              -6.6699
       121                         -0.2450954              -6.6694
       122                         -0.2446980              -6.6586
       123                         -0.2446295              -6.6567
       124                         -0.2409107              -6.5555
       125                         -0.2324597              -6.3256
       ...                                ...                  ...
       220                          0.6896563              18.7665
      -------------------------------------------------------------
                  HL-Gap            0.0132160 Eh            0.3596 eV

     #   Z          covCN         q      C6AA      α(0)
     1   6 C        2.920    -0.024    28.604     8.770
     2   6 C        2.918    -0.027    28.679     8.782
     3   6 C        2.924    -0.026    28.649     8.778
     4   6 C        2.983    -0.002    28.069     8.691
     5   6 C        2.882     0.191    23.937     8.021
     6   7 N        1.854    -0.247    27.305     7.745
     7   6 C        2.934     0.074    26.337     8.416
     8   6 C        2.972    -0.002    28.084     8.693
     9   6 C        2.926    -0.045    29.122     8.850
    10   6 C        2.972     0.006    27.890     8.663
    11   6 C        2.986     0.031    27.298     8.570
    12   6 C        2.919    -0.043    29.064     8.841
    13   6 C        2.909     0.059    26.675     8.469
    14   7 N        1.837    -0.222    26.679     7.655
    15   6 C        2.909     0.059    26.680     8.470
    16   6 C        2.919    -0.043    29.074     8.842
    17   6 C        2.927    -0.050    29.232     8.867
    18   6 C        2.971     0.006    27.875     8.660
    19   6 C        2.986     0.032    27.271     8.566
    20   6 C        2.919    -0.042    29.046     8.838
    21   6 C        2.909     0.059    26.678     8.469
    22   7 N        1.837    -0.217    26.568     7.638
    23   6 C        2.909     0.059    26.681     8.470
    24   6 C        2.919    -0.042    29.051     8.839
    25   6 C        2.932    -0.038    28.954     8.825
    26   6 C        2.912    -0.054    29.350     8.884
    27   6 C        2.934     0.074    26.340     8.417
    28   6 C        2.971    -0.003    28.086     8.693
    29   6 C        2.926    -0.045    29.126     8.850
    30   6 C        2.972     0.006    27.891     8.663
    31   6 C        2.986     0.031    27.297     8.570
    32   6 C        2.919    -0.043    29.074     8.842
    33   6 C        2.909     0.059    26.680     8.470
    34   7 N        1.837    -0.222    26.679     7.654
    35   6 C        2.909     0.059    26.676     8.469
    36   6 C        2.919    -0.043    29.064     8.841
    37   6 C        2.927    -0.050    29.236     8.867
    38   6 C        2.971     0.006    27.877     8.661
    39   6 C        2.986     0.032    27.271     8.566
    40   6 C        2.919    -0.042    29.047     8.838
    41   6 C        2.909     0.059    26.679     8.469
    42   7 N        1.837    -0.217    26.567     7.638
    43   6 C        2.909     0.059    26.682     8.470
    44   6 C        2.919    -0.042    29.051     8.839
    45   6 C        2.932    -0.038    28.956     8.825
    46   7 N        1.855    -0.247    27.297     7.744
    47   6 C        2.924    -0.026    28.649     8.778
    48   6 C        2.918    -0.027    28.680     8.782
    49   1 H        0.926     0.046     2.372     2.408
    50   1 H        0.926     0.045     2.387     2.416
    51   1 H        0.926     0.046     2.367     2.406
    52   1 H        0.926     0.031     2.574     2.509
    53   1 H        0.926     0.047     2.354     2.399
    54   1 H        0.925     0.044     2.399     2.422
    55   1 H        0.925     0.043     2.411     2.428
    56   1 H        0.926     0.044     2.396     2.421
    57   1 H        0.926     0.035     2.513     2.479
    58   1 H        0.926     0.048     2.348     2.396
    59   1 H        0.925     0.045     2.378     2.412
    60   1 H        0.925     0.045     2.383     2.414
    61   1 H        0.926     0.048     2.347     2.396
    62   1 H        0.926     0.043     2.408     2.427
    63   1 H        0.926     0.036     2.503     2.474
    64   1 H        0.926     0.031     2.577     2.510
    65   1 H        0.926     0.044     2.394     2.419
    66   1 H        0.925     0.043     2.410     2.428
    67   1 H        0.925     0.044     2.399     2.422
    68   1 H        0.926     0.047     2.355     2.400
    69   1 H        0.926     0.035     2.516     2.481
    70   1 H        0.926     0.048     2.350     2.397
    71   1 H        0.925     0.045     2.380     2.412
    72   1 H        0.925     0.045     2.383     2.414
    73   1 H        0.926     0.048     2.347     2.396
    74   1 H        0.926     0.043     2.406     2.426
    75   1 H        0.926     0.046     2.366     2.405
    76   1 H        0.926     0.045     2.386     2.415

molecular dipole:
                 x           y           z       tot (Debye)
 q only:       -0.010      -0.717      -0.007
   full:       -0.008      -0.639      -0.008       1.623

 projected vibrational frequencies (cm⁻¹)
eigval :       -0.00    -0.00    -0.00     0.00     0.00     0.00
eigval :       -5.03     4.99    19.91    22.23    25.23    35.31
eigval :       37.67    42.31    43.21    44.14    45.84    49.20
eigval :       51.01    68.35    71.62    97.29   101.76   105.02
eigval :      106.76   114.43   160.13   167.51   194.31   199.59
eigval :      201.77   209.48   212.75   222.11   222.76   259.32
eigval :      268.29   269.80   273.44   299.08   316.79   337.86
eigval :      339.74   340.77   342.33   346.66   347.68   367.89
eigval :      368.26   383.68   404.92   412.74   420.21   470.23
eigval :      482.25   482.73   508.41   535.20   551.93   568.73
eigval :      572.55   577.76   579.51   588.13   589.58   590.13
eigval :      590.65   597.17   605.51   622.39   624.09   626.66
eigval :      627.59   629.51   649.20   653.19   654.76   655.21
eigval :      665.28   701.52   701.95   702.30   703.01   735.66
eigval :      763.78   781.35   781.89   795.62   796.78   803.93
eigval :      816.36   818.77   825.68   827.07   849.91   851.26
eigval :      858.26   863.67   864.39   872.36   879.18   880.17
eigval :      880.65   881.42   901.69   904.66   910.79   912.85
eigval :      912.92   913.69   919.51   921.20   921.44   921.98
eigval :      927.48   931.18   952.06   962.63   970.21   985.27
eigval :      991.48   993.03   994.04  1000.57  1068.91  1070.58
eigval :     1073.54  1088.79  1092.93  1093.56  1095.48  1096.49
eigval :     1100.84  1107.73  1111.68  1114.83  1115.65  1117.69
eigval :     1118.14  1127.46  1130.76  1163.91  1176.63  1196.41
eigval :     1200.40  1200.66  1201.00  1202.30  1223.01  1237.46
eigval :     1238.18  1245.07  1252.48  1257.49  1257.93  1258.26
eigval :     1258.64  1268.62  1279.01  1286.06  1286.42  1286.49
eigval :     1287.25  1291.40  1326.80  1332.48  1334.10  1335.57
eigval :     1347.73  1362.99  1365.26  1369.04  1372.84  1379.40
eigval :     1383.53  1409.15  1418.35  1421.78  1434.04  1435.71
eigval :     1451.11  1464.98  1465.52  1467.56  1470.62  1474.67
eigval :     1519.12  1519.95  1541.61  1543.62  1544.66  1544.78
eigval :     1555.12  1558.75  1560.61  1563.13  1563.76  1574.37
eigval :     1581.94  1592.93  3052.90  3053.04  3054.29  3054.43
eigval :     3054.52  3054.64  3055.15  3055.33  3075.59  3079.10
eigval :     3087.60  3089.54  3089.79  3091.56  3091.72  3092.85
eigval :     3092.94  3093.40  3093.71  3094.08  3094.37  3094.43
eigval :     3095.63  3095.95  3096.62  3098.94  3099.56  3118.10

   temp. (K)  partition function   enthalpy   heat capacity  entropy
                                   cal/mol     cal/K/mol   cal/K/mol   J/K/mol
 298.15  VIB  0.768E+20            22992.487    138.744    147.248
         ROT  0.115E+09              888.752      2.981     39.857
         INT  0.880E+28            23881.239    141.725    187.105
         TR   0.148E+29             1481.254      4.968     45.120
         TOT                       25362.4930   146.6934   232.2249   971.6290

       T/K    H(0)-H(T)+PV         H(T)/Eh          T*S/Eh         G(T)/Eh
   ------------------------------------------------------------------------
    298.15    0.404177E-01    0.608895E+00    0.110338E+00    0.498558E+00
   ------------------------------------------------------------------------

         :::::::::::::::::::::::::::::::::::::::::::::::::::::
         ::                  THERMODYNAMIC                  ::
         :::::::::::::::::::::::::::::::::::::::::::::::::::::
         :: total free energy        -121.206665371810 Eh   ::
         ::.................................................::
         :: total energy             -121.705222904414 Eh   ::
         :: zero point energy           0.568477377251 Eh   ::
         :: G(RRHO) w/o ZPVE           -0.069919844647 Eh   ::
         :: G(RRHO) contrib.            0.498557532604 Eh   ::
         :::::::::::::::::::::::::::::::::::::::::::::::::::::

           -------------------------------------------------
          | TOTAL ENERGY             -121.705222904414 Eh   |
          | TOTAL ENTHALPY           -121.096327821792 Eh   |
          | TOTAL FREE ENERGY        -121.206665371810 Eh   |
          | GRADIENT NORM               0.000058855422 Eh/α |
          | HOMO-LUMO GAP               0.359625789021 eV   |
           -------------------------------------------------

 * finished run on 2025/08/22 at 17:07:36.590
