   * xtb version 6.7.1 (edcfbbe) compiled by 'albert@albert-system' on 2024-07-22

   ID    Z sym.   atoms
    1    6 C      1-9, 11-15, 17-30, 32-38
    2    7 N      10, 16, 31
    3    1 H      39-63

          program call               : xtb data2507/toluene/α-DMAC-DBP/α-DMAC-DBP.xyz --gfn 2 --gbsa toluene --ohess vtight --parallel 40 --molden --ceasefiles --namespace data2507/toluene/α-DMAC-DBP/α-DMAC-DBP_toluene_S0_preOpt
      * Solvation model:               GBSA
        Solvent                        toluene
        Solvent mass                       9.2140E+01 g/mol
          :  Hamiltonian                  GFN2-xTB          :
 * total energy  :   -96.5420693 Eh     change       -0.1177995E-08 Eh
 * total energy  :   -96.5608684 Eh     change       -0.1879907E-01 Eh
 * total energy  :   -96.5659043 Eh     change       -0.5035848E-02 Eh
 * total energy  :   -96.5664124 Eh     change       -0.5081741E-03 Eh
 * total energy  :   -96.5666316 Eh     change       -0.2191519E-03 Eh
 * total energy  :   -96.5666812 Eh     change       -0.4957111E-04 Eh
 * total energy  :   -96.5667051 Eh     change       -0.2397115E-04 Eh
 * total energy  :   -96.5667233 Eh     change       -0.1813893E-04 Eh
 * total energy  :   -96.5667364 Eh     change       -0.1314303E-04 Eh
 * total energy  :   -96.5667505 Eh     change       -0.1411960E-04 Eh
 * total energy  :   -96.5668760 Eh     change       -0.1875454E-06 Eh
 * total energy  :   -96.5668762 Eh     change       -0.2245751E-06 Eh
 * total energy  :   -96.5668765 Eh     change       -0.2675009E-06 Eh
 * total energy  :   -96.5668768 Eh     change       -0.3248926E-06 Eh
 * total energy  :   -96.5668772 Eh     change       -0.3671234E-06 Eh
 * total energy  :   -96.5668775 Eh     change       -0.3568377E-06 Eh
 * total energy  :   -96.5668778 Eh     change       -0.2860259E-06 Eh
 * total energy  :   -96.5668780 Eh     change       -0.1944253E-06 Eh
 * total energy  :   -96.5668780 Eh     change       -0.1018392E-08 Eh
   *** GEOMETRY OPTIMIZATION CONVERGED AFTER 44 ITERATIONS ***

 final structure:
================
63
 xtb: 6.7.1 (edcfbbe)
C           -5.45508035654864        0.42765961336742        0.00011853863031
C           -3.96613203849692        0.82370613001320        0.00008037759121
C           -3.82644962933120        2.35743624966977        0.00007638880717
C           -3.31891267065083        0.27120718402780        1.25703608220730
C           -3.75303301222591        0.70898411510000        2.50082337045373
C           -3.20441704555865        0.23765166477686        3.67989185013688
C           -2.19010275657990       -0.70125720462244        3.62588414694577
C           -1.74544883420506       -1.15973036916602        2.40333089248821
C           -2.29906946111386       -0.68576562609765        1.21066818376156
N           -1.84599732654511       -1.18295621771844        0.00002429736010
C           -0.79571134777861       -2.13886928629662       -0.00000280116920
C           -1.06741593895498       -3.48236342427918        0.00001825961211
C           -0.02957367809421       -4.43133668136320       -0.00000562849574
C            1.27892833374834       -4.03944838970539       -0.00003578864536
C            1.59954797752226       -2.66487450057513       -0.00004599554355
N            2.88432668627593       -2.27751012511908       -0.00003423240260
C            3.14684346032134       -0.98389646753308       -0.00004580386827
C            4.52535382407284       -0.54642612279203        0.00002799553632
C            5.54729371893142       -1.50094619638749        0.00011362603369
C            6.86832944182609       -1.11725335220005        0.00022884491686
C            7.18472952976576        0.23677550751635        0.00027481658345
C            6.18713353588919        1.18797726836570        0.00017966086937
C            4.83372892972645        0.82911624592254        0.00003854488677
C            3.76116640502820        1.81587689871956       -0.00011582929198
C            4.00554646069018        3.19449744930086       -0.00021175261670
C            2.97402461243174        4.10881911845548       -0.00037786450958
C            1.65109056709152        3.68044546444262       -0.00045295475239
C            1.37933698487730        2.33199072384160       -0.00036321605867
C            2.41622824540413        1.39405203267415       -0.00019308071938
C            2.09515416272733       -0.01530762192812       -0.00010973992549
N            0.82842002957222       -0.38439358814376       -0.00009617329422
C            0.55397469332845       -1.69556930829815       -0.00004786441999
C           -2.29912755620126       -0.68575926812215       -1.21059486430149
C           -1.74556570100042       -1.15972048109391       -2.40328610974669
C           -2.19027037847377       -0.70123344938129       -3.62581560561067
C           -3.20458016157665        0.23768351803270       -3.67976982800074
C           -3.75314368368609        0.70900626021616       -2.50067302600471
C           -3.31897220093281        0.27121406203657       -1.25690890067773
H           -5.95747452490380        0.81622558442215       -0.88159397946869
H           -5.95745473414980        0.81632174385492        0.88180000671737
H           -5.55115112845689       -0.65684875512281        0.00017833053846
H           -4.29471383722388        2.79010973870697        0.87943675103894
H           -2.77378950697510        2.63377451725156       -0.00000848315085
H           -4.29486041832357        2.79011805766077       -0.87920205459632
H           -4.54638682509787        1.43869986985294        2.55945447003365
H           -3.56642266345376        0.60043220727983        4.63016883558247
H           -1.74482668662254       -1.08223399993290        4.53360200450606
H           -0.95610739625172       -1.89614078694275        2.36755331659665
H           -2.09567520163323       -3.81333714153493        0.00005334040916
H           -0.28303814359271       -5.48065940637659        0.00000740425116
H            2.08938284231367       -4.75157880999989       -0.00004412218800
H            5.26408087837899       -2.54205568241872        0.00008968500341
H            7.65244293624049       -1.85932558944454        0.00029124019585
H            8.21911986166580        0.54775693397633        0.00038782966169
H            6.47157719068044        2.22753064767598        0.00022481029335
H            5.01759104730971        3.56491385129029       -0.00015890957412
H            3.19764770814347        5.16553542830875       -0.00044699701908
H            0.84571558368518        4.39938861096902       -0.00059329382480
H            0.36656985006358        1.96101863898491       -0.00043226195171
H           -0.95623241107378       -1.89614134984862       -2.36754946148140
H           -1.74503684863764       -1.08220523702138       -4.53355636676728
H           -3.56661755683674        0.60048339835885       -4.63002728457863
H           -4.54648883652378        1.43873470439327       -2.55926162699319

          :  Hamiltonian                  GFN2-xTB          :
         :: gradient norm              0.000027052280 Eh/a0 ::
         :: HOMO-LUMO gap              0.956845087137 eV    ::
         :: SCC energy               -98.323688275857 Eh    ::
         :: -> dispersion             -0.089987417081 Eh    ::
         :: -> Gsolv                  -0.039741701403 Eh    ::
         :: repulsion energy           1.756810280317 Eh    ::

    * Orbital Energies and Occupations

         #    Occupation            Energy/Eh            Energy/eV
      -------------------------------------------------------------
         1        2.0000           -0.6836448             -18.6029
       ...           ...                  ...                  ...
        78        2.0000           -0.4238415             -11.5333
        79        2.0000           -0.4229244             -11.5084
        80        2.0000           -0.4172034             -11.3527
        81        2.0000           -0.4109235             -11.1818
        82        2.0000           -0.4068070             -11.0698
        83        2.0000           -0.4041357             -10.9971
        84        2.0000           -0.4022473             -10.9457
        85        2.0000           -0.3984225             -10.8416
        86        2.0000           -0.3971472             -10.8069
        87        2.0000           -0.3936858             -10.7127
        88        2.0000           -0.3918465             -10.6627
        89        2.0000           -0.3601418              -9.8000
        90        2.0000           -0.3449087              -9.3854 (HOMO)
        91                         -0.3097453              -8.4286 (LUMO)
        92                         -0.2721870              -7.4066
        93                         -0.2576821              -7.0119
        94                         -0.2324998              -6.3266
        95                         -0.2248492              -6.1185
        96                         -0.2230770              -6.0702
        97                         -0.2184219              -5.9436
        98                         -0.2173826              -5.9153
        99                         -0.2095358              -5.7018
       100                         -0.2003333              -5.4513
       101                         -0.1891094              -5.1459
       ...                                ...                  ...
       177                          0.7067728              19.2323
      -------------------------------------------------------------
                  HL-Gap            0.0351634 Eh            0.9568 eV

     #   Z          covCN         q      C6AA      α(0)
     1   6 C        3.761    -0.104    22.535     6.767
     2   6 C        3.908     0.021    20.167     6.383
     3   6 C        3.760    -0.104    22.537     6.768
     4   6 C        2.979    -0.014    28.351     8.734
     5   6 C        2.928    -0.038    28.942     8.823
     6   6 C        2.917    -0.047    29.169     8.856
     7   6 C        2.919    -0.036    28.885     8.813
     8   6 C        2.924    -0.058    29.442     8.898
     9   6 C        2.929     0.063    26.580     8.455
    10   7 N        2.754    -0.068    22.567     7.055
    11   6 C        2.924     0.062    26.614     8.460
    12   6 C        2.918    -0.043    29.080     8.843
    13   6 C        2.915    -0.029    28.730     8.789
    14   6 C        2.916    -0.048    29.182     8.858
    15   6 C        2.964     0.079    26.230     8.401
    16   7 N        1.848    -0.260    27.624     7.790
    17   6 C        2.958     0.087    26.056     8.372
    18   6 C        2.987    -0.007    28.190     8.709
    19   6 C        2.924    -0.027    28.686     8.783
    20   6 C        2.916    -0.028    28.694     8.784
    21   6 C        2.918    -0.025    28.634     8.775
    22   6 C        2.922    -0.033    28.833     8.806
    23   6 C        2.975     0.006    27.887     8.662
    24   6 C        2.975     0.006    27.892     8.663
    25   6 C        2.922    -0.034    28.836     8.806
    26   6 C        2.918    -0.025    28.633     8.775
    27   6 C        2.916    -0.027    28.688     8.783
    28   6 C        2.924    -0.026    28.645     8.777
    29   6 C        2.988    -0.007    28.183     8.708
    30   6 C        2.962     0.088    26.033     8.369
    31   7 N        1.847    -0.257    27.548     7.779
    32   6 C        2.968     0.084    26.132     8.385
    33   6 C        2.929     0.063    26.580     8.455
    34   6 C        2.924    -0.058    29.442     8.898
    35   6 C        2.919    -0.036    28.885     8.813
    36   6 C        2.917    -0.047    29.169     8.856
    37   6 C        2.928    -0.038    28.942     8.823
    38   6 C        2.979    -0.014    28.351     8.734
    39   1 H        0.925     0.043     2.411     2.428
    40   1 H        0.925     0.043     2.411     2.428
    41   1 H        0.925     0.030     2.590     2.517
    42   1 H        0.925     0.043     2.411     2.428
    43   1 H        0.925     0.030     2.579     2.512
    44   1 H        0.925     0.043     2.411     2.428
    45   1 H        0.926     0.035     2.515     2.480
    46   1 H        0.926     0.027     2.625     2.534
    47   1 H        0.926     0.025     2.659     2.550
    48   1 H        0.926     0.012     2.865     2.647
    49   1 H        0.926     0.054     2.275     2.358
    50   1 H        0.926     0.057     2.236     2.339
    51   1 H        0.926     0.059     2.212     2.326
    52   1 H        0.926     0.055     2.254     2.348
    53   1 H        0.926     0.044     2.391     2.418
    54   1 H        0.926     0.045     2.378     2.411
    55   1 H        0.926     0.047     2.353     2.399
    56   1 H        0.926     0.048     2.348     2.396
    57   1 H        0.926     0.046     2.374     2.410
    58   1 H        0.926     0.044     2.401     2.423
    59   1 H        0.926     0.052     2.300     2.372
    60   1 H        0.926     0.012     2.865     2.647
    61   1 H        0.926     0.025     2.659     2.550
    62   1 H        0.926     0.027     2.625     2.534
    63   1 H        0.926     0.035     2.515     2.480

molecular dipole:
                 x           y           z       tot (Debye)
 q only:        0.632       0.558      -0.000
   full:        0.704       0.411      -0.000       2.073

 projected vibrational frequencies (cm⁻¹)
eigval :       -0.00    -0.00     0.00     0.00     0.00     0.00
eigval :      -11.08   -10.19    14.37    37.40    53.35    58.87
eigval :       76.27    86.24    93.57    94.74   115.99   120.61
eigval :      145.00   149.41   189.56   191.62   208.84   218.39
eigval :      226.08   237.05   240.80   274.87   281.63   301.10
eigval :      330.67   333.67   336.02   345.42   367.32   383.93
eigval :      387.46   394.35   397.99   402.21   407.33   412.36
eigval :      448.90   452.21   496.92   498.12   514.21   518.22
eigval :      530.57   537.37   538.80   543.59   546.58   569.48
eigval :      585.00   585.84   595.77   610.74   625.32   661.38
eigval :      675.65   676.75   681.93   683.29   693.59   701.83
eigval :      723.02   735.12   766.82   767.04   769.10   774.07
eigval :      775.20   790.09   801.47   823.83   842.07   858.24
eigval :      860.65   861.19   869.72   880.47   892.65   909.44
eigval :      910.29   915.68   917.87   918.22   918.24   922.35
eigval :      924.33   928.81   930.92   933.20   937.33   955.92
eigval :     1012.91  1013.97  1045.41  1069.43  1076.26  1083.91
eigval :     1090.74  1101.41  1111.03  1117.79  1118.67  1139.09
eigval :     1144.21  1149.12  1157.97  1166.74  1177.38  1178.58
eigval :     1181.20  1185.08  1185.33  1208.05  1232.67  1241.33
eigval :     1246.93  1247.87  1257.84  1267.55  1281.47  1290.52
eigval :     1292.16  1297.75  1312.57  1322.72  1325.14  1331.25
eigval :     1334.47  1339.37  1348.27  1364.08  1388.70  1398.30
eigval :     1417.24  1424.39  1424.90  1435.79  1438.93  1440.64
eigval :     1459.58  1476.12  1477.61  1485.88  1485.94  1488.31
eigval :     1495.66  1496.66  1501.88  1503.87  1536.16  1554.27
eigval :     1567.18  1573.67  1584.29  1588.99  1590.40  1593.66
eigval :     1597.09  1600.92  3022.40  3026.94  3038.64  3042.36
eigval :     3046.17  3053.16  3068.77  3068.78  3076.93  3076.94
eigval :     3078.42  3079.58  3083.15  3083.24  3085.48  3088.74
eigval :     3090.02  3091.85  3093.02  3093.59  3103.39  3104.67
eigval :     3105.91  3110.09  3114.93

   temp. (K)  partition function   enthalpy   heat capacity  entropy
                                   cal/mol     cal/K/mol   cal/K/mol   J/K/mol
 298.15  VIB  0.412E+13            17002.816    111.837    104.226
         ROT  0.306E+08              888.752      2.981     37.235
         INT  0.126E+21            17891.569    114.817    141.461
         TR   0.104E+29             1481.254      4.968     44.420
         TOT                       19372.8227   119.7856   185.8812   777.7271

       T/K    H(0)-H(T)+PV         H(T)/Eh          T*S/Eh         G(T)/Eh
   ------------------------------------------------------------------------
    298.15    0.308726E-01    0.520049E+00    0.883182E-01    0.431731E+00
   ------------------------------------------------------------------------

         :::::::::::::::::::::::::::::::::::::::::::::::::::::
         ::                  THERMODYNAMIC                  ::
         :::::::::::::::::::::::::::::::::::::::::::::::::::::
         :: total free energy         -96.135147436457 Eh   ::
         ::.................................................::
         :: total energy              -96.566877991969 Eh   ::
         :: zero point energy           0.489176172455 Eh   ::
         :: G(RRHO) w/o ZPVE           -0.057445616944 Eh   ::
         :: G(RRHO) contrib.            0.431730555511 Eh   ::
         :::::::::::::::::::::::::::::::::::::::::::::::::::::

           -------------------------------------------------
          | TOTAL ENERGY              -96.566877991969 Eh   |
          | TOTAL ENTHALPY            -96.046829261427 Eh   |
          | TOTAL FREE ENERGY         -96.135147436457 Eh   |
          | GRADIENT NORM               0.000027054542 Eh/α |
          | HOMO-LUMO GAP               0.956844481795 eV   |
           -------------------------------------------------

 * finished run on 2025/08/24 at 07:35:58.350
