   * xtb version 6.7.1 (edcfbbe) compiled by 'albert@albert-system' on 2024-07-22

   ID    Z sym.   atoms
    1    6 C      1-9, 11-15, 17-30, 32-38
    2    7 N      10, 16, 31
    3    1 H      39-63

          program call               : xtb data2507/toluene/α-DMAC-DBP/α-DMAC-DBP_toluene_S0_finalOpt.xtbopt.xyz --gfn 2 --uhf 2 --gbsa toluene --ohess vtight --parallel 40 --molden --ceasefiles --namespace data2507/toluene/α-DMAC-DBP/α-DMAC-DBP_toluene_T1_preOpt
      * Solvation model:               GBSA
        Solvent                        toluene
        Solvent mass                       9.2140E+01 g/mol
          :  Hamiltonian                  GFN2-xTB          :
 * total energy  :   -96.5174431 Eh     change       -0.2148980E-08 Eh
 * total energy  :   -96.5203990 Eh     change       -0.2955890E-02 Eh
 * total energy  :   -96.5212386 Eh     change       -0.8395519E-03 Eh
 * total energy  :   -96.5213455 Eh     change       -0.1069231E-03 Eh
 * total energy  :   -96.5213951 Eh     change       -0.4959433E-04 Eh
 * total energy  :   -96.5214084 Eh     change       -0.1330203E-04 Eh
 * total energy  :   -96.5214242 Eh     change       -0.1581024E-04 Eh
 * total energy  :   -96.5214409 Eh     change       -0.1668848E-04 Eh
 * total energy  :   -96.5214504 Eh     change       -0.9528411E-05 Eh
 * total energy  :   -96.5214546 Eh     change       -0.4220846E-05 Eh
 * total energy  :   -96.5214913 Eh     change       -0.5293593E-06 Eh
 * total energy  :   -96.5214920 Eh     change       -0.6427618E-06 Eh
 * total energy  :   -96.5214927 Eh     change       -0.7595894E-06 Eh
 * total energy  :   -96.5214935 Eh     change       -0.7955742E-06 Eh
 * total energy  :   -96.5214941 Eh     change       -0.6035456E-06 Eh
 * total energy  :   -96.5214944 Eh     change       -0.3098129E-06 Eh
 * total energy  :   -96.5214946 Eh     change       -0.1818152E-06 Eh
 * total energy  :   -96.5214948 Eh     change       -0.1384788E-06 Eh
 * total energy  :   -96.5214948 Eh     change       -0.8365788E-09 Eh
   *** GEOMETRY OPTIMIZATION CONVERGED AFTER 44 ITERATIONS ***

 final structure:
================
63
 xtb: 6.7.1 (edcfbbe)
C           -5.16729576729854        1.88414845175968       -0.24452663864952
C           -3.74910525585654        1.52863804460470        0.24271288037731
C           -3.20817478725461        2.63747811340142        1.16666326488432
C           -3.80452659749719        0.23818971867115        1.03300399318556
C           -4.59698838497468        0.17342992092663        2.17221444041829
C           -4.65357464128548       -0.95775078047343        2.96425060096812
C           -3.88416296443808       -2.05951080452512        2.62776578476188
C           -3.09287592281014       -2.02477583110989        1.50056293976732
C           -3.05499694110010       -0.89210047070144        0.67713750743101
N           -2.28963090238760       -0.90486585481816       -0.48070022245481
C           -1.32897689687373       -1.93238273857487       -0.66098353399634
C           -1.68503577128479       -3.22736078966397       -1.01748983961874
C           -0.71670856273984       -4.21189403415750       -1.12368132116841
C            0.61557570840415       -3.92201333197128       -0.87371568544271
C            1.01190969436716       -2.63135879349002       -0.52601144151442
N            2.28673972800612       -2.30476820345372       -0.29876864168992
C            2.65134099266804       -1.05425408324254       -0.02902842313135
C            4.02221123235509       -0.72575725216213        0.21823777366239
C            4.98922590329571       -1.74341299926586        0.16695919444633
C            6.31052427069683       -1.47238576986621        0.41182561963187
C            6.70022955213136       -0.16713305500737        0.71583147972665
C            5.76882578549065        0.84226236593899        0.76601755968626
C            4.40831251201605        0.60289021025349        0.51783561465145
C            3.40869178742746        1.64552397714941        0.55286138778205
C            3.71057769668091        2.99062255807410        0.81586317728088
C            2.73443267874420        3.95833466794357        0.83124688627312
C            1.40278022676304        3.62428021873370        0.57791399509956
C            1.07094391788119        2.31973288442500        0.32088104546138
C            2.05446791008254        1.31646662332834        0.30709700258740
C            1.66914398541308       -0.03107389204177        0.03427711986851
N            0.39098974584377       -0.34534778345944       -0.16488076407968
C            0.01830734025272       -1.59184040822097       -0.43230054702404
C           -2.18041278417978        0.21757289792147       -1.28147829552134
C           -1.42092787615940        0.14586030463291       -2.45828452009407
C           -1.26743297201264        1.24495280484112       -3.27273086020837
C           -1.88409831235769        2.44021937283168       -2.93787946183646
C           -2.67191012333044        2.50392270305442       -1.80336717798129
C           -2.84371956908417        1.41102964675117       -0.96407816855601
H           -5.16148977515832        2.81837869680814       -0.79805004559675
H           -5.84923247435019        1.98878740613206        0.59401684456183
H           -5.54232268041998        1.09855883448346       -0.89800774453223
H           -3.86300214781250        2.78092201478268        2.02113465880155
H           -2.21998863371505        2.36507854748901        1.53335476772706
H           -3.13030518175287        3.58043651684077        0.63361115529824
H           -5.18370755145097        1.03226504223058        2.45853426079696
H           -5.28066402002508       -0.97471111684250        3.84250156243831
H           -3.89652649920240       -2.94623178391870        3.24367536842429
H           -2.48743179273283       -2.88236883972807        1.25449146767527
H           -2.72258438635971       -3.45010329680739       -1.21603248104804
H           -0.99996910459350       -5.21400496341645       -1.40639879314455
H            1.37646478259753       -4.68084735037743       -0.96941665425400
H            4.65511845853650       -2.74302608384872       -0.06768767163772
H            7.04612280572586       -2.26213757114207        0.37194092007790
H            7.73988002040030        0.05043689450551        0.91264887200880
H            6.10320760111525        1.83945115226229        1.00392045028961
H            4.72992432290349        3.28472879910615        1.00930815119651
H            3.00006807672506        4.98504326128683        1.03693461242304
H            0.64218765919407        4.39075742372788        0.58356682042326
H            0.05240658062836        2.02757838884126        0.11366555308350
H           -0.95208960637813       -0.78783276001051       -2.72908261926023
H           -0.66880781995889        1.16877864525087       -4.16806981736358
H           -1.76286765246261        3.31158432443947       -3.56304135939880
H           -3.16332141858033        3.43547587545115       -1.56908578269014

          :  Hamiltonian                  GFN2-xTB          :
         :: gradient norm              0.000043301607 Eh/a0 ::
         :: HOMO-LUMO gap              1.050428361225 eV    ::
         :: SCC energy               -98.279025965143 Eh    ::
         :: -> dispersion             -0.092479686743 Eh    ::
         :: -> Gsolv                  -0.039411540061 Eh    ::
         :: repulsion energy           1.757531209055 Eh    ::

    * Orbital Energies and Occupations

         #    Occupation            Energy/Eh            Energy/eV
      -------------------------------------------------------------
         1        2.0000           -0.6781366             -18.4530
       ...           ...                  ...                  ...
        79        2.0000           -0.4204251             -11.4403
        80        2.0000           -0.4150317             -11.2936
        81        2.0000           -0.4141520             -11.2696
        82        2.0000           -0.4120391             -11.2122
        83        2.0000           -0.4112568             -11.1909
        84        2.0000           -0.4078078             -11.0970
        85        2.0000           -0.4021912             -10.9442
        86        2.0000           -0.3945369             -10.7359
        87        2.0000           -0.3888034             -10.5799
        88        2.0000           -0.3828352             -10.4175
        89        1.9972           -0.3618276              -9.8458
        90        1.0028           -0.3506601              -9.5419
        91        1.0000           -0.3016828              -8.2092 (HOMO)
        92                         -0.2630803              -7.1588 (LUMO)
        93                         -0.2489473              -6.7742
        94                         -0.2357114              -6.4140
        95                         -0.2289691              -6.2306
        96                         -0.2283072              -6.2126
        97                         -0.2220105              -6.0412
        98                         -0.2139675              -5.8224
        99                         -0.2032988              -5.5320
       100                         -0.1953382              -5.3154
       101                         -0.1905812              -5.1860
       102                         -0.1471908              -4.0053
       ...                                ...                  ...
       177                          0.7118179              19.3696
      -------------------------------------------------------------
                  HL-Gap            0.0386025 Eh            1.0504 eV

     #   Z          covCN         q      C6AA      α(0)
     1   6 C        3.761    -0.108    22.605     6.778
     2   6 C        3.909     0.023    20.127     6.377
     3   6 C        3.761    -0.105    22.551     6.770
     4   6 C        2.979    -0.005    28.146     8.703
     5   6 C        2.927    -0.035    28.873     8.812
     6   6 C        2.917    -0.037    28.914     8.818
     7   6 C        2.919    -0.031    28.776     8.797
     8   6 C        2.923    -0.053    29.304     8.877
     9   6 C        2.928     0.061    26.629     8.463
    10   7 N        2.754    -0.036    21.944     6.957
    11   6 C        2.931     0.030    27.333     8.574
    12   6 C        2.914    -0.054    29.345     8.883
    13   6 C        2.915    -0.042    29.045     8.838
    14   6 C        2.917    -0.067    29.659     8.931
    15   6 C        2.938     0.085    26.114     8.381
    16   7 N        1.849    -0.254    27.474     7.768
    17   6 C        2.940     0.081    26.202     8.395
    18   6 C        2.987    -0.010    28.260     8.720
    19   6 C        2.923    -0.031    28.770     8.796
    20   6 C        2.916    -0.033    28.827     8.804
    21   6 C        2.917    -0.033    28.818     8.803
    22   6 C        2.921    -0.036    28.887     8.814
    23   6 C        2.976    -0.003    28.085     8.693
    24   6 C        2.976    -0.003    28.092     8.694
    25   6 C        2.920    -0.036    28.885     8.813
    26   6 C        2.917    -0.033    28.825     8.804
    27   6 C        2.916    -0.033    28.826     8.804
    28   6 C        2.923    -0.030    28.759     8.794
    29   6 C        2.987    -0.011    28.273     8.722
    30   6 C        2.945     0.080    26.220     8.398
    31   7 N        1.849    -0.255    27.486     7.770
    32   6 C        2.947     0.089    26.029     8.368
    33   6 C        2.933     0.069    26.458     8.436
    34   6 C        2.924    -0.043    29.057     8.840
    35   6 C        2.918    -0.031    28.765     8.795
    36   6 C        2.917    -0.034    28.856     8.809
    37   6 C        2.926    -0.035    28.866     8.811
    38   6 C        2.979    -0.004    28.109     8.697
    39   1 H        0.925     0.050     2.323     2.384
    40   1 H        0.925     0.050     2.320     2.382
    41   1 H        0.925     0.035     2.512     2.478
    42   1 H        0.925     0.049     2.331     2.388
    43   1 H        0.925     0.034     2.533     2.489
    44   1 H        0.925     0.049     2.328     2.386
    45   1 H        0.926     0.046     2.369     2.407
    46   1 H        0.926     0.039     2.457     2.451
    47   1 H        0.926     0.037     2.486     2.466
    48   1 H        0.926     0.035     2.521     2.483
    49   1 H        0.926     0.043     2.406     2.425
    50   1 H        0.926     0.040     2.450     2.448
    51   1 H        0.926     0.042     2.417     2.431
    52   1 H        0.926     0.042     2.425     2.435
    53   1 H        0.926     0.036     2.509     2.477
    54   1 H        0.926     0.036     2.509     2.477
    55   1 H        0.926     0.038     2.473     2.459
    56   1 H        0.926     0.037     2.483     2.464
    57   1 H        0.926     0.036     2.507     2.476
    58   1 H        0.926     0.037     2.486     2.465
    59   1 H        0.926     0.039     2.456     2.451
    60   1 H        0.926     0.027     2.625     2.534
    61   1 H        0.926     0.035     2.511     2.478
    62   1 H        0.926     0.041     2.439     2.442
    63   1 H        0.926     0.047     2.354     2.399

molecular dipole:
                 x           y           z       tot (Debye)
 q only:       -1.655       1.128       0.141
   full:       -1.514       0.965       0.102       4.570

 projected vibrational frequencies (cm⁻¹)
eigval :       -0.00    -0.00    -0.00    -0.00     0.00     0.00
eigval :       15.71    20.16    28.68    42.37    61.98    69.68
eigval :       87.49    92.11    99.25   104.94   113.23   141.84
eigval :      156.19   161.93   184.40   204.45   208.76   221.78
eigval :      228.57   239.45   245.81   269.04   294.55   304.45
eigval :      327.88   330.66   339.96   346.49   369.37   384.18
eigval :      386.64   395.43   403.81   408.90   415.48   416.83
eigval :      447.13   453.41   496.72   507.99   514.81   520.02
eigval :      525.52   531.43   538.15   539.83   548.49   566.29
eigval :      583.96   584.39   590.72   607.92   608.65   637.29
eigval :      656.63   666.06   673.70   685.28   688.88   697.52
eigval :      702.16   721.50   725.33   764.08   765.89   771.50
eigval :      776.14   777.88   779.35   825.42   837.75   848.15
eigval :      853.11   865.26   872.82   874.78   875.12   898.30
eigval :      907.34   909.70   913.36   915.61   916.72   917.64
eigval :      920.12   920.99   923.13   923.67   936.82   957.91
eigval :     1005.59  1013.21  1034.00  1069.45  1075.04  1080.49
eigval :     1096.93  1099.10  1103.66  1110.35  1114.75  1138.13
eigval :     1145.45  1148.23  1151.18  1166.86  1175.09  1177.01
eigval :     1178.33  1183.63  1184.32  1205.94  1223.13  1238.03
eigval :     1243.49  1247.17  1255.08  1258.89  1260.65  1279.68
eigval :     1283.53  1293.08  1295.78  1308.87  1313.41  1323.33
eigval :     1327.11  1334.18  1341.05  1355.69  1357.00  1389.64
eigval :     1397.19  1403.26  1415.87  1419.07  1422.33  1426.93
eigval :     1430.32  1458.18  1461.90  1464.64  1474.25  1482.47
eigval :     1482.96  1484.86  1492.77  1499.29  1517.22  1532.22
eigval :     1538.59  1549.29  1558.41  1572.65  1581.25  1581.39
eigval :     1591.69  1591.71  3026.06  3028.03  3046.03  3048.29
eigval :     3053.30  3057.16  3072.63  3073.53  3080.46  3080.83
eigval :     3081.09  3082.19  3085.10  3086.94  3088.54  3091.29
eigval :     3092.38  3093.76  3094.55  3097.07  3098.93  3100.42
eigval :     3101.57  3106.40  3110.07

   temp. (K)  partition function   enthalpy   heat capacity  entropy
                                   cal/mol     cal/K/mol   cal/K/mol   J/K/mol
 298.15  VIB  0.315E+12            16882.920    113.072    101.409
         ROT  0.289E+08              888.752      2.981     37.118
         INT  0.908E+19            17771.673    116.053    138.527
         TR   0.104E+29             1481.254      4.968     44.420
         TOT                       19252.9267   121.0215   182.9474   765.4519

       T/K    H(0)-H(T)+PV         H(T)/Eh          T*S/Eh         G(T)/Eh
   ------------------------------------------------------------------------
    298.15    0.306815E-01    0.518172E+00    0.869242E-01    0.431248E+00
   ------------------------------------------------------------------------

         :::::::::::::::::::::::::::::::::::::::::::::::::::::
         ::                  THERMODYNAMIC                  ::
         :::::::::::::::::::::::::::::::::::::::::::::::::::::
         :: total free energy         -96.090246888801 Eh   ::
         ::.................................................::
         :: total energy              -96.521494748509 Eh   ::
         :: zero point energy           0.487490576286 Eh   ::
         :: G(RRHO) w/o ZPVE           -0.056242716577 Eh   ::
         :: G(RRHO) contrib.            0.431247859709 Eh   ::
         :::::::::::::::::::::::::::::::::::::::::::::::::::::

           -------------------------------------------------
          | TOTAL ENERGY              -96.521494748509 Eh   |
          | TOTAL ENTHALPY            -96.003322680645 Eh   |
          | TOTAL FREE ENERGY         -96.090246888801 Eh   |
          | GRADIENT NORM               0.000043510406 Eh/α |
          | HOMO-LUMO GAP               1.050426756410 eV   |
           -------------------------------------------------

 * finished run on 2025/08/24 at 07:39:09.199
