   * xtb version 6.7.1 (edcfbbe) compiled by 'albert@albert-system' on 2024-07-22

   ID    Z sym.   atoms
    1    6 C      1-9, 11-15, 17-30, 32-38
    2    7 N      10, 16, 31
    3    1 H      39-63

          program call               : xtb data2507/toluene/α-DMAC-DBP/α-DMAC-DBP_toluene_S0_crest.xyz --gfn 2 --gbsa toluene --ohess vtight --parallel 40 --molden --ceasefiles --namespace data2507/toluene/α-DMAC-DBP/α-DMAC-DBP_toluene_S0_finalOpt
      * Solvation model:               GBSA
        Solvent                        toluene
        Solvent mass                       9.2140E+01 g/mol
          :  Hamiltonian                  GFN2-xTB          :
 * total energy  :   -96.5672098 Eh     change       -0.2405812E-08 Eh
 * total energy  :   -96.5672443 Eh     change       -0.3448185E-04 Eh
 * total energy  :   -96.5672640 Eh     change       -0.1964718E-04 Eh
 * total energy  :   -96.5672763 Eh     change       -0.1229709E-04 Eh
 * total energy  :   -96.5672965 Eh     change       -0.2026597E-04 Eh
 * total energy  :   -96.5673141 Eh     change       -0.1759670E-04 Eh
 * total energy  :   -96.5673311 Eh     change       -0.1694819E-04 Eh
 * total energy  :   -96.5673477 Eh     change       -0.1659800E-04 Eh
 * total energy  :   -96.5673623 Eh     change       -0.1463409E-04 Eh
 * total energy  :   -96.5673767 Eh     change       -0.1437903E-04 Eh
 * total energy  :   -96.5674917 Eh     change       -0.3742238E-05 Eh
 * total energy  :   -96.5674926 Eh     change       -0.8472172E-06 Eh
 * total energy  :   -96.5674943 Eh     change       -0.1762242E-05 Eh
 * total energy  :   -96.5674949 Eh     change       -0.5718469E-06 Eh
 * total energy  :   -96.5674952 Eh     change       -0.3530181E-06 Eh
 * total energy  :   -96.5674955 Eh     change       -0.2472437E-06 Eh
 * total energy  :   -96.5674956 Eh     change       -0.1582490E-06 Eh
 * total energy  :   -96.5674958 Eh     change       -0.1351275E-06 Eh
 * total energy  :   -96.5674959 Eh     change       -0.9019787E-07 Eh
   *** GEOMETRY OPTIMIZATION CONVERGED AFTER 29 ITERATIONS ***

 final structure:
================
63
 xtb: 6.7.1 (edcfbbe)
C           -5.22601376389447        1.86675959254565       -0.25242391032591
C           -3.79750962650897        1.53204809169224        0.21692112839999
C           -3.25361015806356        2.65664578328565        1.11818378472516
C           -3.82815779247717        0.24809715162489        1.02483675802320
C           -4.61983273624228        0.18621011156505        2.16441421889138
C           -4.65728821812415       -0.93150533364382        2.97689321741397
C           -3.86441957101520       -2.01937711255163        2.65986071118903
C           -3.06966980175254       -1.98476678498019        1.53293776200600
C           -3.05286594072508       -0.86857026708861        0.69114688302486
N           -2.26626835922365       -0.87061099840926       -0.45584973878554
C           -1.30122374777675       -1.88765787911963       -0.63928460131356
C           -1.64453223286835       -3.16746703790646       -0.99638706264177
C           -0.66383848541904       -4.16291181589835       -1.14983141854227
C            0.65983627266109       -3.88827339203662       -0.94942326916173
C            1.05614960465989       -2.58274561022807       -0.58852150710082
N            2.35293397423492       -2.30602964112584       -0.37924945309897
C            2.68359212674279       -1.07056378476815       -0.05038898240070
C            4.07126121738510       -0.75390986638196        0.20666280812899
C            5.03198336941531       -1.76687544798009        0.12817787533067
C            6.35699882445016       -1.50192079183820        0.38641566413967
C            6.73897020017305       -0.21013200843881        0.73128843190331
C            5.80271682462112        0.79856186336085        0.80853024613689
C            4.44791727420242        0.56188902816801        0.54602782219640
C            3.44298681526626        1.61582665805677        0.60817125832269
C            3.76225397842975        2.94964968594022        0.89024274271946
C            2.79203556702240        3.92806859785751        0.93204863383280
C            1.45936628473267        3.61346315001819        0.68840871553160
C            1.11428302267689        2.31155477423760        0.40910282001079
C            2.08841223637314        1.30924937604242        0.36957923590604
C            1.69391183319179       -0.04673528891442        0.06500007179305
N            0.41474561254371       -0.31373554093897       -0.11315587748582
C            0.06964910828352       -1.56547047314108       -0.43767240864168
C           -2.20837419625998        0.23389766725380       -1.29646439864672
C           -1.47840282729513        0.14918911699140       -2.48602037825076
C           -1.37856204904598        1.22767096184692       -3.33887823789173
C           -2.02594001491197        2.41076027882910       -3.02874011620175
C           -2.79136033663150        2.48013950342094       -1.87978621288189
C           -2.90797642641264        1.40767372080541       -1.00465451916065
H           -5.24288939917982        2.80017789504720       -0.80755356198199
H           -5.90112106601246        1.96332736255188        0.59296456883015
H           -5.59746750940888        1.07446546211081       -0.90022741019486
H           -3.90318356856391        2.81402268078449        1.97489558849743
H           -2.26311436466728        2.39071577248312        1.48365109968272
H           -3.17929410309450        3.59067236621204        0.56803933446695
H           -5.22305542856183        1.03887558687686        2.43640907945645
H           -5.28747328485834       -0.94653750271275        3.85334067731488
H           -3.85856024340681       -2.89758060910490        3.28895976383135
H           -2.44473071458618       -2.83510106605278        1.30786722821016
H           -2.68388414660268       -3.41170956932847       -1.16132784203678
H           -0.97404563359489       -5.15757776723992       -1.43290830053006
H            1.42267723028307       -4.64322022187314       -1.05846286121262
H            4.69796693610212       -2.75789975447836       -0.13724268719203
H            7.09317772091598       -2.28916213115458        0.32446838689108
H            7.77614541168255        0.00666326553696        0.94087164357395
H            6.13604555505050        1.78651289812375        1.08138149621424
H            4.78503959136159        3.23453287012701        1.07626394618966
H            3.07237962266191        4.94781818654039        1.15181274873417
H            0.70416956500701        4.38434423397137        0.71538115570098
H            0.09286705259053        2.02908300099846        0.20605228867916
H           -0.98288917887327       -0.77613342687497       -2.74210760355690
H           -0.79902259756010        1.14026436680128       -4.24654371047555
H           -1.94874418217983        3.26613513171502       -3.68292187317981
H           -3.30948933231644        3.40169306987894       -1.66152684899803

          :  Hamiltonian                  GFN2-xTB          :
         :: gradient norm              0.000046673012 Eh/a0 ::
         :: HOMO-LUMO gap              1.034503739213 eV    ::
         :: SCC energy               -98.323762113195 Eh    ::
         :: -> dispersion             -0.091924433025 Eh    ::
         :: -> Gsolv                  -0.038988715387 Eh    ::
         :: repulsion energy           1.756266241276 Eh    ::

    * Orbital Energies and Occupations

         #    Occupation            Energy/Eh            Energy/eV
      -------------------------------------------------------------
         1        2.0000           -0.6818042             -18.5528
       ...           ...                  ...                  ...
        78        2.0000           -0.4226573             -11.5011
        79        2.0000           -0.4216814             -11.4745
        80        2.0000           -0.4162682             -11.3272
        81        2.0000           -0.4110647             -11.1856
        82        2.0000           -0.4072511             -11.0819
        83        2.0000           -0.4033850             -10.9767
        84        2.0000           -0.4024113             -10.9502
        85        2.0000           -0.3978296             -10.8255
        86        2.0000           -0.3968291             -10.7983
        87        2.0000           -0.3927527             -10.6873
        88        2.0000           -0.3921446             -10.6708
        89        2.0000           -0.3594004              -9.7798
        90        2.0000           -0.3458795              -9.4119 (HOMO)
        91                         -0.3078622              -8.3774 (LUMO)
        92                         -0.2706912              -7.3659
        93                         -0.2567567              -6.9867
        94                         -0.2314627              -6.2984
        95                         -0.2238145              -6.0903
        96                         -0.2231181              -6.0714
        97                         -0.2190646              -5.9611
        98                         -0.2179329              -5.9303
        99                         -0.2086095              -5.6766
       100                         -0.1995146              -5.4291
       101                         -0.1900675              -5.1720
       ...                                ...                  ...
       177                          0.7086056              19.2821
      -------------------------------------------------------------
                  HL-Gap            0.0380173 Eh            1.0345 eV

     #   Z          covCN         q      C6AA      α(0)
     1   6 C        3.761    -0.105    22.560     6.771
     2   6 C        3.909     0.021    20.162     6.382
     3   6 C        3.761    -0.103    22.515     6.764
     4   6 C        2.979    -0.013    28.321     8.729
     5   6 C        2.928    -0.038    28.941     8.822
     6   6 C        2.917    -0.046    29.145     8.853
     7   6 C        2.920    -0.035    28.879     8.813
     8   6 C        2.924    -0.061    29.515     8.909
     9   6 C        2.925     0.061    26.642     8.465
    10   7 N        2.753    -0.067    22.540     7.051
    11   6 C        2.926     0.059    26.669     8.469
    12   6 C        2.917    -0.047    29.158     8.855
    13   6 C        2.916    -0.030    28.758     8.794
    14   6 C        2.916    -0.050    29.247     8.868
    15   6 C        2.963     0.079    26.228     8.400
    16   7 N        1.848    -0.263    27.679     7.797
    17   6 C        2.958     0.087    26.064     8.374
    18   6 C        2.987    -0.007    28.196     8.710
    19   6 C        2.924    -0.028    28.692     8.784
    20   6 C        2.916    -0.028    28.702     8.785
    21   6 C        2.918    -0.026    28.645     8.777
    22   6 C        2.922    -0.034    28.839     8.807
    23   6 C        2.975     0.005    27.898     8.664
    24   6 C        2.975     0.005    27.906     8.665
    25   6 C        2.922    -0.034    28.843     8.807
    26   6 C        2.918    -0.026    28.646     8.777
    27   6 C        2.916    -0.028    28.693     8.784
    28   6 C        2.924    -0.026    28.657     8.779
    29   6 C        2.989    -0.007    28.190     8.709
    30   6 C        2.962     0.088    26.045     8.371
    31   7 N        1.849    -0.259    27.599     7.786
    32   6 C        2.969     0.084    26.135     8.386
    33   6 C        2.932     0.068    26.482     8.439
    34   6 C        2.925    -0.053    29.313     8.879
    35   6 C        2.919    -0.036    28.885     8.813
    36   6 C        2.917    -0.045    29.129     8.850
    37   6 C        2.928    -0.038    28.944     8.823
    38   6 C        2.979    -0.012    28.315     8.728
    39   1 H        0.925     0.044     2.399     2.422
    40   1 H        0.925     0.043     2.404     2.425
    41   1 H        0.925     0.031     2.579     2.511
    42   1 H        0.925     0.043     2.414     2.430
    43   1 H        0.925     0.031     2.576     2.510
    44   1 H        0.925     0.043     2.403     2.424
    45   1 H        0.926     0.036     2.504     2.475
    46   1 H        0.926     0.028     2.612     2.528
    47   1 H        0.926     0.027     2.626     2.534
    48   1 H        0.926     0.020     2.730     2.584
    49   1 H        0.926     0.053     2.278     2.360
    50   1 H        0.926     0.054     2.268     2.355
    51   1 H        0.926     0.056     2.247     2.344
    52   1 H        0.926     0.055     2.263     2.353
    53   1 H        0.926     0.044     2.400     2.422
    54   1 H        0.926     0.045     2.386     2.416
    55   1 H        0.926     0.047     2.361     2.403
    56   1 H        0.926     0.047     2.361     2.403
    57   1 H        0.926     0.045     2.382     2.414
    58   1 H        0.926     0.044     2.393     2.419
    59   1 H        0.926     0.052     2.294     2.368
    60   1 H        0.926     0.012     2.864     2.646
    61   1 H        0.926     0.024     2.668     2.554
    62   1 H        0.926     0.028     2.609     2.526
    63   1 H        0.926     0.036     2.499     2.472

molecular dipole:
                 x           y           z       tot (Debye)
 q only:        0.516       0.657       0.231
   full:        0.581       0.499       0.196       2.009

 projected vibrational frequencies (cm⁻¹)
eigval :       -0.00    -0.00     0.00     0.00     0.00     0.00
eigval :       16.49    19.19    26.07    42.21    60.08    69.00
eigval :       87.20    93.35    95.58   105.39   113.78   144.22
eigval :      156.81   158.12   197.30   206.67   211.17   223.06
eigval :      229.06   242.57   246.43   281.23   285.77   305.71
eigval :      332.81   334.76   337.07   348.34   370.21   384.17
eigval :      391.60   394.78   401.03   402.65   411.39   414.69
eigval :      450.36   453.71   494.20   507.11   515.62   520.91
eigval :      533.15   537.86   541.76   546.74   549.31   569.73
eigval :      584.52   586.47   595.38   610.94   624.30   661.51
eigval :      673.71   679.67   683.80   686.84   696.10   702.31
eigval :      723.22   736.82   766.03   767.01   769.96   776.79
eigval :      778.19   788.87   803.77   825.14   841.97   857.18
eigval :      866.37   867.82   870.12   879.19   894.93   912.19
eigval :      913.46   914.28   916.57   919.59   920.80   921.21
eigval :      926.37   927.44   929.37   933.31   938.00   956.86
eigval :     1013.99  1014.47  1046.00  1069.60  1076.67  1083.71
eigval :     1090.06  1101.51  1112.38  1119.04  1119.50  1139.30
eigval :     1142.84  1148.37  1158.52  1167.22  1177.46  1178.47
eigval :     1179.79  1186.05  1187.58  1208.08  1232.60  1241.91
eigval :     1247.10  1249.88  1259.36  1266.53  1280.63  1289.83
eigval :     1293.37  1294.68  1309.66  1322.45  1322.96  1329.32
eigval :     1333.18  1335.44  1348.89  1364.61  1389.15  1398.54
eigval :     1417.51  1424.51  1425.33  1433.82  1437.19  1437.57
eigval :     1459.44  1475.70  1475.99  1486.89  1487.48  1487.94
eigval :     1493.11  1496.61  1503.38  1505.11  1533.73  1553.81
eigval :     1566.96  1573.54  1584.37  1588.53  1590.33  1592.42
eigval :     1596.96  1600.66  3022.46  3025.09  3039.02  3043.02
eigval :     3047.10  3053.38  3068.10  3072.40  3076.83  3077.95
eigval :     3078.50  3080.72  3081.95  3083.32  3088.23  3089.25
eigval :     3091.57  3091.73  3092.95  3099.68  3103.07  3103.11
eigval :     3104.81  3105.13  3113.36

   temp. (K)  partition function   enthalpy   heat capacity  entropy
                                   cal/mol     cal/K/mol   cal/K/mol   J/K/mol
 298.15  VIB  0.315E+12            16766.310    112.057    100.818
         ROT  0.293E+08              888.752      2.981     37.146
         INT  0.923E+19            17655.063    115.038    137.964
         TR   0.104E+29             1481.254      4.968     44.420
         TOT                       19136.3167   120.0061   182.3845   763.0966

       T/K    H(0)-H(T)+PV         H(T)/Eh          T*S/Eh         G(T)/Eh
   ------------------------------------------------------------------------
    298.15    0.304957E-01    0.520259E+00    0.866567E-01    0.433602E+00
   ------------------------------------------------------------------------

         :::::::::::::::::::::::::::::::::::::::::::::::::::::
         ::                  THERMODYNAMIC                  ::
         :::::::::::::::::::::::::::::::::::::::::::::::::::::
         :: total free energy         -96.133893910262 Eh   ::
         ::.................................................::
         :: total energy              -96.567495867089 Eh   ::
         :: zero point energy           0.489763038401 Eh   ::
         :: G(RRHO) w/o ZPVE           -0.056161081574 Eh   ::
         :: G(RRHO) contrib.            0.433601956827 Eh   ::
         :::::::::::::::::::::::::::::::::::::::::::::::::::::

           -------------------------------------------------
          | TOTAL ENERGY              -96.567495867089 Eh   |
          | TOTAL ENTHALPY            -96.047237166880 Eh   |
          | TOTAL FREE ENERGY         -96.133893910262 Eh   |
          | GRADIENT NORM               0.000046653578 Eh/α |
          | HOMO-LUMO GAP               1.034502055801 eV   |
           -------------------------------------------------

 * finished run on 2025/08/24 at 07:39:04.259
