   * xtb version 6.7.1 (edcfbbe) compiled by 'albert@albert-system' on 2024-07-22

   ID    Z sym.   atoms
    1    6 C      1-9, 11-15, 17-30, 32-38
    2    7 N      10, 16, 31
    3    1 H      39-63

          program call               : xtb data2507/toluene/α-DMAC-DBP/α-DMAC-DBP_toluene_T1_crest.xyz --gfn 2 --uhf 2 --gbsa toluene --ohess vtight --parallel 40 --molden --ceasefiles --namespace data2507/toluene/α-DMAC-DBP/α-DMAC-DBP_toluene_T1_finalOpt
      * Solvation model:               GBSA
        Solvent                        toluene
        Solvent mass                       9.2140E+01 g/mol
          :  Hamiltonian                  GFN2-xTB          :
 * total energy  :   -96.5212342 Eh     change       -0.4266823E-08 Eh
 * total energy  :   -96.5212964 Eh     change       -0.6227773E-04 Eh
 * total energy  :   -96.5213304 Eh     change       -0.3391467E-04 Eh
 * total energy  :   -96.5213445 Eh     change       -0.1415159E-04 Eh
 * total energy  :   -96.5213586 Eh     change       -0.1411521E-04 Eh
 * total energy  :   -96.5213744 Eh     change       -0.1575224E-04 Eh
 * total energy  :   -96.5213911 Eh     change       -0.1675184E-04 Eh
 * total energy  :   -96.5214058 Eh     change       -0.1472060E-04 Eh
 * total energy  :   -96.5214177 Eh     change       -0.1180629E-04 Eh
 * total energy  :   -96.5214286 Eh     change       -0.1093929E-04 Eh
 * total energy  :   -96.5215242 Eh     change       -0.9104617E-06 Eh
 * total energy  :   -96.5215246 Eh     change       -0.4635511E-06 Eh
 * total energy  :   -96.5215248 Eh     change       -0.1779902E-06 Eh
 * total energy  :   -96.5215250 Eh     change       -0.1985227E-06 Eh
 * total energy  :   -96.5215252 Eh     change       -0.1750922E-06 Eh
 * total energy  :   -96.5215253 Eh     change       -0.1112250E-06 Eh
 * total energy  :   -96.5215252 Eh     change        0.4915317E-07 Eh
 * total energy  :   -96.5215254 Eh     change       -0.1718152E-06 Eh
 * total energy  :   -96.5215254 Eh     change       -0.4017518E-07 Eh
   *** GEOMETRY OPTIMIZATION CONVERGED AFTER 31 ITERATIONS ***

 final structure:
================
63
 xtb: 6.7.1 (edcfbbe)
C           -5.11708764617273        1.98483114976862        0.25888278243525
C           -3.71475061279661        1.58485783488717       -0.23961031392639
C           -3.16261339132512        2.65755237272481       -1.19891537653245
C           -2.79401722504739        1.47677412612116        0.95628843708704
C           -2.58357329363895        2.58647294628790        1.76409409677754
C           -1.77983149012876        2.53317767378969        2.88794736133039
C           -1.18677350298793        1.33236619374981        3.24495432412391
C           -1.37837383443853        0.21678295661778        2.46162656278512
C           -2.15304806040832        0.27668951869401        1.29401163787296
N           -2.29761314369607       -0.86222046453241        0.52271962114651
C           -1.35126695285955       -1.90169950989118        0.70962598580984
C           -1.72266569975057       -3.18527973472360        1.09092001370331
C           -0.76880215624197       -4.18386147576685        1.19743558321091
C            0.56398148770252       -3.91976304744649        0.92286697104519
C            0.97595510544162       -2.64067232095260        0.55131352121623
N            2.25245594017022       -2.33845612093964        0.30036923495348
C            2.63367876288896       -1.09693175301422        0.01242128063664
C            4.00604688818026       -0.79405915213960       -0.25841335921757
C            4.95576917145190       -1.82825639436653       -0.21607674030670
C            6.27769208761320       -1.58184317247017       -0.48268443387597
C            6.68548144566659       -0.28529607302494       -0.79992638037177
C            5.77120480780655        0.74001222850214       -0.84176374275654
C            4.41062760238492        0.52588403008443       -0.57175773169876
C            3.42902388541354        1.58580123137160       -0.59694759309743
C            3.75085934421171        2.92447981145799       -0.86883769241946
C            2.79193572662652        3.90938164821826       -0.87299754421476
C            1.45832919835300        3.59974166536152       -0.59970588152326
C            1.10705919447692        2.30205016519980       -0.33394189477926
C            2.07280944604143        1.28156726221123       -0.33085315706457
C            1.66821753698443       -0.05766626379809       -0.04532997954014
N            0.38760914716256       -0.34885487784493        0.17300378883366
C           -0.00171350883527       -1.58620029090401        0.45879344879077
C           -3.08116430725128       -0.86106733512898       -0.62335522841135
C           -3.15715704551048       -2.01246839415659       -1.41766896150357
C           -3.96719309573964       -2.05746520551876       -2.53110987946884
C           -4.71790182666973       -0.94763060768861       -2.88278995273151
C           -4.62357790800390        0.20127088096809       -2.12043370328259
C           -3.81134060998317        0.27656343875932       -0.99582343539071
H           -5.50326869448784        1.22076463708173        0.93111562334677
H           -5.80694981736865        2.09197488058131       -0.57282254041368
H           -5.08062666740084        2.92823794709211        0.79543932633331
H           -2.18328791403551        2.35654781596882       -1.56706366694393
H           -3.82302983414714        2.78979106442951       -2.05089057030971
H           -3.06209158638539        3.61320761133260       -0.69296534530662
H           -3.05634006943690        3.52321472691354        1.51273300093931
H           -1.62786430683017        3.41735418664871        3.48792195132604
H           -0.57680340886948        1.26479932607087        4.13329990437759
H           -0.92838060776106       -0.72091052658016        2.75011582423424
H           -2.76039616104975       -3.38817764046842        1.30878703293452
H           -1.06399822241467       -5.17690342995916        1.49931040892062
H            1.31386118207917       -4.68954867873790        1.01801054241358
H            4.60782616813163       -2.82055079582031        0.02930056221601
H            6.99981558124097       -2.38425856102364       -0.44976676230575
H            7.72562674966757       -0.08710091674119       -1.01385244528008
H            6.11927099890541        1.72981736986579       -1.09061785405831
H            4.77239530793485        3.19988815512286       -1.07760687427158
H            3.07283288816205        4.93067596030765       -1.08528340572911
H            0.71156490721809        4.37970050176015       -0.59630633168804
H            0.08666734709746        2.02902514402307       -0.11038861254377
H           -2.56630834874654       -2.87690997345660       -1.16054382609621
H           -4.00883471565535       -2.95865809220431       -3.12432162935988
H           -5.35949286861828       -0.97245031124660       -3.75032683775559
H           -5.19597291951393        1.06565274046482       -2.41892733923491

          :  Hamiltonian                  GFN2-xTB          :
         :: gradient norm              0.000130551607 Eh/a0 ::
         :: HOMO-LUMO gap              1.050787805518 eV    ::
         :: SCC energy               -98.278907862896 Eh    ::
         :: -> dispersion             -0.092618647792 Eh    ::
         :: -> Gsolv                  -0.039397039383 Eh    ::
         :: repulsion energy           1.757382412091 Eh    ::

    * Orbital Energies and Occupations

         #    Occupation            Energy/Eh            Energy/eV
      -------------------------------------------------------------
         1        2.0000           -0.6781478             -18.4533
       ...           ...                  ...                  ...
        79        2.0000           -0.4204323             -11.4405
        80        2.0000           -0.4150406             -11.2938
        81        2.0000           -0.4141129             -11.2686
        82        2.0000           -0.4120163             -11.2115
        83        2.0000           -0.4111899             -11.1890
        84        2.0000           -0.4077753             -11.0961
        85        2.0000           -0.4021756             -10.9438
        86        2.0000           -0.3945118             -10.7352
        87        2.0000           -0.3887533             -10.5785
        88        2.0000           -0.3828078             -10.4167
        89        1.9975           -0.3619057              -9.8480
        90        1.0025           -0.3505460              -9.5388
        91        1.0000           -0.3016423              -8.2081 (HOMO)
        92                         -0.2630266              -7.1573 (LUMO)
        93                         -0.2489095              -6.7732
        94                         -0.2357359              -6.4147
        95                         -0.2289747              -6.2307
        96                         -0.2283260              -6.2131
        97                         -0.2220132              -6.0413
        98                         -0.2139320              -5.8214
        99                         -0.2033564              -5.5336
       100                         -0.1952866              -5.3140
       101                         -0.1905445              -5.1850
       102                         -0.1471614              -4.0045
       ...                                ...                  ...
       177                          0.7118140              19.3694
      -------------------------------------------------------------
                  HL-Gap            0.0386157 Eh            1.0508 eV

     #   Z          covCN         q      C6AA      α(0)
     1   6 C        3.761    -0.108    22.605     6.778
     2   6 C        3.909     0.023    20.127     6.377
     3   6 C        3.761    -0.105    22.551     6.770
     4   6 C        2.979    -0.004    28.108     8.697
     5   6 C        2.926    -0.035    28.866     8.811
     6   6 C        2.918    -0.034    28.853     8.808
     7   6 C        2.918    -0.031    28.765     8.795
     8   6 C        2.924    -0.042    29.048     8.839
     9   6 C        2.933     0.069    26.453     8.435
    10   7 N        2.754    -0.036    21.947     6.958
    11   6 C        2.931     0.030    27.334     8.574
    12   6 C        2.914    -0.054    29.345     8.883
    13   6 C        2.915    -0.042    29.046     8.838
    14   6 C        2.917    -0.067    29.659     8.931
    15   6 C        2.938     0.085    26.114     8.381
    16   7 N        1.849    -0.255    27.481     7.769
    17   6 C        2.940     0.081    26.202     8.395
    18   6 C        2.987    -0.010    28.260     8.720
    19   6 C        2.923    -0.031    28.771     8.796
    20   6 C        2.916    -0.033    28.828     8.804
    21   6 C        2.917    -0.033    28.818     8.803
    22   6 C        2.921    -0.036    28.887     8.814
    23   6 C        2.976    -0.003    28.086     8.693
    24   6 C        2.976    -0.003    28.092     8.694
    25   6 C        2.920    -0.036    28.885     8.813
    26   6 C        2.917    -0.033    28.825     8.804
    27   6 C        2.916    -0.033    28.826     8.804
    28   6 C        2.923    -0.030    28.761     8.795
    29   6 C        2.987    -0.011    28.273     8.722
    30   6 C        2.945     0.080    26.222     8.399
    31   7 N        1.849    -0.255    27.485     7.770
    32   6 C        2.947     0.089    26.030     8.368
    33   6 C        2.928     0.061    26.631     8.463
    34   6 C        2.923    -0.053    29.307     8.878
    35   6 C        2.919    -0.031    28.777     8.797
    36   6 C        2.917    -0.037    28.914     8.818
    37   6 C        2.927    -0.035    28.874     8.812
    38   6 C        2.979    -0.005    28.146     8.703
    39   1 H        0.925     0.035     2.511     2.478
    40   1 H        0.925     0.050     2.320     2.382
    41   1 H        0.925     0.050     2.324     2.384
    42   1 H        0.925     0.034     2.534     2.489
    43   1 H        0.925     0.049     2.332     2.388
    44   1 H        0.925     0.049     2.327     2.386
    45   1 H        0.926     0.047     2.353     2.399
    46   1 H        0.926     0.041     2.438     2.442
    47   1 H        0.926     0.035     2.511     2.478
    48   1 H        0.926     0.027     2.624     2.533
    49   1 H        0.926     0.043     2.405     2.425
    50   1 H        0.926     0.040     2.450     2.448
    51   1 H        0.926     0.042     2.418     2.432
    52   1 H        0.926     0.042     2.425     2.435
    53   1 H        0.926     0.035     2.510     2.477
    54   1 H        0.926     0.036     2.509     2.477
    55   1 H        0.926     0.038     2.473     2.459
    56   1 H        0.926     0.037     2.484     2.464
    57   1 H        0.926     0.036     2.507     2.476
    58   1 H        0.926     0.037     2.486     2.466
    59   1 H        0.926     0.039     2.455     2.450
    60   1 H        0.926     0.035     2.517     2.481
    61   1 H        0.926     0.037     2.485     2.465
    62   1 H        0.926     0.039     2.457     2.451
    63   1 H        0.926     0.046     2.369     2.407

molecular dipole:
                 x           y           z       tot (Debye)
 q only:       -1.640       1.156      -0.140
   full:       -1.502       0.991      -0.099       4.580

 projected vibrational frequencies (cm⁻¹)
eigval :       -0.00    -0.00     0.00     0.00     0.00     0.00
eigval :       17.64    21.63    29.45    42.56    64.15    72.51
eigval :       88.58    91.73   101.19   107.42   113.85   137.17
eigval :      156.51   163.84   185.00   201.73   208.07   221.59
eigval :      228.61   240.08   245.81   269.94   294.79   304.46
eigval :      327.88   330.80   340.00   346.38   369.18   384.13
eigval :      386.75   395.52   403.93   409.64   416.26   417.40
eigval :      447.61   453.75   496.96   508.00   515.35   521.28
eigval :      526.44   531.45   538.13   539.62   548.71   566.37
eigval :      583.75   584.47   590.90   608.09   608.35   637.72
eigval :      656.59   666.30   674.52   684.89   688.83   697.53
eigval :      702.25   721.56   725.87   764.86   766.21   772.72
eigval :      776.78   778.89   780.23   825.21   837.81   848.08
eigval :      853.68   866.64   873.72   875.10   876.06   901.81
eigval :      908.23   909.63   914.10   914.53   915.43   917.90
eigval :      921.96   922.47   923.77   924.35   936.58   957.55
eigval :     1005.69  1012.82  1033.98  1069.45  1074.89  1081.37
eigval :     1097.54  1099.40  1103.29  1110.31  1114.85  1137.25
eigval :     1146.34  1149.83  1151.15  1166.49  1174.53  1178.08
eigval :     1179.79  1182.56  1183.85  1205.64  1223.88  1237.52
eigval :     1242.92  1247.99  1255.55  1259.20  1261.57  1280.15
eigval :     1283.26  1292.95  1295.80  1308.82  1313.47  1323.61
eigval :     1327.00  1334.18  1340.86  1355.73  1356.86  1390.01
eigval :     1397.22  1403.46  1415.69  1419.05  1422.34  1427.21
eigval :     1430.27  1457.85  1461.87  1464.94  1474.50  1482.29
eigval :     1482.97  1484.31  1492.69  1498.58  1516.85  1532.47
eigval :     1538.48  1549.52  1558.27  1572.55  1581.26  1581.53
eigval :     1591.61  1591.81  3026.04  3028.03  3045.63  3048.14
eigval :     3052.96  3057.02  3072.96  3073.86  3080.18  3081.22
eigval :     3081.26  3082.54  3085.05  3086.53  3087.63  3091.23
eigval :     3092.75  3092.89  3094.45  3098.06  3099.10  3100.19
eigval :     3101.48  3106.73  3110.84

   temp. (K)  partition function   enthalpy   heat capacity  entropy
                                   cal/mol     cal/K/mol   cal/K/mol   J/K/mol
 298.15  VIB  0.233E+12            16861.665    113.116    101.084
         ROT  0.288E+08              888.752      2.981     37.114
         INT  0.672E+19            17750.417    116.097    138.198
         TR   0.104E+29             1481.254      4.968     44.420
         TOT                       19231.6714   121.0647   182.6186   764.0761

       T/K    H(0)-H(T)+PV         H(T)/Eh          T*S/Eh         G(T)/Eh
   ------------------------------------------------------------------------
    298.15    0.306476E-01    0.518227E+00    0.867680E-01    0.431459E+00
   ------------------------------------------------------------------------

         :::::::::::::::::::::::::::::::::::::::::::::::::::::
         ::                  THERMODYNAMIC                  ::
         :::::::::::::::::::::::::::::::::::::::::::::::::::::
         :: total free energy         -96.090066470779 Eh   ::
         ::.................................................::
         :: total energy              -96.521525455683 Eh   ::
         :: zero point energy           0.487579340957 Eh   ::
         :: G(RRHO) w/o ZPVE           -0.056120356053 Eh   ::
         :: G(RRHO) contrib.            0.431458984904 Eh   ::
         :::::::::::::::::::::::::::::::::::::::::::::::::::::

           -------------------------------------------------
          | TOTAL ENERGY              -96.521525455683 Eh   |
          | TOTAL ENTHALPY            -96.003298495530 Eh   |
          | TOTAL FREE ENERGY         -96.090066470779 Eh   |
          | GRADIENT NORM               0.000132499736 Eh/α |
          | HOMO-LUMO GAP               1.050786483357 eV   |
           -------------------------------------------------

 * finished run on 2025/08/24 at 07:42:24.455
