   * xtb version 6.7.1 (edcfbbe) compiled by 'albert@albert-system' on 2024-07-22

   ID    Z sym.   atoms
    1    8 O      1, 3, 15, 47
    2   16 S      2
    3    6 C      4-7, 9-14, 16-39, 41-46, 48-56
    4    7 N      8, 40
    5    1 H      57-86

          program call               : xtb data2507/toluene/SPFS-PXZ/SPFS-PXZ_toluene_S0_finalOpt.xtbopt.xyz --gfn 2 --uhf 2 --gbsa toluene --ohess vtight --parallel 40 --molden --ceasefiles --namespace data2507/toluene/SPFS-PXZ/SPFS-PXZ_toluene_T1_preOpt
      * Solvation model:               GBSA
        Solvent                        toluene
        Solvent mass                       9.2140E+01 g/mol
          :  Hamiltonian                  GFN2-xTB          :
 * total energy  :  -145.6087087 Eh     change       -0.4857554E-08 Eh
 * total energy  :  -145.6114203 Eh     change       -0.2711578E-02 Eh
 * total energy  :  -145.6121556 Eh     change       -0.7352913E-03 Eh
 * total energy  :  -145.6122636 Eh     change       -0.1080328E-03 Eh
 * total energy  :  -145.6123807 Eh     change       -0.1170845E-03 Eh
 * total energy  :  -145.6124345 Eh     change       -0.5382512E-04 Eh
 * total energy  :  -145.6124930 Eh     change       -0.5849737E-04 Eh
 * total energy  :  -145.6125430 Eh     change       -0.4994028E-04 Eh
 * total energy  :  -145.6125815 Eh     change       -0.3847096E-04 Eh
 * total energy  :  -145.6126159 Eh     change       -0.3449539E-04 Eh
 * total energy  :  -145.6126985 Eh     change       -0.4697124E-06 Eh
 * total energy  :  -145.6126987 Eh     change       -0.2011212E-06 Eh
 * total energy  :  -145.6126988 Eh     change       -0.1081708E-06 Eh
 * total energy  :  -145.6126989 Eh     change       -0.1126193E-06 Eh
 * total energy  :  -145.6126990 Eh     change       -0.1335489E-06 Eh
 * total energy  :  -145.6126992 Eh     change       -0.2229799E-06 Eh
 * total energy  :  -145.6126994 Eh     change       -0.1917110E-06 Eh
 * total energy  :  -145.6126996 Eh     change       -0.1645874E-06 Eh
 * total energy  :  -145.6126996 Eh     change       -0.4939409E-08 Eh
   *** GEOMETRY OPTIMIZATION CONVERGED AFTER 44 ITERATIONS ***

 final structure:
================
86
 xtb: 6.7.1 (edcfbbe)
O           -0.00281564525587        4.12272434773309        0.90407844216085
S           -0.00055786293544        2.94769032525183        1.77252034028531
O            0.00126392112790        3.26564606709314        3.19157822203394
C           -1.38135932386658        1.92509390509097        1.39572492884517
C           -2.58344516699301        2.18423611282076        2.06300865045932
C           -3.71358119378426        1.46452204857281        1.76849729223356
C           -3.64691522702065        0.46947384244736        0.78376818592402
N           -4.80760281344133       -0.26643600200925        0.43861994776377
C           -4.90191523212137       -1.61402263508250        0.74600845910222
C           -3.87369674933393       -2.30980162564074        1.38289795644737
C           -4.00852443440041       -3.65287303493413        1.67371537935257
C           -5.17721204425711       -4.33334469601096        1.34802469121486
C           -6.21808185092046       -3.65822840438930        0.73746436049491
C           -6.09244354055803       -2.30939098220836        0.43793462134550
O           -7.16146513786619       -1.69224686882765       -0.14180026851602
C           -7.05137487605396       -0.36805260394298       -0.44817409929742
C           -8.14010362896981        0.24405054879966       -1.04991051802124
C           -8.07660109372965        1.57928862907179       -1.40596488658357
C           -6.91075532140106        2.30276829399664       -1.17230459371402
C           -5.82221900333453        1.70492340033995       -0.57036660502857
C           -5.87320469887996        0.36511791841642       -0.17945814266054
C           -2.43383797555339        0.19511324642050        0.14065523840141
C           -1.28369172863613        0.90230285570179        0.44499743901824
C           -0.00162114951902        0.56306059932408       -0.28567538424496
C           -0.00439684705223        1.23346553598168       -1.65674714910896
C           -0.00570411381801        2.57853187625155       -1.94998961191176
C           -0.00837327183683        2.96264330409111       -3.28708732733242
C           -0.00977361439311        2.01450424353107       -4.30067222854245
C           -0.00846359174397        0.66104326141536       -4.00776900233239
C           -0.00572784114994        0.26780195199417       -2.67727732937036
C           -0.00374588660307       -1.05265352239950       -2.07497168117122
C           -0.00398359216996       -2.32021393828627       -2.64123325841570
C           -0.00155418327407       -3.42283774552242       -1.80278552509044
C            0.00110938717968       -3.27123606022754       -0.42326524234262
C            0.00128975012849       -2.00475350892771        0.15024984171703
C           -0.00113614382052       -0.90495460097533       -0.67908280680165
C            1.28204050439850        0.90445020695793        0.44114770487689
C            2.43247915012915        0.19926645447545        0.13330615754514
C            3.64706676015101        0.47574999892371        0.77269228076649
N            4.80812884103949       -0.25774501353177        0.42370994044126
C            4.90594273306591       -1.60539470044275        0.72974067520061
C            3.88071283157437       -2.30386633241505        1.36851983452468
C            4.01904376340044       -3.64689256314549        1.65788105059325
C            5.18841878749744       -4.32463997090767        1.32889780596951
C            6.22643520183233       -3.64683441300083        0.71648715438695
C            6.09722976844717       -2.29802517316097        0.41830331301760
O            7.16357387214848       -1.67818904640923       -0.16343765126021
C            7.04982448099065       -0.35413523620250       -0.46899424589630
C            8.13566947266824        0.26058065555611       -1.07328037003373
C            8.06832132117067        1.59579868184196       -1.42867780538549
C            6.90146940519874        2.31664275389450       -1.19175711371410
C            5.81580875592245        1.71620564700195       -0.58724849659914
C            5.87071336039739        0.37635298252262       -0.19695741204972
C            3.71496369057715        1.47088076438367        1.75728601937872
C            2.58446933147235        2.18857759929417        2.05528966996825
C            1.38080229051460        1.92739284953758        1.39162739660194
H           -2.58157370559245        2.96461689444738        2.80784572928831
H           -4.64564836303941        1.65841213592753        2.27688873965434
H           -2.97171923453265       -1.78367185280827        1.64909262029679
H           -3.20050854421205       -4.17211156540635        2.16401799125099
H           -5.27934048535754       -5.38192640327382        1.57721648025424
H           -7.14292023663500       -4.15292003765019        0.48682044419007
H           -9.02308522658679       -0.34737800274654       -1.23303257328300
H           -8.92618332152074        2.05179335812182       -1.87202553578826
H           -6.85024016960939        3.33925149369444       -1.46503149534898
H           -4.91777602574016        2.26720559869752       -0.40088663546293
H           -2.41142132376195       -0.57965568158053       -0.61041354194880
H           -0.00469402929701        3.31864663368668       -1.16288301499041
H           -0.00939723911660        4.01400726974713       -3.53552630462440
H           -0.01187611475717        2.33857768693844       -5.33162012125380
H           -0.00955507373771       -0.07330036371723       -4.79960074270142
H           -0.00599927528967       -2.44389466248931       -3.71378749527869
H           -0.00169884557265       -4.41598736495232       -2.22802619916022
H            0.00301319457460       -4.14529070704290        0.21019801700392
H            0.00330235380043       -1.88285713608985        1.22392479811962
H            2.40913865484695       -0.57551636914162       -0.61770846154384
H            2.97828447565885       -1.77985796848178        1.63734666035357
H            3.21326891921644       -4.16825606629031        2.14961666125262
H            5.29327887253840       -5.37319635009898        1.55696910126277
H            7.15173526705332       -4.13935263040464        0.46327771100950
H            9.01946230227275       -0.32885497619366       -1.25889935248295
H            8.91561483072383        2.07036198336861       -1.89679923890210
H            6.83794896644326        3.35308436446159       -1.48399870816877
H            4.91057542920495        2.27644969510634       -0.41526621680574
H            4.64823319386723        1.66642797406220        2.26283419080318
H            2.58351594927494        2.96893077277150        2.80016167467988

          :  Hamiltonian                  GFN2-xTB          :
         :: gradient norm              0.000033293400 Eh/a0 ::
         :: HOMO-LUMO gap              0.070844252964 eV    ::
         :: SCC energy              -148.049081342360 Eh    ::
         :: -> dispersion             -0.136737744620 Eh    ::
         :: -> Gsolv                  -0.068760052605 Eh    ::
         :: repulsion energy           2.436381741901 Eh    ::

    * Orbital Energies and Occupations

         #    Occupation            Energy/Eh            Energy/eV
      -------------------------------------------------------------
         1        2.0000           -0.7585332             -20.6407
       ...           ...                  ...                  ...
       122        2.0000           -0.4170103             -11.3474
       123        2.0000           -0.4148178             -11.2878
       124        2.0000           -0.4138982             -11.2627
       125        2.0000           -0.4049472             -11.0192
       126        2.0000           -0.4038485             -10.9893
       127        2.0000           -0.4033484             -10.9757
       128        2.0000           -0.4019254             -10.9369
       129        2.0000           -0.4012656             -10.9190
       130        2.0000           -0.3937254             -10.7138
       131        2.0000           -0.3800549             -10.3418
       132        1.5684           -0.3565473              -9.7021
       133        1.4316           -0.3560244              -9.6879
       134        0.6893           -0.2573250              -7.0022 (HOMO)
       135        0.1252           -0.2547214              -6.9313 (LUMO)
       136        0.1107           -0.2545886              -6.9277
       137        0.0742           -0.2541706              -6.9163
       138        0.0006           -0.2495303              -6.7901
       139        0.0000           -0.2415292              -6.5723
       140        0.0000           -0.2414234              -6.5695
       141                         -0.2374229              -6.4606
       142                         -0.2364972              -6.4354
       143                         -0.2266274              -6.1668
       144                         -0.2263292              -6.1587
       145                         -0.2258240              -6.1450
       ...                                ...                  ...
       259                          1.1545696              31.4174
      -------------------------------------------------------------
                  HL-Gap            0.0026036 Eh            0.0708 eV

     #   Z          covCN         q      C6AA      α(0)
     1   8 O        0.860    -0.614    26.468     6.898
     2  16 S        3.853     0.917   109.061    17.577
     3   8 O        0.860    -0.600    26.122     6.852
     4   6 C        2.971    -0.099    30.500     9.059
     5   6 C        2.972    -0.033    28.806     8.804
     6   6 C        2.916    -0.042    29.044     8.837
     7   6 C        2.922     0.036    27.204     8.553
     8   7 N        2.751    -0.017    21.588     6.901
     9   6 C        2.924     0.041    27.079     8.534
    10   6 C        2.919    -0.051    29.265     8.871
    11   6 C        2.917    -0.033    28.812     8.802
    12   6 C        2.918    -0.033    28.811     8.802
    13   6 C        2.915    -0.053    29.308     8.877
    14   6 C        2.884     0.127    25.208     8.231
    15   8 O        1.709    -0.225    17.726     5.685
    16   6 C        2.884     0.127    25.215     8.232
    17   6 C        2.915    -0.053    29.309     8.878
    18   6 C        2.918    -0.034    28.838     8.806
    19   6 C        2.917    -0.033    28.818     8.803
    20   6 C        2.919    -0.051    29.258     8.870
    21   6 C        2.925     0.040    27.101     8.537
    22   6 C        2.926    -0.050    29.232     8.867
    23   6 C        3.006     0.009    27.810     8.651
    24   6 C        3.944     0.005    20.422     6.422
    25   6 C        3.054    -0.001    28.010     8.680
    26   6 C        2.912    -0.042    29.039     8.836
    27   6 C        2.923    -0.034    28.846     8.808
    28   6 C        2.920    -0.034    28.843     8.807
    29   6 C        2.914    -0.037    28.923     8.819
    30   6 C        3.033    -0.002    28.047     8.687
    31   6 C        3.030    -0.001    28.026     8.684
    32   6 C        2.914    -0.037    28.915     8.818
    33   6 C        2.920    -0.033    28.831     8.805
    34   6 C        2.922    -0.036    28.886     8.814
    35   6 C        2.913    -0.035    28.862     8.810
    36   6 C        3.056    -0.002    28.029     8.682
    37   6 C        3.006     0.009    27.810     8.651
    38   6 C        2.926    -0.050    29.232     8.867
    39   6 C        2.922     0.036    27.204     8.553
    40   7 N        2.751    -0.017    21.587     6.901
    41   6 C        2.924     0.041    27.079     8.534
    42   6 C        2.919    -0.051    29.265     8.871
    43   6 C        2.917    -0.033    28.812     8.802
    44   6 C        2.918    -0.033    28.811     8.802
    45   6 C        2.915    -0.053    29.308     8.877
    46   6 C        2.884     0.127    25.208     8.231
    47   8 O        1.709    -0.225    17.726     5.684
    48   6 C        2.884     0.127    25.215     8.232
    49   6 C        2.915    -0.053    29.309     8.878
    50   6 C        2.918    -0.034    28.839     8.806
    51   6 C        2.917    -0.033    28.818     8.803
    52   6 C        2.919    -0.051    29.258     8.870
    53   6 C        2.925     0.040    27.102     8.537
    54   6 C        2.916    -0.042    29.044     8.837
    55   6 C        2.972    -0.033    28.806     8.804
    56   6 C        2.971    -0.099    30.500     9.059
    57   1 H        0.926     0.039     2.462     2.454
    58   1 H        0.926     0.051     2.313     2.378
    59   1 H        0.926     0.052     2.295     2.369
    60   1 H        0.926     0.055     2.262     2.352
    61   1 H        0.926     0.057     2.240     2.340
    62   1 H        0.926     0.062     2.175     2.306
    63   1 H        0.926     0.062     2.172     2.305
    64   1 H        0.926     0.055     2.257     2.349
    65   1 H        0.926     0.051     2.306     2.375
    66   1 H        0.926     0.048     2.349     2.397
    67   1 H        0.926     0.053     2.286     2.364
    68   1 H        0.926     0.033     2.540     2.492
    69   1 H        0.926     0.028     2.609     2.526
    70   1 H        0.926     0.034     2.527     2.486
    71   1 H        0.926     0.037     2.485     2.465
    72   1 H        0.926     0.035     2.520     2.482
    73   1 H        0.926     0.036     2.506     2.476
    74   1 H        0.926     0.038     2.482     2.464
    75   1 H        0.926     0.026     2.641     2.541
    76   1 H        0.926     0.053     2.286     2.364
    77   1 H        0.926     0.052     2.295     2.369
    78   1 H        0.926     0.055     2.262     2.352
    79   1 H        0.926     0.057     2.240     2.340
    80   1 H        0.926     0.062     2.175     2.306
    81   1 H        0.926     0.062     2.173     2.305
    82   1 H        0.926     0.055     2.257     2.349
    83   1 H        0.926     0.051     2.306     2.375
    84   1 H        0.926     0.048     2.349     2.397
    85   1 H        0.926     0.051     2.313     2.378
    86   1 H        0.926     0.039     2.462     2.454

molecular dipole:
                 x           y           z       tot (Debye)
 q only:        0.001      -4.688      -1.630
   full:        0.001      -4.165      -1.419      11.185

 projected vibrational frequencies (cm⁻¹)
eigval :       -0.00    -0.00    -0.00     0.00     0.00     0.00
eigval :       10.63    18.38    19.06    21.37    24.43    29.40
eigval :       35.80    43.89    46.34    55.17    67.02    68.96
eigval :       87.61    92.46    97.29   104.94   107.04   109.50
eigval :      117.87   134.25   150.30   158.56   169.97   173.31
eigval :      187.86   221.55   221.66   234.50   243.63   244.72
eigval :      248.55   253.06   253.49   267.21   270.57   289.18
eigval :      290.28   294.89   311.32   342.38   350.71   368.18
eigval :      369.87   386.72   388.70   398.21   404.66   411.81
eigval :      413.08   421.37   423.91   424.29   424.48   426.10
eigval :      435.24   441.31   449.90   460.51   466.13   472.92
eigval :      488.82   489.26   489.61   502.40   504.96   518.58
eigval :      522.73   528.93   532.99   534.69   544.07   566.90
eigval :      580.35   589.26   591.85   595.73   604.58   622.68
eigval :      626.45   638.63   645.81   650.62   656.38   656.88
eigval :      658.79   658.99   659.74   668.32   673.24   681.12
eigval :      723.51   733.51   753.17   755.84   767.32   768.50
eigval :      771.68   771.82   779.40   785.68   800.55   806.16
eigval :      806.55   811.75   852.44   852.48   856.99   858.10
eigval :      864.43   864.54   867.20   869.17   875.07   879.58
eigval :      888.54   889.84   896.28   896.41   897.31   897.70
eigval :      898.08   899.13   900.72   905.53   905.82   908.44
eigval :      910.07   911.37   914.54   914.61   920.23   923.60
eigval :      936.01   968.26   992.24  1001.27  1017.02  1034.69
eigval :     1050.47  1070.90  1076.00  1076.09  1079.12  1079.91
eigval :     1084.16  1094.95  1114.34  1114.46  1117.55  1119.79
eigval :     1139.53  1143.93  1146.60  1147.12  1152.24  1168.46
eigval :     1168.55  1169.23  1172.67  1173.27  1175.06  1184.12
eigval :     1184.63  1189.00  1194.64  1203.95  1205.45  1205.68
eigval :     1222.44  1224.52  1235.03  1236.54  1237.83  1239.33
eigval :     1246.49  1253.64  1259.10  1267.64  1274.65  1293.73
eigval :     1296.75  1306.97  1308.33  1312.80  1317.13  1323.38
eigval :     1326.34  1328.05  1350.92  1351.08  1360.49  1362.91
eigval :     1370.11  1386.14  1387.46  1405.51  1406.86  1413.81
eigval :     1422.79  1425.81  1425.98  1429.81  1430.18  1434.89
eigval :     1436.48  1452.26  1457.52  1465.65  1479.20  1486.36
eigval :     1498.19  1504.17  1506.20  1510.10  1510.35  1517.19
eigval :     1517.39  1523.09  1563.73  1578.26  1584.84  1594.65
eigval :     3068.80  3070.75  3074.76  3077.36  3084.32  3086.35
eigval :     3088.51  3088.61  3093.61  3096.05  3096.09  3097.67
eigval :     3097.87  3099.53  3099.80  3100.17  3100.93  3101.29
eigval :     3102.82  3103.13  3104.21  3104.41  3109.52  3109.54
eigval :     3112.75  3112.79  3114.34  3114.71  3119.34  3119.50

   temp. (K)  partition function   enthalpy   heat capacity  entropy
                                   cal/mol     cal/K/mol   cal/K/mol   J/K/mol
 298.15  VIB  0.239E+20            25920.690    166.338    158.785
         ROT  0.101E+09              888.752      2.981     39.617
         INT  0.243E+28            26809.442    169.319    198.402
         TR   0.196E+29             1481.254      4.968     45.675
         TOT                       28290.6960   174.2875   244.0764  1021.2157

       T/K    H(0)-H(T)+PV         H(T)/Eh          T*S/Eh         G(T)/Eh
   ------------------------------------------------------------------------
    298.15    0.450841E-01    0.673985E+00    0.115969E+00    0.558016E+00
   ------------------------------------------------------------------------

         :::::::::::::::::::::::::::::::::::::::::::::::::::::
         ::                  THERMODYNAMIC                  ::
         :::::::::::::::::::::::::::::::::::::::::::::::::::::
         :: total free energy        -145.054683371320 Eh   ::
         ::.................................................::
         :: total energy             -145.612699599063 Eh   ::
         :: zero point energy           0.628900708221 Eh   ::
         :: G(RRHO) w/o ZPVE           -0.070884480478 Eh   ::
         :: G(RRHO) contrib.            0.558016227743 Eh   ::
         :::::::::::::::::::::::::::::::::::::::::::::::::::::

           -------------------------------------------------
          | TOTAL ENERGY             -145.612699599063 Eh   |
          | TOTAL ENTHALPY           -144.938714797054 Eh   |
          | TOTAL FREE ENERGY        -145.054683371320 Eh   |
          | GRADIENT NORM               0.000035670112 Eh/α |
          | HOMO-LUMO GAP               0.070848559047 eV   |
           -------------------------------------------------

 * finished run on 2025/09/08 at 06:59:08.205
