   * xtb version 6.7.1 (edcfbbe) compiled by 'albert@albert-system' on 2024-07-22

   ID    Z sym.   atoms
    1    8 O      1, 3, 15, 47
    2   16 S      2
    3    6 C      4-7, 9-14, 16-39, 41-46, 48-56
    4    7 N      8, 40
    5    1 H      57-86

          program call               : xtb data2507/toluene/SPFS-PXZ/SPFS-PXZ.xyz --gfn 2 --gbsa toluene --ohess vtight --parallel 40 --molden --ceasefiles --namespace data2507/toluene/SPFS-PXZ/SPFS-PXZ_toluene_S0_preOpt
      * Solvation model:               GBSA
        Solvent                        toluene
        Solvent mass                       9.2140E+01 g/mol
          :  Hamiltonian                  GFN2-xTB          :
 * total energy  :  -145.6753322 Eh     change       -0.2106844E-08 Eh
 * total energy  :  -145.6894926 Eh     change       -0.1416035E-01 Eh
 * total energy  :  -145.6955480 Eh     change       -0.6055471E-02 Eh
 * total energy  :  -145.6978427 Eh     change       -0.2294683E-02 Eh
 * total energy  :  -145.6992708 Eh     change       -0.1428134E-02 Eh
 * total energy  :  -145.6998921 Eh     change       -0.6212888E-03 Eh
 * total energy  :  -145.7001289 Eh     change       -0.2368086E-03 Eh
 * total energy  :  -145.7002627 Eh     change       -0.1338004E-03 Eh
 * total energy  :  -145.7003768 Eh     change       -0.1140400E-03 Eh
 * total energy  :  -145.7005009 Eh     change       -0.1241113E-03 Eh
 * total energy  :  -145.7028787 Eh     change       -0.9436378E-06 Eh
 * total energy  :  -145.7028796 Eh     change       -0.9242251E-06 Eh
 * total energy  :  -145.7028805 Eh     change       -0.8989665E-06 Eh
 * total energy  :  -145.7028814 Eh     change       -0.8731971E-06 Eh
 * total energy  :  -145.7028822 Eh     change       -0.8420984E-06 Eh
 * total energy  :  -145.7028830 Eh     change       -0.8104992E-06 Eh
 * total energy  :  -145.7028838 Eh     change       -0.7744086E-06 Eh
 * total energy  :  -145.7028845 Eh     change       -0.7392345E-06 Eh
 * total energy  :  -145.7028845 Eh     change       -0.4813359E-08 Eh
   *** GEOMETRY OPTIMIZATION CONVERGED AFTER 260 ITERATIONS ***

 final structure:
================
86
 xtb: 6.7.1 (edcfbbe)
O           -0.00005618731207        1.81118344280719        4.46455065622022
S           -0.00002950848819        0.62830857506709        3.63330973420104
O           -0.00000820356754       -0.63605725530422        4.34407923133803
C           -1.40698350497520        0.65956891257268        2.54465342805907
C           -2.62228099913502        1.04154158641452        3.08925917762508
C           -3.77008673068433        1.00081928138683        2.32664265558406
C           -3.68808050942663        0.57448530417528        0.99947061832981
N           -4.84853110489715        0.48034061281141        0.21090815770280
C           -5.25470931947689       -0.75127888736096       -0.32068931974843
C           -4.53395806268120       -1.92440406915510       -0.13133149241745
C           -4.97100802207476       -3.12473335223115       -0.67116876778421
C           -6.14352978543012       -3.17873742147661       -1.39774791793853
C           -6.89334887604135       -2.02432676201437       -1.56695055925093
C           -6.46148755606074       -0.82507920449195       -1.02947809813766
O           -7.28284913655673        0.26264377510037       -1.21053160733970
C           -6.85273429894908        1.47006485561466       -0.71463968381158
C           -7.66048138601414        2.56770634902864       -0.95145853915356
C           -7.27657603854756        3.82657259278324       -0.51352743504863
C           -6.07075662669150        3.97970174041801        0.14129421412495
C           -5.25905266084195        2.88144782792440        0.38232462152549
C           -5.64710646703121        1.60767849147843       -0.01517248319274
C           -2.45519721006181        0.22845323151580        0.45824437068383
C           -1.29046252330335        0.26257497224109        1.22192316081132
C            0.00000040957765       -0.19851116404795        0.58585451790805
C           -0.00000037169161        0.11199064689824       -0.90234374412096
C           -0.00002003261910        1.34902250843946       -1.51055657544713
C           -0.00001418379441        1.40299602765959       -2.89903994737143
C            0.00000915619886        0.23967758630605       -3.65449401802205
C            0.00002929353494       -1.00604237759279       -3.04574737194587
C            0.00002455473139       -1.06690227986930       -1.66150585516860
C            0.00004229109533       -2.20342481404263       -0.75196799197003
C            0.00006993098180       -3.56634038452850       -0.99904257296939
C            0.00008486239202       -4.43562338594429        0.08077652379655
C            0.00007326822228       -3.95630113766490        1.38228326871398
C            0.00004586458511       -2.58999610330932        1.64046590860830
C            0.00002991453121       -1.72731557816590        0.56649780831272
C            1.29044022694438        0.26262290788634        1.22193568244260
C            2.45518395411377        0.22854129271677        0.45826906676504
C            3.68804931135395        0.57461837021162        0.99950737731357
N            4.84851190081546        0.48051142266795        0.21095792195828
C            5.25474050200254       -0.75109601289617       -0.32062904205394
C            4.53402674342213       -1.92424542883352       -0.13127839979526
C            4.97112557775131       -3.12456115578546       -0.67110614452131
C            6.14366085930939       -3.17852737535765       -1.39766626520778
C            6.89344280647030       -2.02409156386186       -1.56686141553482
C            6.46153112607893       -0.82485676395261       -1.02940100622070
O            7.28285537451889        0.26289515147234       -1.21045037499797
C            6.85268878724790        1.47030400671634       -0.71457354724863
C            7.66039659186227        2.56797450422316       -0.95139198621673
C            7.27643852803849        3.82682952850234       -0.51347477559410
C            6.07060647768363        3.97991778702977        0.14133318901436
C            5.25894188465843        2.88163471372872        0.38236316963280
C            5.64704807209423        1.60787728634146       -0.01512078257985
C            3.77002642144843        1.00095905503465        2.32667904214903
C            2.62221154401528        1.04164098990915        3.08928391372570
C            1.40693344592832        0.65962290124061        2.54466660478735
H           -2.63974547980405        1.35265615010734        4.12214428833839
H           -4.72388545065249        1.27637496064519        2.74894842092275
H           -3.62952423591021       -1.90933297370238        0.45511030881306
H           -4.38412321405660       -4.01583008680095       -0.50993077854601
H           -6.48787006244523       -4.10849128523161       -1.82227835488299
H           -7.82639938262098       -2.03290673876646       -2.10817218698035
H           -8.58543277615155        2.41530362060215       -1.48504391009504
H           -7.91504016271695        4.67589488246064       -0.69865472998885
H           -5.74662127545562        4.95588078159176        0.46773537480222
H           -4.31195784470496        3.01784750504102        0.87980805153444
H           -2.40787230151682       -0.07441390880326       -0.57636923182443
H           -0.00003683044344        2.25452133193405       -0.92193282866434
H           -0.00002907891998        2.36240566507451       -3.39442404355959
H            0.00001215656034        0.30590995480392       -4.73250008838263
H            0.00004708284877       -1.90813783424583       -3.63798339621303
H            0.00008024831618       -3.94338971410731       -2.01023358990945
H            0.00010737569425       -5.50179689931667       -0.09254229879648
H            0.00008705767175       -4.65057089191103        2.20946108937865
H            0.00003659703329       -2.21724643755566        2.65478477565380
H            2.40788076877603       -0.07433068371644       -0.57634404092735
H            3.62958399842027       -1.90920363168180        0.45515049435921
H            4.38427196396093       -4.01567873086936       -0.50986945953364
H            6.48804274937471       -4.10827198822141       -1.82218311092010
H            7.82650227788727       -2.03264147979734       -2.10806815856457
H            8.58536040499813        2.41560266111928       -1.48496462820987
H            7.91487273143573        4.67617462891960       -0.69860073202243
H            5.74643029187125        4.95608687763111        0.46776366087872
H            4.31183612139785        3.01800207057628        0.87983450498984
H            4.72381091254898        1.27655027678925        2.74899371014367
H            2.63965398135751        1.35275815701028        4.12216858764355

          :  Hamiltonian                  GFN2-xTB          :
         :: gradient norm              0.000054536302 Eh/a0 ::
         :: HOMO-LUMO gap              2.183584595983 eV    ::
         :: SCC energy              -148.160528303540 Eh    ::
         :: -> dispersion             -0.136588429012 Eh    ::
         :: -> Gsolv                  -0.062272232361 Eh    ::
         :: repulsion energy           2.457643773408 Eh    ::

    * Orbital Energies and Occupations

         #    Occupation            Energy/Eh            Energy/eV
      -------------------------------------------------------------
         1        2.0000           -0.7806278             -21.2420
       ...           ...                  ...                  ...
       121        2.0000           -0.4187940             -11.3960
       122        2.0000           -0.4187900             -11.3959
       123        2.0000           -0.4182843             -11.3821
       124        2.0000           -0.4167991             -11.3417
       125        2.0000           -0.4155723             -11.3083
       126        2.0000           -0.4139026             -11.2629
       127        2.0000           -0.4125787             -11.2268
       128        2.0000           -0.4075476             -11.0899
       129        2.0000           -0.3937975             -10.7158
       130        2.0000           -0.3937269             -10.7139
       131        2.0000           -0.3905925             -10.6286
       132        2.0000           -0.3487738              -9.4906
       133        2.0000           -0.3482762              -9.4771 (HOMO)
       134                         -0.2680310              -7.2935 (LUMO)
       135                         -0.2650316              -7.2119
       136                         -0.2617716              -7.1232
       137                         -0.2553718              -6.9490
       138                         -0.2542098              -6.9174
       139                         -0.2415611              -6.5732
       140                         -0.2415521              -6.5730
       141                         -0.2358308              -6.4173
       142                         -0.2329200              -6.3381
       143                         -0.2329053              -6.3377
       144                         -0.2288140              -6.2263
       ...                                ...                  ...
       259                          1.1689954              31.8100
      -------------------------------------------------------------
                  HL-Gap            0.0802453 Eh            2.1836 eV

     #   Z          covCN         q      C6AA      α(0)
     1   8 O        0.860    -0.582    25.684     6.795
     2  16 S        3.848     0.969   107.532    17.453
     3   8 O        0.860    -0.592    25.921     6.826
     4   6 C        2.974    -0.085    30.121     9.002
     5   6 C        2.974    -0.021    28.538     8.763
     6   6 C        2.921    -0.038    28.949     8.823
     7   6 C        2.919     0.072    26.381     8.423
     8   7 N        2.751    -0.065    22.508     7.046
     9   6 C        2.920     0.040    27.101     8.537
    10   6 C        2.923    -0.060    29.494     8.906
    11   6 C        2.919    -0.038    28.938     8.821
    12   6 C        2.919    -0.039    28.977     8.827
    13   6 C        2.920    -0.057    29.414     8.894
    14   6 C        2.883     0.124    25.278     8.242
    15   8 O        1.708    -0.267    18.427     5.796
    16   6 C        2.883     0.124    25.278     8.242
    17   6 C        2.919    -0.057    29.416     8.894
    18   6 C        2.919    -0.040    28.983     8.828
    19   6 C        2.919    -0.038    28.949     8.823
    20   6 C        2.924    -0.060    29.490     8.906
    21   6 C        2.921     0.040    27.101     8.537
    22   6 C        2.932    -0.046    29.130     8.851
    23   6 C        3.009     0.018    27.588     8.616
    24   6 C        3.945     0.006    20.417     6.421
    25   6 C        3.054    -0.000    27.988     8.676
    26   6 C        2.913    -0.033    28.816     8.802
    27   6 C        2.922    -0.030    28.744     8.792
    28   6 C        2.921    -0.030    28.742     8.792
    29   6 C        2.914    -0.032    28.802     8.800
    30   6 C        3.030     0.004    27.898     8.664
    31   6 C        3.032     0.005    27.883     8.661
    32   6 C        2.915    -0.032    28.789     8.798
    33   6 C        2.920    -0.030    28.739     8.791
    34   6 C        2.924    -0.028    28.711     8.787
    35   6 C        2.912    -0.039    28.981     8.828
    36   6 C        3.058     0.001    27.940     8.668
    37   6 C        3.009     0.018    27.588     8.616
    38   6 C        2.932    -0.046    29.130     8.851
    39   6 C        2.919     0.072    26.381     8.423
    40   7 N        2.751    -0.065    22.508     7.046
    41   6 C        2.920     0.040    27.101     8.537
    42   6 C        2.923    -0.060    29.494     8.906
    43   6 C        2.919    -0.038    28.938     8.821
    44   6 C        2.919    -0.039    28.977     8.827
    45   6 C        2.920    -0.057    29.414     8.894
    46   6 C        2.883     0.124    25.278     8.242
    47   8 O        1.708    -0.267    18.427     5.796
    48   6 C        2.883     0.124    25.278     8.242
    49   6 C        2.919    -0.057    29.416     8.894
    50   6 C        2.919    -0.040    28.983     8.828
    51   6 C        2.919    -0.038    28.949     8.823
    52   6 C        2.924    -0.060    29.490     8.906
    53   6 C        2.921     0.040    27.101     8.537
    54   6 C        2.921    -0.038    28.949     8.823
    55   6 C        2.974    -0.021    28.538     8.763
    56   6 C        2.974    -0.085    30.121     9.002
    57   1 H        0.926     0.057     2.238     2.340
    58   1 H        0.926     0.067     2.124     2.279
    59   1 H        0.926     0.038     2.470     2.458
    60   1 H        0.926     0.044     2.398     2.421
    61   1 H        0.926     0.046     2.374     2.410
    62   1 H        0.926     0.051     2.302     2.373
    63   1 H        0.926     0.051     2.308     2.376
    64   1 H        0.926     0.045     2.385     2.415
    65   1 H        0.926     0.044     2.401     2.423
    66   1 H        0.926     0.040     2.453     2.449
    67   1 H        0.926     0.069     2.098     2.265
    68   1 H        0.926     0.034     2.537     2.491
    69   1 H        0.926     0.042     2.427     2.436
    70   1 H        0.926     0.042     2.422     2.434
    71   1 H        0.926     0.045     2.385     2.415
    72   1 H        0.926     0.047     2.351     2.398
    73   1 H        0.926     0.043     2.404     2.425
    74   1 H        0.926     0.038     2.474     2.460
    75   1 H        0.926     0.036     2.502     2.474
    76   1 H        0.926     0.069     2.098     2.265
    77   1 H        0.926     0.038     2.470     2.458
    78   1 H        0.926     0.044     2.398     2.421
    79   1 H        0.926     0.046     2.374     2.410
    80   1 H        0.926     0.051     2.302     2.373
    81   1 H        0.926     0.051     2.308     2.376
    82   1 H        0.926     0.045     2.385     2.415
    83   1 H        0.926     0.044     2.401     2.423
    84   1 H        0.926     0.040     2.453     2.449
    85   1 H        0.926     0.067     2.124     2.279
    86   1 H        0.926     0.057     2.238     2.340

molecular dipole:
                 x           y           z       tot (Debye)
 q only:        0.000      -0.262      -2.972
   full:        0.000      -0.174      -2.473       6.301

 projected vibrational frequencies (cm⁻¹)
eigval :       -0.00    -0.00     0.00     0.00     0.00     0.00
eigval :        8.86    13.73    13.82    19.07    19.84    23.06
eigval :       37.28    42.09    44.45    47.79    55.72    69.46
eigval :       83.72    91.78    92.02    99.12   112.29   116.63
eigval :      119.86   134.35   150.90   160.42   174.89   182.00
eigval :      190.45   219.39   221.74   234.96   244.84   247.03
eigval :      249.74   257.30   261.54   266.38   269.74   283.03
eigval :      291.54   295.68   352.59   359.79   363.30   380.74
eigval :      385.81   389.81   393.45   408.73   413.54   421.40
eigval :      424.31   425.19   426.11   426.92   435.05   436.71
eigval :      452.57   455.02   458.83   466.11   475.42   499.28
eigval :      508.10   508.22   510.86   516.74   522.10   523.04
eigval :      525.50   537.18   541.73   563.03   575.20   585.24
eigval :      591.67   596.98   598.38   613.18   620.29   639.11
eigval :      646.70   655.02   659.66   660.91   661.47   663.59
eigval :      667.37   676.25   679.97   685.85   692.37   727.85
eigval :      737.41   738.63   754.07   771.66   778.87   778.89
eigval :      780.59   780.82   788.44   803.62   809.42   832.86
eigval :      834.34   853.90   853.90   865.13   865.23   869.31
eigval :      869.40   879.11   884.69   885.76   889.44   893.93
eigval :      896.90   898.92   898.96   905.29   906.66   908.01
eigval :      913.01   915.25   915.67   917.68   917.73   918.58
eigval :      919.21   921.28   925.27   925.74   929.94   935.63
eigval :      986.07  1001.48  1016.93  1027.41  1072.08  1074.12
eigval :     1079.24  1080.54  1089.85  1090.08  1091.46  1091.51
eigval :     1106.70  1106.71  1110.35  1117.65  1118.87  1141.95
eigval :     1148.42  1152.13  1159.44  1166.69  1170.39  1172.64
eigval :     1172.73  1173.02  1178.30  1182.52  1184.14  1187.07
eigval :     1194.44  1198.56  1198.70  1201.15  1202.76  1222.09
eigval :     1230.26  1233.97  1240.92  1241.32  1243.67  1248.35
eigval :     1258.41  1260.51  1260.70  1279.33  1302.83  1302.92
eigval :     1303.20  1307.52  1319.60  1321.29  1323.25  1328.47
eigval :     1329.57  1349.22  1350.12  1362.92  1393.32  1396.22
eigval :     1421.14  1421.19  1425.43  1427.05  1439.43  1439.49
eigval :     1454.68  1454.97  1460.23  1469.06  1478.98  1479.18
eigval :     1499.91  1500.49  1552.30  1560.43  1566.13  1566.50
eigval :     1570.96  1576.22  1578.61  1579.17  1583.12  1587.85
eigval :     1587.89  1592.46  1597.34  1599.92  1600.63  1600.67
eigval :     3076.96  3077.56  3081.06  3085.10  3088.63  3088.63
eigval :     3089.67  3089.68  3090.46  3092.74  3095.87  3095.95
eigval :     3096.75  3097.83  3097.84  3098.27  3098.28  3098.60
eigval :     3104.49  3104.82  3105.56  3105.88  3106.54  3106.54
eigval :     3107.45  3107.45  3110.73  3110.74  3112.34  3112.38

   temp. (K)  partition function   enthalpy   heat capacity  entropy
                                   cal/mol     cal/K/mol   cal/K/mol   J/K/mol
 298.15  VIB  0.752E+20            25494.350    162.506    157.462
         ROT  0.103E+09              888.752      2.981     39.642
         INT  0.773E+28            26383.102    165.487    197.104
         TR   0.196E+29             1481.254      4.968     45.675
         TOT                       27864.3562   170.4554   242.7788  1015.7864

       T/K    H(0)-H(T)+PV         H(T)/Eh          T*S/Eh         G(T)/Eh
   ------------------------------------------------------------------------
    298.15    0.444047E-01    0.681340E+00    0.115352E+00    0.565988E+00
   ------------------------------------------------------------------------

         :::::::::::::::::::::::::::::::::::::::::::::::::::::
         ::                  THERMODYNAMIC                  ::
         :::::::::::::::::::::::::::::::::::::::::::::::::::::
         :: total free energy        -145.136896775270 Eh   ::
         ::.................................................::
         :: total energy             -145.702884529110 Eh   ::
         :: zero point energy           0.636935108243 Eh   ::
         :: G(RRHO) w/o ZPVE           -0.070947354403 Eh   ::
         :: G(RRHO) contrib.            0.565987753840 Eh   ::
         :::::::::::::::::::::::::::::::::::::::::::::::::::::

           -------------------------------------------------
          | TOTAL ENERGY             -145.702884529110 Eh   |
          | TOTAL ENTHALPY           -145.021544742772 Eh   |
          | TOTAL FREE ENERGY        -145.136896775270 Eh   |
          | GRADIENT NORM               0.000054539164 Eh/α |
          | HOMO-LUMO GAP               2.183584647415 eV   |
           -------------------------------------------------

 * finished run on 2025/09/08 at 06:52:15.332
