   * xtb version 6.7.1 (edcfbbe) compiled by 'albert@albert-system' on 2024-07-22

   ID    Z sym.   atoms
    1    8 O      1, 3, 15, 47
    2   16 S      2
    3    6 C      4-7, 9-14, 16-39, 41-46, 48-56
    4    7 N      8, 40
    5    1 H      57-86

          program call               : xtb data2507/toluene/SPFS-PXZ/SPFS-PXZ_toluene_S0_crest.xyz --gfn 2 --gbsa toluene --ohess vtight --parallel 40 --molden --ceasefiles --namespace data2507/toluene/SPFS-PXZ/SPFS-PXZ_toluene_S0_finalOpt
      * Solvation model:               GBSA
        Solvent                        toluene
        Solvent mass                       9.2140E+01 g/mol
          :  Hamiltonian                  GFN2-xTB          :
 * total energy  :  -145.7019104 Eh     change       -0.1228841E-08 Eh
 * total energy  :  -145.7020244 Eh     change       -0.1139686E-03 Eh
 * total energy  :  -145.7020880 Eh     change       -0.6364261E-04 Eh
 * total energy  :  -145.7021064 Eh     change       -0.1835508E-04 Eh
 * total energy  :  -145.7021243 Eh     change       -0.1795264E-04 Eh
 * total energy  :  -145.7021395 Eh     change       -0.1520649E-04 Eh
 * total energy  :  -145.7021591 Eh     change       -0.1952821E-04 Eh
 * total energy  :  -145.7021853 Eh     change       -0.2621530E-04 Eh
 * total energy  :  -145.7022133 Eh     change       -0.2796306E-04 Eh
 * total energy  :  -145.7022351 Eh     change       -0.2188724E-04 Eh
 * total energy  :  -145.7026127 Eh     change       -0.1676027E-06 Eh
 * total energy  :  -145.7026129 Eh     change       -0.1701064E-06 Eh
 * total energy  :  -145.7026131 Eh     change       -0.1838338E-06 Eh
 * total energy  :  -145.7026133 Eh     change       -0.2034550E-06 Eh
 * total energy  :  -145.7026135 Eh     change       -0.2114529E-06 Eh
 * total energy  :  -145.7026137 Eh     change       -0.2012938E-06 Eh
 * total energy  :  -145.7026139 Eh     change       -0.1685238E-06 Eh
 * total energy  :  -145.7026140 Eh     change       -0.1242915E-06 Eh
 * total energy  :  -145.7026141 Eh     change       -0.8305537E-07 Eh
   *** GEOMETRY OPTIMIZATION CONVERGED AFTER 92 ITERATIONS ***

 final structure:
================
86
 xtb: 6.7.1 (edcfbbe)
O           -0.00240043030607        4.09950453083659        0.97591839511184
S           -0.00008669582717        2.92061429624304        1.82036257519770
O            0.00216812423248        3.17533995461393        3.24342191883243
C           -1.40544454719438        1.91351006284693        1.39864804353930
C           -2.61377309487227        2.23595290204073        1.99401396025072
C           -3.75408828992205        1.52788907809898        1.67913116062604
C           -3.67347287283256        0.49281979806699        0.74593215139548
N           -4.82628659747340       -0.23586368055827        0.39749498802661
C           -4.91987326658280       -1.60592292182148        0.67291386941608
C           -3.89317511131847       -2.31654001868357        1.28202068831208
C           -4.02595132836404       -3.67075473318567        1.54963757768611
C           -5.18959404375429       -4.33727674738873        1.22276966752540
C           -6.23555488301940       -3.63667358252427        0.64079582415873
C           -6.10896728610867       -2.28501028378847        0.37582127366863
O           -7.20479705490327       -1.65684095145699       -0.16767927512029
C           -7.09578223648951       -0.31332543340319       -0.43608492152632
C           -8.19815589902939        0.30268572687742       -1.00022416995084
C           -8.15516447917279        1.64942451957402       -1.32978804115870
C           -6.99570641603607        2.36588339575645       -1.11001527640456
C           -5.88858489954197        1.75245121559641       -0.54310551986460
C           -5.92727085682526        0.41341295346120       -0.17349652847428
C           -2.45195322566510        0.17804281551003        0.16148375141088
C           -1.28951057308287        0.87418356321843        0.48845956125568
C           -0.00167953891260        0.50915648729021       -0.21542506938428
C           -0.00482062930801        1.16219547456058       -1.59792028295390
C           -0.00661153723115        2.50487191949076       -1.90491455651061
C           -0.00979622728080        2.87071838791367       -3.24632281484042
C           -0.01121889874072        1.91065366244554       -4.24698794909959
C           -0.00938530806917        0.55957809096080       -3.93691365262793
C           -0.00614814176052        0.18527923469816       -2.60323240833482
C           -0.00371241166449       -1.13059193639821       -1.98061300634273
C           -0.00354253238764       -2.40150145063509       -2.53255097410292
C           -0.00065293881935       -3.49492469712430       -1.68016872242067
C            0.00197650346398       -3.32555086605092       -0.30399793751842
C            0.00171874984235       -2.05408084281767        0.25587213997004
C           -0.00111393363054       -0.96459266496961       -0.58854682769065
C            1.28795941597702        0.87614512759194        0.48407043827237
C            2.45035875184775        0.18168854497151        0.15326421067714
C            3.67332106383507        0.49842719010244        0.73357293249131
N            4.82624987748486       -0.22835494994755        0.38137634112356
C            4.92430522985478       -1.59767732980264        0.65884554222475
C            3.90067084354558       -2.31034603475956        1.27068922216234
C            4.03801770192802       -3.66367009993834        1.54052976208952
C            5.20323080284779       -4.32718487217223        1.21313939705892
C            6.24609060896787       -3.62448217816644        0.62812252479043
C            6.11490988226059       -2.27372104491597        0.36081290386671
O            7.20784369467074       -1.64327662081086       -0.18592056880204
C            7.09412785501060       -0.30070434291188       -0.45708987283650
C            8.19325147077024        0.31745699596255       -1.02519858323916
C            8.14536380287336        1.66339188453035       -1.35739405066498
C            6.98433124588824        2.37685152126351       -1.13617254779556
C            5.88043369457185        1.76123793238504       -0.56535925321360
C            5.92405480155324        0.42304423976885       -0.19325985778134
C            3.75552726099067        1.53375638239097        1.66633852102638
C            2.61519250809347        2.24004243723153        1.98509221308129
C            1.40536189792220        1.91565409836884        1.39384481437771
H           -2.62775480416522        3.04301631339730        2.70982346328512
H           -4.69900987965532        1.76684441691229        2.14185082101392
H           -2.98469061046007       -1.80671916007888        1.55857736334096
H           -3.21188495424899       -4.19635918903285        2.02374987830125
H           -5.29766531756579       -5.39115614551122        1.42501132339719
H           -7.16707987400591       -4.11983910059751        0.39098250760562
H           -9.08058137623500       -0.29197076956937       -1.17706716937887
H           -9.02142923645041        2.12226876863487       -1.76478272702949
H           -6.93824019055203        3.40896855538316       -1.38065343910690
H           -4.98424954147441        2.32077956213700       -0.39297509367622
H           -2.41437198231315       -0.61830482009943       -0.56588652209875
H           -0.00559462715746        3.25522770117677       -1.12780833750368
H           -0.01123476384681        3.91844932670949       -3.50821574280383
H           -0.01377123192922        2.22088263962097       -5.28168189014781
H           -0.01050211089721       -0.18440906733343       -4.71894375654518
H           -0.00553106755292       -2.53813564569311       -3.60307550467950
H           -0.00039303324639       -4.49284198892348       -2.09287502177063
H            0.00426294072558       -4.19184279290705        0.33965838387885
H            0.00376249684438       -1.92179651017269        1.32799069706698
H            2.41154479659606       -0.61478490963415       -0.57390728388573
H            2.99105965154486       -1.80278967253001        1.54770238059857
H            3.22625954169368       -4.19094869993315        2.01674507127276
H            5.31490573987572       -5.38032496336360        1.41726790499542
H            7.17869383243627       -4.10525671918930        0.37770605849912
H            9.07706317589176       -0.27486491490641       -1.20295145306719
H            9.00909485940829        2.13796766355814       -1.79552082167094
H            6.92312270292391        3.41922163238426       -1.40874073975754
H            4.97475359620791        2.32711021427013       -0.41402501216761
H            4.70169763966105        1.77431428645756        2.12566594305401
H            2.63033481204649        3.04718848963066        2.70078390515642

          :  Hamiltonian                  GFN2-xTB          :
         :: gradient norm              0.000033368963 Eh/a0 ::
         :: HOMO-LUMO gap              2.152635141658 eV    ::
         :: SCC energy              -148.160483142722 Eh    ::
         :: -> dispersion             -0.136932140095 Eh    ::
         :: -> Gsolv                  -0.061820734364 Eh    ::
         :: repulsion energy           2.457869055704 Eh    ::

    * Orbital Energies and Occupations

         #    Occupation            Energy/Eh            Energy/eV
      -------------------------------------------------------------
         1        2.0000           -0.7811722             -21.2568
       ...           ...                  ...                  ...
       121        2.0000           -0.4186414             -11.3918
       122        2.0000           -0.4186354             -11.3916
       123        2.0000           -0.4183062             -11.3827
       124        2.0000           -0.4167684             -11.3408
       125        2.0000           -0.4154291             -11.3044
       126        2.0000           -0.4142341             -11.2719
       127        2.0000           -0.4120018             -11.2111
       128        2.0000           -0.4074647             -11.0877
       129        2.0000           -0.3937267             -10.7138
       130        2.0000           -0.3936731             -10.7124
       131        2.0000           -0.3900663             -10.6142
       132        2.0000           -0.3484205              -9.4810
       133        2.0000           -0.3480400              -9.4707 (HOMO)
       134                         -0.2689321              -7.3180 (LUMO)
       135                         -0.2651176              -7.2142
       136                         -0.2618686              -7.1258
       137                         -0.2562119              -6.9719
       138                         -0.2545168              -6.9258
       139                         -0.2413576              -6.5677
       140                         -0.2413424              -6.5673
       141                         -0.2356153              -6.4114
       142                         -0.2327262              -6.3328
       143                         -0.2326985              -6.3320
       144                         -0.2284024              -6.2151
       ...                                ...                  ...
       259                          1.1701575              31.8416
      -------------------------------------------------------------
                  HL-Gap            0.0791079 Eh            2.1526 eV

     #   Z          covCN         q      C6AA      α(0)
     1   8 O        0.860    -0.591    25.890     6.822
     2  16 S        3.849     0.971   107.497    17.450
     3   8 O        0.860    -0.582    25.680     6.794
     4   6 C        2.975    -0.085    30.114     9.001
     5   6 C        2.975    -0.021    28.535     8.762
     6   6 C        2.922    -0.038    28.936     8.821
     7   6 C        2.919     0.073    26.372     8.421
     8   7 N        2.751    -0.066    22.528     7.049
     9   6 C        2.920     0.040    27.102     8.537
    10   6 C        2.924    -0.061    29.511     8.909
    11   6 C        2.919    -0.038    28.942     8.822
    12   6 C        2.919    -0.040    28.987     8.829
    13   6 C        2.920    -0.057    29.414     8.894
    14   6 C        2.883     0.124    25.281     8.243
    15   8 O        1.708    -0.268    18.435     5.797
    16   6 C        2.883     0.124    25.279     8.243
    17   6 C        2.919    -0.057    29.421     8.895
    18   6 C        2.919    -0.040    28.987     8.829
    19   6 C        2.919    -0.038    28.950     8.823
    20   6 C        2.924    -0.060    29.492     8.906
    21   6 C        2.921     0.040    27.099     8.537
    22   6 C        2.932    -0.045    29.107     8.848
    23   6 C        3.007     0.018    27.581     8.615
    24   6 C        3.944     0.006    20.419     6.421
    25   6 C        3.056     0.001    27.940     8.669
    26   6 C        2.912    -0.040    28.996     8.830
    27   6 C        2.924    -0.029    28.713     8.787
    28   6 C        2.920    -0.030    28.750     8.793
    29   6 C        2.915    -0.033    28.811     8.802
    30   6 C        3.032     0.004    27.902     8.664
    31   6 C        3.030     0.004    27.906     8.665
    32   6 C        2.914    -0.032    28.801     8.800
    33   6 C        2.921    -0.029    28.735     8.791
    34   6 C        2.922    -0.029    28.720     8.788
    35   6 C        2.914    -0.032    28.795     8.799
    36   6 C        3.054    -0.001    27.997     8.678
    37   6 C        3.007     0.018    27.581     8.615
    38   6 C        2.932    -0.045    29.107     8.848
    39   6 C        2.919     0.073    26.372     8.421
    40   7 N        2.751    -0.067    22.529     7.049
    41   6 C        2.920     0.040    27.102     8.537
    42   6 C        2.924    -0.061    29.511     8.909
    43   6 C        2.919    -0.038    28.942     8.822
    44   6 C        2.919    -0.040    28.987     8.829
    45   6 C        2.920    -0.057    29.414     8.894
    46   6 C        2.883     0.124    25.281     8.243
    47   8 O        1.708    -0.268    18.436     5.797
    48   6 C        2.883     0.124    25.279     8.243
    49   6 C        2.919    -0.057    29.421     8.895
    50   6 C        2.919    -0.040    28.987     8.829
    51   6 C        2.919    -0.038    28.950     8.823
    52   6 C        2.924    -0.060    29.492     8.906
    53   6 C        2.921     0.040    27.099     8.537
    54   6 C        2.922    -0.038    28.935     8.821
    55   6 C        2.975    -0.021    28.535     8.762
    56   6 C        2.975    -0.085    30.114     9.001
    57   1 H        0.926     0.057     2.232     2.336
    58   1 H        0.926     0.067     2.120     2.277
    59   1 H        0.926     0.040     2.443     2.444
    60   1 H        0.926     0.045     2.380     2.413
    61   1 H        0.926     0.045     2.379     2.412
    62   1 H        0.926     0.051     2.313     2.378
    63   1 H        0.926     0.051     2.308     2.376
    64   1 H        0.926     0.045     2.389     2.417
    65   1 H        0.926     0.043     2.415     2.430
    66   1 H        0.926     0.038     2.482     2.463
    67   1 H        0.926     0.069     2.094     2.263
    68   1 H        0.926     0.038     2.475     2.460
    69   1 H        0.926     0.038     2.476     2.460
    70   1 H        0.926     0.043     2.415     2.430
    71   1 H        0.926     0.046     2.369     2.407
    72   1 H        0.926     0.043     2.404     2.424
    73   1 H        0.926     0.043     2.414     2.429
    74   1 H        0.926     0.044     2.398     2.421
    75   1 H        0.926     0.033     2.547     2.496
    76   1 H        0.926     0.069     2.093     2.262
    77   1 H        0.926     0.040     2.443     2.444
    78   1 H        0.926     0.045     2.380     2.413
    79   1 H        0.926     0.045     2.379     2.412
    80   1 H        0.926     0.051     2.313     2.378
    81   1 H        0.926     0.051     2.308     2.376
    82   1 H        0.926     0.045     2.389     2.417
    83   1 H        0.926     0.043     2.415     2.430
    84   1 H        0.926     0.038     2.482     2.464
    85   1 H        0.926     0.067     2.121     2.277
    86   1 H        0.926     0.057     2.232     2.336

molecular dipole:
                 x           y           z       tot (Debye)
 q only:       -0.002      -2.557      -1.409
   full:       -0.002      -2.110      -1.172       6.135

 projected vibrational frequencies (cm⁻¹)
eigval :       -0.00    -0.00     0.00     0.00     0.00     0.00
eigval :       10.72    17.40    20.33    24.91    25.41    29.84
eigval :       40.73    46.06    49.77    51.62    57.78    68.16
eigval :       90.15    94.46    94.82   104.50   111.75   116.41
eigval :      121.88   135.53   157.00   159.82   173.64   176.79
eigval :      196.34   218.95   223.03   233.20   245.80   250.25
eigval :      251.90   254.56   259.47   268.75   270.89   282.70
eigval :      289.64   300.03   351.09   355.34   367.14   374.59
eigval :      385.63   393.76   396.61   410.09   413.93   421.91
eigval :      424.42   424.94   428.24   430.11   433.51   434.73
eigval :      444.40   456.15   467.99   471.99   472.12   499.35
eigval :      508.60   510.85   511.09   515.63   522.52   525.39
eigval :      529.53   537.95   541.78   560.05   577.83   584.89
eigval :      591.84   597.39   597.49   613.62   621.16   639.58
eigval :      648.80   654.87   659.41   661.01   661.92   662.12
eigval :      666.40   675.54   678.62   688.22   694.28   727.77
eigval :      738.40   738.91   754.28   773.29   776.65   777.10
eigval :      781.40   781.64   791.57   803.60   809.37   832.08
eigval :      834.54   853.92   853.98   864.77   864.97   866.68
eigval :      866.95   881.64   885.96   886.25   889.44   894.13
eigval :      897.16   897.77   898.22   902.50   904.57   908.17
eigval :      912.87   913.55   914.88   916.67   917.04   921.00
eigval :      921.78   923.85   926.89   927.33   933.07   938.37
eigval :      986.32  1001.84  1017.00  1027.36  1073.03  1073.19
eigval :     1079.65  1081.83  1090.26  1090.49  1091.49  1091.53
eigval :     1106.37  1106.63  1110.68  1117.63  1118.84  1141.68
eigval :     1151.16  1153.91  1159.85  1166.95  1170.25  1173.57
eigval :     1174.01  1174.86  1178.45  1183.77  1185.41  1188.26
eigval :     1192.45  1198.70  1199.00  1200.51  1203.48  1223.20
eigval :     1230.28  1234.92  1241.17  1241.36  1243.79  1247.35
eigval :     1258.32  1260.44  1260.57  1279.79  1302.08  1303.36
eigval :     1303.73  1306.95  1319.07  1319.53  1322.84  1329.51
eigval :     1329.73  1350.14  1350.96  1363.73  1392.64  1395.00
eigval :     1421.62  1421.80  1425.77  1427.49  1440.11  1440.27
eigval :     1454.33  1454.49  1460.23  1469.16  1479.61  1479.87
eigval :     1500.44  1501.03  1551.82  1560.13  1566.59  1566.98
eigval :     1570.85  1576.31  1579.13  1579.55  1583.69  1588.38
eigval :     1588.44  1593.01  1597.58  1600.39  1601.22  1601.27
eigval :     3076.48  3076.64  3082.16  3084.83  3088.67  3088.82
eigval :     3091.12  3091.46  3091.71  3093.67  3096.52  3096.78
eigval :     3097.75  3097.95  3098.97  3099.13  3100.07  3101.33
eigval :     3102.28  3102.61  3104.31  3104.35  3105.83  3106.25
eigval :     3108.30  3108.35  3110.20  3110.34  3114.54  3114.59

   temp. (K)  partition function   enthalpy   heat capacity  entropy
                                   cal/mol     cal/K/mol   cal/K/mol   J/K/mol
 298.15  VIB  0.958E+19            25384.916    162.991    155.667
         ROT  0.102E+09              888.752      2.981     39.619
         INT  0.973E+27            26273.668    165.972    195.286
         TR   0.196E+29             1481.254      4.968     45.675
         TOT                       27754.9219   170.9404   240.9608  1008.1802

       T/K    H(0)-H(T)+PV         H(T)/Eh          T*S/Eh         G(T)/Eh
   ------------------------------------------------------------------------
    298.15    0.442303E-01    0.681490E+00    0.114488E+00    0.567002E+00
   ------------------------------------------------------------------------

         :::::::::::::::::::::::::::::::::::::::::::::::::::::
         ::                  THERMODYNAMIC                  ::
         :::::::::::::::::::::::::::::::::::::::::::::::::::::
         :: total free energy        -145.135611911992 Eh   ::
         ::.................................................::
         :: total energy             -145.702614089539 Eh   ::
         :: zero point energy           0.637260164266 Eh   ::
         :: G(RRHO) w/o ZPVE           -0.070257986719 Eh   ::
         :: G(RRHO) contrib.            0.567002177547 Eh   ::
         :::::::::::::::::::::::::::::::::::::::::::::::::::::

           -------------------------------------------------
          | TOTAL ENERGY             -145.702614089539 Eh   |
          | TOTAL ENTHALPY           -145.021123641857 Eh   |
          | TOTAL FREE ENERGY        -145.135611911992 Eh   |
          | GRADIENT NORM               0.000033379820 Eh/α |
          | HOMO-LUMO GAP               2.152635239221 eV   |
           -------------------------------------------------

 * finished run on 2025/09/08 at 06:58:56.383
