   * xtb version 6.7.1 (edcfbbe) compiled by 'albert@albert-system' on 2024-07-22

   ID    Z sym.   atoms
    1    8 O      1, 3, 15, 47
    2   16 S      2
    3    6 C      4-7, 9-14, 16-39, 41-46, 48-56
    4    7 N      8, 40
    5    1 H      57-86

          program call               : xtb data2507/toluene/SPFS-PXZ/SPFS-PXZ_toluene_T1_crest.xyz --gfn 2 --uhf 2 --gbsa toluene --ohess vtight --parallel 40 --molden --ceasefiles --namespace data2507/toluene/SPFS-PXZ/SPFS-PXZ_toluene_T1_finalOpt
      * Solvation model:               GBSA
        Solvent                        toluene
        Solvent mass                       9.2140E+01 g/mol
          :  Hamiltonian                  GFN2-xTB          :
 * total energy  :  -145.6113587 Eh     change        0.4746028E-08 Eh
 * total energy  :  -145.6116146 Eh     change       -0.2559304E-03 Eh
 * total energy  :  -145.6118101 Eh     change       -0.1955030E-03 Eh
 * total energy  :  -145.6118449 Eh     change       -0.3473953E-04 Eh
 * total energy  :  -145.6118855 Eh     change       -0.4058835E-04 Eh
 * total energy  :  -145.6119103 Eh     change       -0.2479593E-04 Eh
 * total energy  :  -145.6119395 Eh     change       -0.2920488E-04 Eh
 * total energy  :  -145.6119701 Eh     change       -0.3064670E-04 Eh
 * total energy  :  -145.6120059 Eh     change       -0.3579388E-04 Eh
 * total energy  :  -145.6120240 Eh     change       -0.1808918E-04 Eh
 * total energy  :  -145.6126568 Eh     change       -0.7106068E-06 Eh
 * total energy  :  -145.6126575 Eh     change       -0.6859973E-06 Eh
 * total energy  :  -145.6126582 Eh     change       -0.6984646E-06 Eh
 * total energy  :  -145.6126589 Eh     change       -0.7068246E-06 Eh
 * total energy  :  -145.6126596 Eh     change       -0.7254264E-06 Eh
 * total energy  :  -145.6126603 Eh     change       -0.7589499E-06 Eh
 * total energy  :  -145.6126611 Eh     change       -0.7613419E-06 Eh
 * total energy  :  -145.6126618 Eh     change       -0.7284878E-06 Eh
 * total energy  :  -145.6126618 Eh     change       -0.3427459E-08 Eh
   *** GEOMETRY OPTIMIZATION CONVERGED AFTER 68 ITERATIONS ***

 final structure:
================
86
 xtb: 6.7.1 (edcfbbe)
O           -0.00272440177967        4.10676871918887        1.04706404160185
S           -0.00239701659894        2.89699065977629        1.86641981747084
O           -0.00284331209644        3.15710928490254        3.29726640752125
C           -1.38200748731520        1.88922249488600        1.44789065024799
C           -2.58252637241323        2.11513672537586        2.12993451311224
C           -3.70931874382206        1.39901995098817        1.81482482103988
C           -3.64127388662456        0.44197085063533        0.79308547349984
N           -4.79661958933164       -0.29434587267047        0.43165958240614
C           -4.87025786587527       -1.65408514042309        0.68753811252626
C           -3.82610322054801       -2.36103903383027        1.28508301018889
C           -3.94062443992259       -3.71603820718580        1.52461906116454
C           -5.10397208095223       -4.39875788780514        1.18486840068670
C           -6.16036600891622       -3.71375947299474        0.61343836822536
C           -6.05579151044954       -2.35239094239678        0.36698108974470
O           -7.14028680061661       -1.72704108626519       -0.17359779564821
C           -7.05177437320273       -0.39020018173962       -0.42687113124368
C           -8.15792131681378        0.23169594209206       -0.98518458518322
C           -8.11717083377630        1.58117733455725       -1.28655546587745
C           -6.95642162076887        2.30959783302063       -1.04264534149030
C           -5.85077615561683        1.70209881681419       -0.48317862156724
C           -5.87872485943136        0.34695555893011       -0.14629287215268
C           -2.43030983388431        0.20240288604046        0.13208036643639
C           -1.28290947795615        0.90443587757353        0.45758927780198
C           -0.00077867103562        0.60019254788837       -0.28880956965975
C           -0.00080251011307        1.33459207134652       -1.62695142247529
C           -0.00181681961523        2.69179902468370       -1.85791829952243
C           -0.00165527316654        3.13741328937453       -3.17582031204213
C           -0.00041287333610        2.23762037037559       -4.23246275330380
C            0.00057512934348        0.87210781593532       -4.00241613397622
C            0.00031300786331        0.41786847672743       -2.69158587353424
C            0.00081449779053       -0.92940717933933       -2.15217610363514
C            0.00159327217197       -2.16843429418707       -2.77828185955219
C            0.00163056095836       -3.30967590319397       -1.99332332285146
C            0.00091078750345       -3.22362013079065       -0.60818567799936
C            0.00015000941581       -1.98593409078125        0.02494486398201
C            0.00009357939295       -0.84770942708916       -0.75106431081205
C            1.28076759939844        0.90571594321179        0.45809656665573
C            2.42912203405288        0.20510416317452        0.13281386660598
C            3.63961644816834        0.44617048670246        0.79410966677410
N            4.79645121631046       -0.28750918308327        0.43206406938174
C            4.87335953111572       -1.64732820249969        0.68689490224325
C            3.83089367420851       -2.35712679280195        1.28390179610800
C            3.94859170464608       -3.71209680590880        1.52242862605111
C            5.11343104609394       -4.39174680724361        1.18219669249796
C            6.16819185819454       -3.70380234553899        0.61115109107476
C            6.06033553597075       -2.34255751338022        0.36569684903824
O            7.14337698257119       -1.71434635789948       -0.17473862337752
C            7.05159719640045       -0.37744648735333       -0.42705915407709
C            8.15612500679940        0.24730666875697       -0.98529988079452
C            8.11224609994463        1.59696538319028       -1.28565736024296
C            6.95008362534854        2.32250080085583       -1.04076392481012
C            5.84595411651477        1.71200415285218       -0.48141124439828
C            5.87709249542595        0.35671170621883       -0.14562603939909
C            3.70606276694528        1.40291516863036        1.81623706194024
C            2.57828851893473        2.11754112629381        2.13120188125877
C            1.37835131876174        1.89047200071616        1.44855176030295
H           -2.58150076689925        2.86608195080372        2.90445529210263
H           -4.63947645193743        1.56638883699094        2.33598098972620
H           -2.92735100008037       -1.83455579062117        1.56112089918134
H           -3.12079876592245       -4.24340065439288        1.98574815045425
H           -5.18963573804544       -5.45699216637250        1.37269798160487
H           -7.08171115832862       -4.21025187905206        0.35362992214129
H           -9.03644448685710       -0.36330769843926       -1.17795844591478
H           -8.98065731696353        2.06120927018648       -1.71806744142642
H           -6.91398906269668        3.35802662286339       -1.29294296342393
H           -4.95069778799110        2.26876083893356       -0.30524475325907
H           -2.40746088270385       -0.54234481407223       -0.64876026140262
H           -0.00271460112256        3.39497804973507       -1.03780699265987
H           -0.00247631935207        4.19916215353275       -3.37518997116606
H           -0.00025118428546        2.60915398885106       -5.24723774277575
H            0.00150340023893        0.17478311917987       -4.82699722515702
H            0.00213614973310       -2.24050977652363       -3.85553550463357
H            0.00212486175706       -4.28148281350605       -2.46530508877607
H            0.00091139550833       -4.12692973569663       -0.01725501470950
H           -0.00043309067521       -1.91549503550587        1.10318855536047
H            2.40740432148375       -0.53949038981442       -0.64820612535709
H            2.93093763070818       -1.83292692884512        1.56037447841090
H            3.12995756042009       -4.24170245016415        1.98311830538549
H            5.20167875908163       -5.44991014951499        1.36924171896451
H            7.09068404207315       -4.19791431183316        0.35086146218231
H            9.03590800683474       -0.34557901492336       -1.17883499909945
H            8.97449780095672        2.07922052416396       -1.71715017877605
H            6.90514379778661        3.37105150234733       -1.29012619025462
H            4.94467928764706        2.27652140568222       -0.30275380064323
H            4.63586188497149        1.57135951032282        2.33768530034360
H            2.57607885479100        2.86828163611322        2.90591763986768

          :  Hamiltonian                  GFN2-xTB          :
         :: gradient norm              0.000066978776 Eh/a0 ::
         :: HOMO-LUMO gap              0.071664805530 eV    ::
         :: SCC energy              -148.049060213479 Eh    ::
         :: -> dispersion             -0.136839101964 Eh    ::
         :: -> Gsolv                  -0.068697705467 Eh    ::
         :: repulsion energy           2.436398371334 Eh    ::

    * Orbital Energies and Occupations

         #    Occupation            Energy/Eh            Energy/eV
      -------------------------------------------------------------
         1        2.0000           -0.7584210             -20.6377
       ...           ...                  ...                  ...
       122        2.0000           -0.4169691             -11.3463
       123        2.0000           -0.4147607             -11.2862
       124        2.0000           -0.4137284             -11.2581
       125        2.0000           -0.4049723             -11.0199
       126        2.0000           -0.4038176             -10.9884
       127        2.0000           -0.4033087             -10.9746
       128        2.0000           -0.4018820             -10.9358
       129        2.0000           -0.4012123             -10.9175
       130        2.0000           -0.3936551             -10.7119
       131        2.0000           -0.3800608             -10.3420
       132        1.5691           -0.3565503              -9.7022
       133        1.4309           -0.3560216              -9.6878
       134        0.6940           -0.2573603              -7.0031 (HOMO)
       135        0.1242           -0.2547266              -6.9315 (LUMO)
       136        0.1093           -0.2545888              -6.9277
       137        0.0719           -0.2541522              -6.9158
       138        0.0005           -0.2494084              -6.7867
       139        0.0000           -0.2415380              -6.5726
       140        0.0000           -0.2414204              -6.5694
       141                         -0.2373887              -6.4597
       142                         -0.2363301              -6.4309
       143                         -0.2266784              -6.1682
       144                         -0.2263253              -6.1586
       145                         -0.2258033              -6.1444
       ...                                ...                  ...
       259                          1.1548062              31.4239
      -------------------------------------------------------------
                  HL-Gap            0.0026336 Eh            0.0717 eV

     #   Z          covCN         q      C6AA      α(0)
     1   8 O        0.860    -0.614    26.465     6.897
     2  16 S        3.853     0.917   109.068    17.577
     3   8 O        0.860    -0.600    26.125     6.853
     4   6 C        2.971    -0.100    30.504     9.059
     5   6 C        2.972    -0.033    28.806     8.804
     6   6 C        2.916    -0.042    29.046     8.838
     7   6 C        2.922     0.035    27.208     8.554
     8   7 N        2.751    -0.017    21.584     6.900
     9   6 C        2.925     0.041    27.080     8.534
    10   6 C        2.919    -0.051    29.265     8.871
    11   6 C        2.917    -0.033    28.812     8.802
    12   6 C        2.918    -0.033    28.810     8.802
    13   6 C        2.915    -0.053    29.308     8.877
    14   6 C        2.884     0.127    25.207     8.231
    15   8 O        1.709    -0.225    17.724     5.684
    16   6 C        2.884     0.127    25.215     8.232
    17   6 C        2.915    -0.053    29.310     8.878
    18   6 C        2.918    -0.034    28.839     8.806
    19   6 C        2.917    -0.033    28.818     8.803
    20   6 C        2.919    -0.051    29.258     8.870
    21   6 C        2.925     0.040    27.103     8.538
    22   6 C        2.926    -0.050    29.233     8.867
    23   6 C        3.006     0.008    27.814     8.651
    24   6 C        3.944     0.005    20.423     6.422
    25   6 C        3.053    -0.001    28.010     8.680
    26   6 C        2.912    -0.042    29.045     8.837
    27   6 C        2.923    -0.034    28.844     8.807
    28   6 C        2.920    -0.034    28.843     8.807
    29   6 C        2.914    -0.037    28.923     8.819
    30   6 C        3.033    -0.002    28.046     8.687
    31   6 C        3.030    -0.001    28.023     8.683
    32   6 C        2.914    -0.037    28.913     8.817
    33   6 C        2.920    -0.033    28.831     8.805
    34   6 C        2.922    -0.036    28.885     8.814
    35   6 C        2.913    -0.035    28.861     8.809
    36   6 C        3.056    -0.002    28.028     8.682
    37   6 C        3.006     0.009    27.814     8.651
    38   6 C        2.926    -0.050    29.233     8.867
    39   6 C        2.922     0.035    27.207     8.554
    40   7 N        2.751    -0.017    21.589     6.901
    41   6 C        2.924     0.041    27.078     8.534
    42   6 C        2.919    -0.051    29.266     8.871
    43   6 C        2.917    -0.033    28.811     8.802
    44   6 C        2.918    -0.032    28.810     8.802
    45   6 C        2.915    -0.053    29.308     8.877
    46   6 C        2.884     0.127    25.206     8.231
    47   8 O        1.709    -0.225    17.728     5.685
    48   6 C        2.884     0.127    25.214     8.232
    49   6 C        2.915    -0.053    29.310     8.878
    50   6 C        2.918    -0.034    28.838     8.806
    51   6 C        2.917    -0.033    28.817     8.803
    52   6 C        2.919    -0.051    29.259     8.870
    53   6 C        2.925     0.040    27.101     8.537
    54   6 C        2.916    -0.042    29.046     8.838
    55   6 C        2.972    -0.033    28.806     8.804
    56   6 C        2.971    -0.100    30.503     9.059
    57   1 H        0.926     0.039     2.463     2.454
    58   1 H        0.926     0.050     2.314     2.379
    59   1 H        0.926     0.052     2.294     2.368
    60   1 H        0.926     0.055     2.262     2.352
    61   1 H        0.926     0.057     2.240     2.340
    62   1 H        0.926     0.062     2.175     2.306
    63   1 H        0.926     0.062     2.173     2.305
    64   1 H        0.926     0.055     2.258     2.350
    65   1 H        0.926     0.051     2.306     2.375
    66   1 H        0.926     0.048     2.347     2.396
    67   1 H        0.926     0.053     2.285     2.364
    68   1 H        0.926     0.034     2.531     2.488
    69   1 H        0.926     0.028     2.610     2.526
    70   1 H        0.926     0.034     2.527     2.486
    71   1 H        0.926     0.037     2.485     2.465
    72   1 H        0.926     0.035     2.519     2.482
    73   1 H        0.926     0.036     2.506     2.475
    74   1 H        0.926     0.038     2.480     2.463
    75   1 H        0.926     0.026     2.638     2.540
    76   1 H        0.926     0.053     2.285     2.364
    77   1 H        0.926     0.052     2.294     2.368
    78   1 H        0.926     0.055     2.261     2.352
    79   1 H        0.926     0.057     2.240     2.340
    80   1 H        0.926     0.062     2.175     2.306
    81   1 H        0.926     0.062     2.173     2.305
    82   1 H        0.926     0.055     2.257     2.350
    83   1 H        0.926     0.051     2.306     2.374
    84   1 H        0.926     0.048     2.347     2.396
    85   1 H        0.926     0.050     2.314     2.379
    86   1 H        0.926     0.039     2.463     2.454

molecular dipole:
                 x           y           z       tot (Debye)
 q only:        0.003      -4.661      -1.782
   full:        0.003      -4.146      -1.554      11.254

 projected vibrational frequencies (cm⁻¹)
eigval :       -0.00    -0.00     0.00     0.00     0.00     0.00
eigval :       10.01    13.34    18.01    20.23    25.00    29.83
eigval :       37.10    44.54    46.13    55.39    65.30    68.42
eigval :       86.59    93.48    97.61   104.91   106.95   108.94
eigval :      118.64   135.02   150.37   158.46   170.28   173.70
eigval :      187.87   220.71   221.23   234.32   242.64   243.36
eigval :      248.51   252.30   253.25   266.41   269.94   289.79
eigval :      290.86   297.32   313.53   342.20   350.32   368.32
eigval :      369.76   386.65   388.33   398.48   404.51   411.32
eigval :      412.99   421.64   423.36   423.59   424.13   425.93
eigval :      436.25   441.75   450.92   460.36   466.41   473.76
eigval :      488.15   488.77   490.16   502.39   504.78   519.01
eigval :      523.56   529.66   533.52   535.07   543.99   566.75
eigval :      580.30   589.47   591.65   595.65   604.75   622.49
eigval :      626.63   638.39   645.25   650.53   655.66   656.14
eigval :      659.15   659.81   660.04   668.25   673.17   681.07
eigval :      723.45   733.65   753.55   757.05   766.24   766.62
eigval :      770.34   771.09   779.09   785.31   799.73   805.93
eigval :      806.11   811.65   852.33   852.38   853.81   855.39
eigval :      862.86   862.97   866.99   867.82   876.14   878.31
eigval :      888.39   889.57   895.92   896.12   897.38   898.03
eigval :      898.23   899.20   900.59   905.43   905.75   907.96
eigval :      908.28   909.58   912.31   913.11   918.13   925.96
eigval :      935.30   968.37   992.24  1001.40  1016.68  1034.64
eigval :     1051.33  1070.61  1075.80  1076.08  1079.57  1080.87
eigval :     1084.05  1095.46  1114.66  1114.88  1117.57  1119.89
eigval :     1139.81  1144.12  1146.09  1146.83  1152.32  1168.43
eigval :     1168.65  1170.99  1172.50  1173.90  1175.83  1184.47
eigval :     1184.61  1188.01  1195.65  1204.02  1205.58  1205.77
eigval :     1222.19  1224.59  1234.90  1236.21  1238.04  1239.69
eigval :     1246.29  1253.60  1259.99  1268.18  1276.53  1294.03
eigval :     1296.47  1306.50  1308.23  1312.99  1317.14  1323.41
eigval :     1326.32  1328.02  1350.66  1351.01  1360.74  1362.78
eigval :     1369.87  1385.90  1387.16  1405.18  1406.51  1414.91
eigval :     1423.47  1425.79  1426.15  1429.30  1429.95  1434.59
eigval :     1436.27  1452.56  1458.00  1465.64  1478.38  1486.68
eigval :     1498.87  1504.33  1506.49  1509.77  1510.31  1517.06
eigval :     1517.79  1523.40  1564.60  1578.88  1584.89  1594.91
eigval :     3068.94  3070.92  3073.89  3077.98  3085.23  3086.76
eigval :     3088.74  3088.81  3093.95  3095.75  3095.86  3097.60
eigval :     3097.73  3099.00  3099.31  3101.02  3101.29  3101.82
eigval :     3102.97  3103.13  3104.35  3104.53  3109.54  3109.61
eigval :     3113.00  3113.12  3114.42  3114.47  3119.72  3119.88

   temp. (K)  partition function   enthalpy   heat capacity  entropy
                                   cal/mol     cal/K/mol   cal/K/mol   J/K/mol
 298.15  VIB  0.364E+20            25932.304    166.364    159.233
         ROT  0.101E+09              888.752      2.981     39.617
         INT  0.369E+28            26821.057    169.345    198.850
         TR   0.196E+29             1481.254      4.968     45.675
         TOT                       28302.3108   174.3134   244.5250  1023.0928

       T/K    H(0)-H(T)+PV         H(T)/Eh          T*S/Eh         G(T)/Eh
   ------------------------------------------------------------------------
    298.15    0.451026E-01    0.673970E+00    0.116182E+00    0.557788E+00
   ------------------------------------------------------------------------

         :::::::::::::::::::::::::::::::::::::::::::::::::::::
         ::                  THERMODYNAMIC                  ::
         :::::::::::::::::::::::::::::::::::::::::::::::::::::
         :: total free energy        -145.054873898626 Eh   ::
         ::.................................................::
         :: total energy             -145.612661841502 Eh   ::
         :: zero point energy           0.628867081378 Eh   ::
         :: G(RRHO) w/o ZPVE           -0.071079138502 Eh   ::
         :: G(RRHO) contrib.            0.557787942876 Eh   ::
         :::::::::::::::::::::::::::::::::::::::::::::::::::::

           -------------------------------------------------
          | TOTAL ENERGY             -145.612661841502 Eh   |
          | TOTAL ENTHALPY           -144.938692157019 Eh   |
          | TOTAL FREE ENERGY        -145.054873898626 Eh   |
          | GRADIENT NORM               0.000066309176 Eh/α |
          | HOMO-LUMO GAP               0.071665170528 eV   |
           -------------------------------------------------

 * finished run on 2025/09/08 at 07:08:03.304
