   * xtb version 6.7.1 (edcfbbe) compiled by 'albert@albert-system' on 2024-07-22

   ID    Z sym.   atoms
    1    6 C      1-7, 9-14, 16-30, 32-40, 42, 43
    2    8 O      8, 31, 41
    3    7 N      15
    4    1 H      44-74

          program call               : xtb data2507/toluene/IpCm-PhBzAc/IpCm-PhBzAc_toluene_T1_crest.xyz --gfn 2 --uhf 2 --gbsa toluene --ohess vtight --parallel 40 --molden --ceasefiles --namespace data2507/toluene/IpCm-PhBzAc/IpCm-PhBzAc_toluene_T1_finalOpt
      * Solvation model:               GBSA
        Solvent                        toluene
        Solvent mass                       9.2140E+01 g/mol
          :  Hamiltonian                  GFN2-xTB          :
 * total energy  :  -114.4806779 Eh     change       -0.8276402E-10 Eh
 * total energy  :  -114.4809077 Eh     change       -0.2297660E-03 Eh
 * total energy  :  -114.4810153 Eh     change       -0.1076287E-03 Eh
 * total energy  :  -114.4810484 Eh     change       -0.3308192E-04 Eh
 * total energy  :  -114.4810896 Eh     change       -0.4125221E-04 Eh
 * total energy  :  -114.4811152 Eh     change       -0.2556905E-04 Eh
 * total energy  :  -114.4811391 Eh     change       -0.2389236E-04 Eh
 * total energy  :  -114.4811559 Eh     change       -0.1680054E-04 Eh
 * total energy  :  -114.4811695 Eh     change       -0.1360768E-04 Eh
 * total energy  :  -114.4811771 Eh     change       -0.7577631E-05 Eh
 * total energy  :  -114.4812299 Eh     change       -0.6455844E-06 Eh
 * total energy  :  -114.4812305 Eh     change       -0.5953606E-06 Eh
 * total energy  :  -114.4812312 Eh     change       -0.6593368E-06 Eh
 * total energy  :  -114.4812320 Eh     change       -0.7972033E-06 Eh
 * total energy  :  -114.4812328 Eh     change       -0.8211587E-06 Eh
 * total energy  :  -114.4812335 Eh     change       -0.7370147E-06 Eh
 * total energy  :  -114.4812342 Eh     change       -0.6368375E-06 Eh
 * total energy  :  -114.4812347 Eh     change       -0.5567322E-06 Eh
 * total energy  :  -114.4812347 Eh     change       -0.9917741E-08 Eh
   *** GEOMETRY OPTIMIZATION CONVERGED AFTER 44 ITERATIONS ***

 final structure:
================
74
 xtb: 6.7.1 (edcfbbe)
C            9.61898121123270       -1.29313290466510        0.47329080411188
C            9.35066748762191        0.12734236312806        0.97727206570157
C            9.21169068889826        0.14630785170658        2.50169249402863
C            8.12104137301077        0.70436818751998        0.31981752536577
C            8.20786320189830        1.83650020357831       -0.47674237766624
C            7.08186328060727        2.38008569161713       -1.08248199792043
C            5.83967672018208        1.78540314670404       -0.89178142892856
O            4.76667564650357        2.35102063218085       -1.49827694963259
C            3.54677096896462        1.77588066093824       -1.31325576301335
C            3.31037941504628        0.64343904424069       -0.55287981751082
C            1.96325453662631        0.11918773614578       -0.43023473359685
C            1.57100652052942       -0.63153986299859        0.69084421078440
C            0.30516457280442       -1.15388155755117        0.79982050599693
C           -0.64034112165142       -0.92440192885436       -0.20481198600676
N           -1.95001883348551       -1.44364978968908       -0.09444882555445
C           -2.13436114615182       -2.81373825697468       -0.12659212711814
C           -1.02844468632499       -3.66564095257548       -0.28768444822931
C           -1.18583331718864       -5.03187313634566       -0.30594164142849
C           -2.45433330680030       -5.58354775139692       -0.18516577249293
C           -3.55131992412308       -4.74927796866050       -0.07649597971949
C           -3.42493122845570       -3.36638561529788       -0.05159263112334
C           -4.66612821502157       -2.50663824197329        0.00805209797856
C           -5.45193408653315       -2.85413528270811        1.28887064245789
C           -5.52218689966388       -2.80843001154399       -1.23889625173520
C           -4.34169767920740       -1.02818902368421        0.03321561388367
C           -5.37932936373172       -0.11955641579699        0.10243554764461
C           -5.11796529973887        1.24943236811188        0.17785818125574
C           -3.77170670864822        1.68935605302531        0.21766339952049
C           -2.72049019396884        0.81644622528581        0.15012217931838
C           -3.00283388683087       -0.56412528838582        0.01800657108254
O           -3.69231130409970        3.04376314463912        0.33555528763431
C           -4.98325460460226        3.49762290503394        0.36564181947178
C           -5.38626652930670        4.81134613982213        0.46954828315835
C           -6.75474702145459        5.05803571192987        0.48066641619569
C           -7.68100211215893        4.02042518738882        0.39075363916524
C           -7.27909471503720        2.70477134651233        0.28805051474976
C           -5.90936165244427        2.43033397263048        0.27300817362728
C           -0.27450522547404       -0.16568949492409       -1.32073814181180
C            0.99818459177320        0.33767197678184       -1.43283537701397
C            4.41862701443676       -0.00322841716196        0.10996428128318
O            4.32429968835649       -1.05248553937901        0.79263423689718
C            5.72416541396688        0.63847268057095       -0.09408269779771
C            6.87172413436899        0.11490163434787        0.49727226288564
H            9.72782144699458       -1.29587240749459       -0.60945568489468
H           10.53297048253160       -1.68308968014084        0.91615812490766
H            8.79763711923747       -1.95530435585438        0.73600883927729
H           10.20711377538900        0.75445482916691        0.70453530373278
H            9.02414163935146        1.15957837228910        2.85148081725108
H           10.12440803304584       -0.21951639315836        2.96716974413228
H            8.38496529516312       -0.48406661263668        2.81989172449567
H            9.16567907855227        2.31113257271603       -0.63344953140479
H            7.14962648189770        3.25836089221761       -1.70536833875403
H            2.77553422888112        2.34067061372656       -1.80769881509232
H            2.28605066861426       -0.79583796258390        1.48157959940090
H            0.02172800060606       -1.71629459015309        1.67723244674217
H           -0.04253651206959       -3.24649230410182       -0.40585005350971
H           -0.32105814266152       -5.66677106855017       -0.42290870221666
H           -2.58711799021627       -6.65421784069939       -0.19517413646764
H           -4.53173380682169       -5.19387738029927       -0.01404737565759
H           -4.85026759869344       -2.62704906259292        2.16671301434556
H           -5.70723153769939       -3.90895285120471        1.30978575528515
H           -6.37131829329259       -2.28002043716793        1.34447104707702
H           -6.43206486964840       -2.21655337101322       -1.23212157422544
H           -5.79708938876335       -3.85804362642348       -1.27253548155039
H           -4.96194516529866       -2.56935462091481       -2.14064777033667
H           -6.40395489749015       -0.45111563538013        0.10834569154291
H           -1.70845884363610        1.17684020321081        0.21224824149938
H           -4.66536623804628        5.61030799673307        0.53939550790706
H           -7.10388822247438        6.07611769112835        0.56049119924423
H           -8.73471240383343        4.25661637290599        0.40286003467353
H           -7.99805658165918        1.90366725503136        0.21860260863013
H           -0.99543363761465       -0.00647972833720       -2.10933214966206
H            1.27415055115385        0.87103659700999       -2.32808068874555
H            6.74857053557623       -0.76906441680743        1.10479184427346

          :  Hamiltonian                  GFN2-xTB          :
         :: gradient norm              0.000061471931 Eh/a0 ::
         :: HOMO-LUMO gap              0.086924294434 eV    ::
         :: SCC energy              -116.370385706586 Eh    ::
         :: -> dispersion             -0.096603313684 Eh    ::
         :: -> Gsolv                  -0.057280109256 Eh    ::
         :: repulsion energy           1.889150963084 Eh    ::

    * Orbital Energies and Occupations

         #    Occupation            Energy/Eh            Energy/eV
      -------------------------------------------------------------
         1        2.0000           -0.7424162             -20.2022
       ...           ...                  ...                  ...
        94        2.0000           -0.4217920             -11.4775
        95        2.0000           -0.4211064             -11.4589
        96        2.0000           -0.4164859             -11.3332
        97        2.0000           -0.4144213             -11.2770
        98        2.0000           -0.4132011             -11.2438
        99        2.0000           -0.4035693             -10.9817
       100        2.0000           -0.4019859             -10.9386
       101        2.0000           -0.3970246             -10.8036
       102        2.0000           -0.3938791             -10.7180
       103        1.9998           -0.3743294             -10.1860
       104        1.9533           -0.3688922             -10.0381
       105        1.0468           -0.3631642              -9.8822
       106        0.8431           -0.2671438              -7.2694 (HOMO)
       107        0.1569           -0.2639492              -7.1824 (LUMO)
       108        0.0000           -0.2555876              -6.9549
       109                         -0.2388680              -6.4999
       110                         -0.2374575              -6.4615
       111                         -0.2319302              -6.3111
       112                         -0.2302720              -6.2660
       113                         -0.2164638              -5.8903
       114                         -0.2139509              -5.8219
       115                         -0.2079847              -5.6596
       116                         -0.1943486              -5.2885
       117                         -0.1481788              -4.0322
       ...                                ...                  ...
       203                          0.7356415              20.0178
      -------------------------------------------------------------
                  HL-Gap            0.0031946 Eh            0.0869 eV

     #   Z          covCN         q      C6AA      α(0)
     1   6 C        3.756    -0.102    22.509     6.765
     2   6 C        3.855    -0.014    20.783     6.484
     3   6 C        3.756    -0.102    22.509     6.765
     4   6 C        2.968     0.004    27.933     8.669
     5   6 C        2.924    -0.043    29.067     8.841
     6   6 C        2.913    -0.067    29.668     8.932
     7   6 C        2.888     0.130    25.150     8.222
     8   8 O        1.709    -0.229    17.798     5.696
     9   6 C        2.816     0.049    26.891     8.496
    10   6 C        2.956    -0.052    29.296     8.878
    11   6 C        2.973     0.018    27.613     8.619
    12   6 C        2.923    -0.026    28.663     8.780
    13   6 C        2.916    -0.038    28.943     8.822
    14   6 C        2.932     0.047    26.942     8.512
    15   7 N        2.754     0.010    21.081     6.819
    16   6 C        2.929     0.057    26.726     8.478
    17   6 C        2.921    -0.044    29.096     8.846
    18   6 C        2.917    -0.026    28.651     8.778
    19   6 C        2.917    -0.028    28.697     8.784
    20   6 C        2.925    -0.031    28.780     8.798
    21   6 C        2.979     0.003    27.950     8.672
    22   6 C        3.910     0.026    20.083     6.370
    23   6 C        3.761    -0.110    22.651     6.785
    24   6 C        3.761    -0.110    22.647     6.784
    25   6 C        2.975    -0.003    28.106     8.696
    26   6 C        2.917    -0.044    29.085     8.844
    27   6 C        3.051    -0.019    28.440     8.746
    28   6 C        3.089     0.132    25.016     8.198
    29   6 C        2.910    -0.076    29.890     8.965
    30   6 C        2.933     0.051    26.863     8.500
    31   8 O        1.713    -0.243    18.024     5.732
    32   6 C        3.097     0.129    25.074     8.206
    33   6 C        2.907    -0.055    29.362     8.885
    34   6 C        2.926    -0.033    28.821     8.804
    35   6 C        2.918    -0.037    28.912     8.817
    36   6 C        2.911    -0.036    28.904     8.816
    37   6 C        3.053    -0.019    28.425     8.744
    38   6 C        2.916    -0.037    28.916     8.818
    39   6 C        2.922    -0.040    29.000     8.831
    40   6 C        2.835     0.188    23.975     8.024
    41   8 O        0.857    -0.521    24.264     6.604
    42   6 C        2.971    -0.041    29.026     8.837
    43   6 C        2.929    -0.040    28.994     8.831
    44   1 H        0.925     0.033     2.547     2.496
    45   1 H        0.925     0.041     2.429     2.437
    46   1 H        0.925     0.038     2.480     2.463
    47   1 H        0.924     0.035     2.513     2.479
    48   1 H        0.925     0.033     2.548     2.496
    49   1 H        0.925     0.041     2.432     2.439
    50   1 H        0.925     0.038     2.480     2.463
    51   1 H        0.926     0.040     2.449     2.447
    52   1 H        0.926     0.043     2.409     2.427
    53   1 H        0.926     0.047     2.362     2.403
    54   1 H        0.926     0.062     2.181     2.309
    55   1 H        0.926     0.048     2.341     2.393
    56   1 H        0.926     0.047     2.352     2.398
    57   1 H        0.926     0.046     2.375     2.410
    58   1 H        0.926     0.049     2.334     2.389
    59   1 H        0.926     0.056     2.246     2.343
    60   1 H        0.925     0.039     2.456     2.451
    61   1 H        0.925     0.056     2.249     2.345
    62   1 H        0.925     0.055     2.261     2.351
    63   1 H        0.925     0.055     2.257     2.350
    64   1 H        0.925     0.055     2.252     2.347
    65   1 H        0.925     0.040     2.455     2.450
    66   1 H        0.926     0.060     2.200     2.319
    67   1 H        0.926     0.055     2.257     2.349
    68   1 H        0.926     0.045     2.388     2.417
    69   1 H        0.926     0.044     2.398     2.422
    70   1 H        0.926     0.043     2.410     2.428
    71   1 H        0.926     0.046     2.372     2.408
    72   1 H        0.926     0.050     2.325     2.384
    73   1 H        0.926     0.044     2.401     2.423
    74   1 H        0.926     0.042     2.416     2.431

molecular dipole:
                 x           y           z       tot (Debye)
 q only:       -5.333      -1.496      -0.386
   full:       -5.105      -1.216      -0.484      13.394

 projected vibrational frequencies (cm⁻¹)
eigval :       -0.00     0.00     0.00     0.00     0.00     0.00
eigval :       10.64    14.69    18.40    32.79    34.35    43.50
eigval :       50.52    51.71    66.14    74.41    82.98   102.76
eigval :      113.33   118.30   127.94   137.92   141.70   149.63
eigval :      164.97   193.94   196.46   201.36   214.00   219.93
eigval :      227.69   231.33   240.45   268.68   269.73   287.38
eigval :      293.81   300.61   309.16   321.64   326.70   333.92
eigval :      351.68   368.74   378.99   384.04   389.10   401.11
eigval :      413.53   414.69   424.43   435.52   448.41   453.69
eigval :      471.70   482.15   507.46   518.56   521.88   524.98
eigval :      526.35   537.62   539.02   552.25   565.56   571.51
eigval :      589.10   593.78   601.47   608.58   620.80   645.79
eigval :      653.00   655.57   669.78   679.34   681.58   697.71
eigval :      699.54   704.33   704.68   721.24   728.07   765.68
eigval :      766.21   772.42   805.64   808.68   810.58   826.03
eigval :      828.90   837.82   855.79   857.31   857.94   861.02
eigval :      869.64   872.24   889.75   890.30   894.55   902.19
eigval :      912.06   917.07   917.33   921.59   923.34   932.41
eigval :      946.19   953.54   958.79   983.77   993.73  1002.03
eigval :     1012.98  1026.10  1051.85  1058.03  1068.42  1072.26
eigval :     1082.85  1091.95  1105.54  1115.63  1134.82  1135.59
eigval :     1140.16  1142.97  1143.51  1156.09  1160.87  1167.77
eigval :     1177.84  1182.80  1184.16  1186.11  1202.54  1208.50
eigval :     1218.97  1225.77  1234.01  1234.21  1242.30  1251.07
eigval :     1258.38  1267.69  1278.03  1285.60  1289.62  1307.25
eigval :     1310.28  1312.90  1320.88  1331.79  1337.91  1347.02
eigval :     1349.28  1367.28  1389.69  1397.09  1399.04  1402.15
eigval :     1407.86  1409.83  1414.33  1416.69  1417.27  1430.86
eigval :     1448.89  1452.52  1459.58  1463.59  1468.80  1476.29
eigval :     1479.46  1481.01  1489.63  1490.30  1493.63  1494.60
eigval :     1496.00  1498.53  1504.43  1519.58  1533.86  1541.53
eigval :     1552.14  1567.30  1571.06  1572.11  1581.65  2924.77
eigval :     3023.28  3027.67  3027.96  3030.07  3030.39  3032.08
eigval :     3040.17  3042.62  3053.40  3055.37  3060.12  3064.10
eigval :     3075.21  3079.23  3081.59  3083.19  3089.31  3091.25
eigval :     3091.68  3096.50  3098.42  3098.67  3101.46  3104.99
eigval :     3105.26  3105.97  3113.65  3115.83  3116.91  3132.04

   temp. (K)  partition function   enthalpy   heat capacity  entropy
                                   cal/mol     cal/K/mol   cal/K/mol   J/K/mol
 298.15  VIB  0.710E+16            21327.957    135.587    131.147
         ROT  0.829E+08              888.752      2.981     39.215
         INT  0.588E+24            22216.709    138.568    170.362
         TR   0.129E+29             1481.254      4.968     44.842
         TOT                       23697.9634   143.5360   215.2038   900.4129

       T/K    H(0)-H(T)+PV         H(T)/Eh          T*S/Eh         G(T)/Eh
   ------------------------------------------------------------------------
    298.15    0.377651E-01    0.612864E+00    0.102250E+00    0.510614E+00
   ------------------------------------------------------------------------

         :::::::::::::::::::::::::::::::::::::::::::::::::::::
         ::                  THERMODYNAMIC                  ::
         :::::::::::::::::::::::::::::::::::::::::::::::::::::
         :: total free energy        -113.970620612408 Eh   ::
         ::.................................................::
         :: total energy             -114.481234737586 Eh   ::
         :: zero point energy           0.575099304892 Eh   ::
         :: G(RRHO) w/o ZPVE           -0.064485179714 Eh   ::
         :: G(RRHO) contrib.            0.510614125178 Eh   ::
         :::::::::::::::::::::::::::::::::::::::::::::::::::::

           -------------------------------------------------
          | TOTAL ENERGY             -114.481234737586 Eh   |
          | TOTAL ENTHALPY           -113.868370324158 Eh   |
          | TOTAL FREE ENERGY        -113.970620612408 Eh   |
          | GRADIENT NORM               0.000059237689 Eh/α |
          | HOMO-LUMO GAP               0.086930850920 eV   |
           -------------------------------------------------

 * finished run on 2025/09/04 at 14:42:26.993
