   * xtb version 6.7.1 (edcfbbe) compiled by 'albert@albert-system' on 2024-07-22

   ID    Z sym.   atoms
    1    6 C      1-7, 9-14, 16-30, 32-40, 42, 43
    2    8 O      8, 31, 41
    3    7 N      15
    4    1 H      44-74

          program call               : xtb data2507/toluene/IpCm-PhBzAc/IpCm-PhBzAc.xyz --gfn 2 --gbsa toluene --ohess vtight --parallel 40 --molden --ceasefiles --namespace data2507/toluene/IpCm-PhBzAc/IpCm-PhBzAc_toluene_S0_preOpt
      * Solvation model:               GBSA
        Solvent                        toluene
        Solvent mass                       9.2140E+01 g/mol
          :  Hamiltonian                  GFN2-xTB          :
 * total energy  :  -114.5491564 Eh     change       -0.1999169E-08 Eh
 * total energy  :  -114.5634749 Eh     change       -0.1431854E-01 Eh
 * total energy  :  -114.5681034 Eh     change       -0.4628458E-02 Eh
 * total energy  :  -114.5692273 Eh     change       -0.1123873E-02 Eh
 * total energy  :  -114.5700341 Eh     change       -0.8068153E-03 Eh
 * total energy  :  -114.5702798 Eh     change       -0.2456864E-03 Eh
 * total energy  :  -114.5703533 Eh     change       -0.7353100E-04 Eh
 * total energy  :  -114.5703845 Eh     change       -0.3118049E-04 Eh
 * total energy  :  -114.5704050 Eh     change       -0.2051068E-04 Eh
 * total energy  :  -114.5704213 Eh     change       -0.1633291E-04 Eh
 * total energy  :  -114.5704993 Eh     change       -0.1172582E-05 Eh
 * total energy  :  -114.5705003 Eh     change       -0.9776790E-06 Eh
 * total energy  :  -114.5705015 Eh     change       -0.1197835E-05 Eh
 * total energy  :  -114.5705026 Eh     change       -0.1057267E-05 Eh
 * total energy  :  -114.5705034 Eh     change       -0.8452385E-06 Eh
 * total energy  :  -114.5705041 Eh     change       -0.7257033E-06 Eh
 * total energy  :  -114.5705046 Eh     change       -0.5135811E-06 Eh
 * total energy  :  -114.5705050 Eh     change       -0.3895203E-06 Eh
 * total energy  :  -114.5705050 Eh     change       -0.6572108E-08 Eh
   *** GEOMETRY OPTIMIZATION CONVERGED AFTER 44 ITERATIONS ***

 final structure:
================
74
 xtb: 6.7.1 (edcfbbe)
C            9.60467996218338        0.65289869547162       -1.70239060595313
C            8.57792708873690        1.41655014787976       -0.86183331002389
C            9.27257915585938        2.31127299563614        0.16839379503804
C            7.62420516262465        0.46494507541876       -0.18360674075579
C            8.08602167203785       -0.48368484314764        0.73676809666959
C            7.22388246248527       -1.35057246687118        1.36679907366717
C            5.85773122382891       -1.29106598299637        1.08931476195798
O            5.03810961989460       -2.16081511298363        1.73368157885966
C            3.73148397290377       -2.10318058288760        1.48041917813347
C            3.12513034593464       -1.25339423171456        0.61983650277269
C            1.66447891190948       -1.28381704466244        0.44611115186465
C            0.82445165307440       -1.39514509556233        1.55321806275470
C           -0.54747482645028       -1.41665371270371        1.39546817215535
C           -1.10216278052650       -1.32487678856158        0.12449898670127
N           -2.51835565780398       -1.34467651180825       -0.03410638826561
C           -3.15435749820730       -2.56731808960103       -0.18649997778435
C           -2.39418720099778       -3.74003470316559       -0.22389525383753
C           -2.99724351704086       -4.97148191730961       -0.37315380678245
C           -4.37363596585110       -5.05440191407445       -0.48708794390096
C           -5.12652899960916       -3.89496373123997       -0.45174118712276
C           -4.54556299220845       -2.64244575127787       -0.30395805713574
C           -5.42521251288890       -1.40724854775919       -0.26984289101607
C           -6.39377293978063       -1.52989130910128        0.92176162492403
C           -6.21236092797399       -1.32715319305426       -1.59166426535496
C           -4.61544243247285       -0.13105339946231       -0.11116257940953
C           -5.28448192949597        1.07965702235779       -0.07337302750290
C           -4.58367973441200        2.26915614465677        0.06359900514537
C           -3.18264686090569        2.22783733888873        0.16345038694665
C           -2.48677225470334        1.04079459035315        0.13334657019353
C           -3.20976635725254       -0.14968847627546       -0.00473837809975
O           -2.64621966484708        3.47777609987149        0.28884127259195
C           -3.70433699552984        4.34382044340719        0.26872178429910
C           -3.63745887740968        5.72075430617830        0.36411178226133
C           -4.83311511166716        6.41943535993416        0.32239429882134
C           -6.05252545209414        5.76161356592202        0.19064601139982
C           -6.11760736965499        4.38425760923006        0.09479154560006
C           -4.93179727763773        3.66234411479962        0.13355348062184
C           -0.27307597707579       -1.21128686819615       -0.98409129373103
C            1.09960220944897       -1.18987545066797       -0.82352382032012
C            3.93263898642917       -0.28489646424861       -0.13037487796616
O            3.46553257213395        0.52423126898228       -0.92680483560033
C            5.36831735479216       -0.35604117124807        0.17152328117919
C            6.27161502464991        0.51113360008507       -0.45225213601521
H           10.23632548762913        0.02991033976974       -1.07451280062659
H            9.10221197620664        0.01578721678239       -2.42719774889556
H           10.23962910698826        1.35351099408176       -2.23983301268042
H            7.99494438820182        2.05661626828094       -1.53263983979259
H            9.89608081126771        1.72344464140730        0.83704808951827
H            8.53542101189033        2.84542334130725        0.76428057371341
H            9.90252908244549        3.04003509057927       -0.33640761950047
H            9.13941337963502       -0.53996207890000        0.96180838993991
H            7.57762100515146       -2.08122533707911        2.07713578954514
H            3.18306264853443       -2.84770422691218        2.04217492491911
H            1.24935100725393       -1.44490057613165        2.54439419309068
H           -1.19793051167220       -1.49803634839564        2.25385839749086
H           -1.32032073690739       -3.68010230985907       -0.13628235705527
H           -2.38980080962802       -5.86427680859542       -0.39978655513604
H           -4.85841768309272       -6.01210442158811       -0.60336212787390
H           -6.19920517106921       -3.97542728251586       -0.54168408581081
H           -7.00506064363773       -2.42342383291733        0.83239674714213
H           -7.05405606015515       -0.66908728143301        0.97601007178156
H           -5.83066690603975       -1.59014826590509        1.85157236325907
H           -5.52187512857498       -1.22305226647694       -2.42685470901413
H           -6.88324085795607       -0.47292544193152       -1.59346038217376
H           -6.80427303373880       -2.22489826041981       -1.74531652999608
H           -6.35922722430470        1.11516465188731       -0.15061745970792
H           -1.41217250323175        1.03935843109029        0.21036488409045
H           -2.68801045570593        6.22275170204320        0.46586607393856
H           -4.81640076454861        7.49669480041469        0.39383137985927
H           -6.96324788748381        6.34153185707776        0.16231266446009
H           -7.06498888677654        3.87744475075209       -0.00832609381486
H           -0.70916382238138       -1.13894931257660       -1.96943924186280
H            1.73876027878282       -1.09841374583569       -1.68760302052983
H            5.86410763849359        1.22415269350383       -1.15488198625690

          :  Hamiltonian                  GFN2-xTB          :
         :: gradient norm              0.000057743978 Eh/a0 ::
         :: HOMO-LUMO gap              1.618982033115 eV    ::
         :: SCC energy              -116.481287965309 Eh    ::
         :: -> dispersion             -0.096581682440 Eh    ::
         :: -> Gsolv                  -0.050152705990 Eh    ::
         :: repulsion energy           1.910782922759 Eh    ::

    * Orbital Energies and Occupations

         #    Occupation            Energy/Eh            Energy/eV
      -------------------------------------------------------------
         1        2.0000           -0.7639543             -20.7883
       ...           ...                  ...                  ...
        93        2.0000           -0.4246053             -11.5541
        94        2.0000           -0.4199749             -11.4281
        95        2.0000           -0.4178876             -11.3713
        96        2.0000           -0.4155663             -11.3081
        97        2.0000           -0.4116328             -11.2011
        98        2.0000           -0.4080467             -11.1035
        99        2.0000           -0.4078270             -11.0975
       100        2.0000           -0.3952911             -10.7564
       101        2.0000           -0.3933961             -10.7049
       102        2.0000           -0.3915735             -10.6553
       103        2.0000           -0.3909884             -10.6393
       104        2.0000           -0.3815433             -10.3823
       105        2.0000           -0.3459677              -9.4143 (HOMO)
       106                         -0.2864712              -7.7953 (LUMO)
       107                         -0.2631895              -7.1618
       108                         -0.2475111              -6.7351
       109                         -0.2362683              -6.4292
       110                         -0.2329255              -6.3382
       111                         -0.2260038              -6.1499
       112                         -0.2248982              -6.1198
       113                         -0.2182885              -5.9399
       114                         -0.2127319              -5.7887
       115                         -0.2033298              -5.5329
       116                         -0.1778513              -4.8396
       ...                                ...                  ...
       203                          0.7489735              20.3806
      -------------------------------------------------------------
                  HL-Gap            0.0594965 Eh            1.6190 eV

     #   Z          covCN         q      C6AA      α(0)
     1   6 C        3.756    -0.106    22.586     6.776
     2   6 C        3.855    -0.014    20.782     6.484
     3   6 C        3.756    -0.106    22.584     6.776
     4   6 C        2.969     0.016    27.646     8.625
     5   6 C        2.926    -0.024    28.607     8.771
     6   6 C        2.913    -0.050    29.245     8.868
     7   6 C        2.900     0.132    25.105     8.215
     8   8 O        1.710    -0.179    17.010     5.568
     9   6 C        2.828     0.100    25.765     8.318
    10   6 C        2.956    -0.048    29.187     8.861
    11   6 C        2.978     0.016    27.649     8.625
    12   6 C        2.924    -0.038    28.934     8.821
    13   6 C        2.920    -0.037    28.926     8.820
    14   6 C        2.928     0.068    26.477     8.439
    15   7 N        2.755    -0.066    22.520     7.048
    16   6 C        2.928     0.058    26.698     8.474
    17   6 C        2.924    -0.059    29.466     8.902
    18   6 C        2.919    -0.034    28.858     8.809
    19   6 C        2.917    -0.046    29.135     8.851
    20   6 C        2.928    -0.037    28.926     8.820
    21   6 C        2.979    -0.013    28.334     8.731
    22   6 C        3.909     0.022    20.143     6.379
    23   6 C        3.761    -0.105    22.558     6.771
    24   6 C        3.761    -0.105    22.560     6.771
    25   6 C        2.977    -0.019    28.487     8.755
    26   6 C        2.920    -0.042    29.055     8.839
    27   6 C        3.051    -0.036    28.853     8.810
    28   6 C        3.094     0.124    25.169     8.223
    29   6 C        2.914    -0.086    30.167     9.007
    30   6 C        2.931     0.060    26.660     8.468
    31   8 O        1.713    -0.254    18.204     5.761
    32   6 C        3.097     0.125    25.161     8.221
    33   6 C        2.908    -0.055    29.373     8.887
    34   6 C        2.926    -0.036    28.898     8.816
    35   6 C        2.920    -0.040    29.005     8.832
    36   6 C        2.913    -0.038    28.937     8.821
    37   6 C        3.055    -0.020    28.445     8.747
    38   6 C        2.920    -0.037    28.911     8.817
    39   6 C        2.924    -0.023    28.569     8.765
    40   6 C        2.833     0.224    23.286     7.908
    41   8 O        0.857    -0.461    22.949     6.423
    42   6 C        2.972    -0.041    29.005     8.834
    43   6 C        2.929    -0.029    28.731     8.790
    44   1 H        0.925     0.045     2.384     2.415
    45   1 H        0.925     0.035     2.510     2.478
    46   1 H        0.925     0.045     2.388     2.416
    47   1 H        0.924     0.039     2.462     2.454
    48   1 H        0.925     0.045     2.385     2.415
    49   1 H        0.925     0.035     2.516     2.480
    50   1 H        0.925     0.045     2.387     2.416
    51   1 H        0.926     0.067     2.123     2.279
    52   1 H        0.926     0.066     2.126     2.280
    53   1 H        0.925     0.080     1.980     2.201
    54   1 H        0.926     0.046     2.369     2.407
    55   1 H        0.926     0.048     2.339     2.392
    56   1 H        0.926     0.026     2.644     2.543
    57   1 H        0.926     0.028     2.609     2.526
    58   1 H        0.926     0.028     2.621     2.532
    59   1 H        0.926     0.035     2.523     2.484
    60   1 H        0.925     0.045     2.389     2.417
    61   1 H        0.925     0.043     2.410     2.428
    62   1 H        0.925     0.031     2.568     2.506
    63   1 H        0.925     0.031     2.574     2.509
    64   1 H        0.925     0.043     2.409     2.427
    65   1 H        0.925     0.044     2.391     2.418
    66   1 H        0.926     0.045     2.386     2.416
    67   1 H        0.926     0.036     2.501     2.473
    68   1 H        0.926     0.040     2.445     2.445
    69   1 H        0.926     0.040     2.451     2.448
    70   1 H        0.926     0.038     2.471     2.458
    71   1 H        0.926     0.039     2.461     2.453
    72   1 H        0.926     0.046     2.367     2.406
    73   1 H        0.926     0.050     2.325     2.384
    74   1 H        0.926     0.056     2.243     2.342

molecular dipole:
                 x           y           z       tot (Debye)
 q only:        1.497      -1.361       0.884
   full:        1.599      -1.384       0.978       5.922

 projected vibrational frequencies (cm⁻¹)
eigval :       -0.00    -0.00    -0.00     0.00     0.00     0.00
eigval :       10.32    12.25    18.78    25.24    33.60    41.69
eigval :       47.00    57.56    62.30    75.18    84.33   100.92
eigval :      106.16   125.68   127.26   133.38   141.70   151.56
eigval :      164.31   188.47   193.06   200.61   207.84   213.36
eigval :      216.36   223.21   229.30   248.41   271.11   288.47
eigval :      293.34   302.62   319.10   324.54   335.79   346.21
eigval :      359.62   376.44   382.22   385.98   394.70   408.62
eigval :      414.53   422.81   427.44   436.20   450.59   475.91
eigval :      490.80   495.48   503.83   511.62   519.98   533.25
eigval :      533.80   542.39   544.02   554.72   573.27   585.88
eigval :      592.39   600.73   612.58   625.83   649.52   662.71
eigval :      681.10   683.57   685.16   693.09   701.53   703.71
eigval :      706.48   725.12   740.55   749.48   776.72   776.88
eigval :      777.38   811.83   828.84   829.19   833.42   842.29
eigval :      852.55   866.14   868.99   869.43   870.56   875.32
eigval :      878.05   891.93   897.03   899.99   913.00   913.58
eigval :      920.62   921.16   921.70   925.00   927.22   936.53
eigval :      948.03   954.68   963.21   984.72  1000.04  1012.89
eigval :     1013.73  1060.89  1062.22  1072.69  1075.07  1085.82
eigval :     1109.47  1113.22  1122.64  1133.69  1134.44  1149.08
eigval :     1153.46  1158.09  1159.20  1168.87  1171.96  1184.06
eigval :     1184.72  1185.51  1191.73  1206.30  1225.48  1227.38
eigval :     1232.13  1241.42  1251.83  1255.03  1260.93  1265.00
eigval :     1273.99  1280.87  1284.05  1304.35  1309.00  1309.55
eigval :     1317.00  1327.26  1330.45  1341.11  1349.74  1364.02
eigval :     1374.01  1397.49  1399.51  1400.06  1411.89  1412.99
eigval :     1416.12  1422.61  1436.06  1445.43  1455.58  1458.40
eigval :     1478.95  1480.40  1485.03  1486.10  1487.97  1489.82
eigval :     1491.32  1495.28  1497.95  1501.22  1501.67  1557.97
eigval :     1560.97  1562.40  1583.00  1589.31  1592.42  1593.17
eigval :     1595.24  1596.62  1603.02  1614.09  1637.33  2936.23
eigval :     3022.32  3024.69  3028.36  3031.88  3033.40  3035.85
eigval :     3041.09  3042.18  3043.14  3045.44  3049.29  3053.36
eigval :     3068.13  3072.51  3076.94  3079.42  3081.83  3082.86
eigval :     3085.12  3087.68  3090.81  3092.82  3092.89  3097.80
eigval :     3098.79  3100.71  3101.68  3106.11  3107.87  3117.31

   temp. (K)  partition function   enthalpy   heat capacity  entropy
                                   cal/mol     cal/K/mol   cal/K/mol   J/K/mol
 298.15  VIB  0.113E+17            21132.652    133.278    130.673
         ROT  0.851E+08              888.752      2.981     39.267
         INT  0.963E+24            22021.405    136.259    169.940
         TR   0.129E+29             1481.254      4.968     44.842
         TOT                       23502.6587   141.2269   214.7818   898.6469

       T/K    H(0)-H(T)+PV         H(T)/Eh          T*S/Eh         G(T)/Eh
   ------------------------------------------------------------------------
    298.15    0.374539E-01    0.617783E+00    0.102050E+00    0.515733E+00
   ------------------------------------------------------------------------

         :::::::::::::::::::::::::::::::::::::::::::::::::::::
         ::                  THERMODYNAMIC                  ::
         :::::::::::::::::::::::::::::::::::::::::::::::::::::
         :: total free energy        -114.054771970105 Eh   ::
         ::.................................................::
         :: total energy             -114.570505043336 Eh   ::
         :: zero point energy           0.580328949161 Eh   ::
         :: G(RRHO) w/o ZPVE           -0.064595875929 Eh   ::
         :: G(RRHO) contrib.            0.515733073231 Eh   ::
         :::::::::::::::::::::::::::::::::::::::::::::::::::::

           -------------------------------------------------
          | TOTAL ENERGY             -114.570505043336 Eh   |
          | TOTAL ENTHALPY           -113.952722223452 Eh   |
          | TOTAL FREE ENERGY        -114.054771970105 Eh   |
          | GRADIENT NORM               0.000057756339 Eh/α |
          | HOMO-LUMO GAP               1.618981832506 eV   |
           -------------------------------------------------

 * finished run on 2025/09/04 at 14:29:54.758
