   * xtb version 6.7.1 (edcfbbe) compiled by 'albert@albert-system' on 2024-07-22

   ID    Z sym.   atoms
    1    6 C      1-7, 9-14, 16-30, 32-40, 42, 43
    2    8 O      8, 31, 41
    3    7 N      15
    4    1 H      44-74

          program call               : xtb data2507/toluene/IpCm-PhBzAc/IpCm-PhBzAc_toluene_S0_crest.xyz --gfn 2 --gbsa toluene --ohess vtight --parallel 40 --molden --ceasefiles --namespace data2507/toluene/IpCm-PhBzAc/IpCm-PhBzAc_toluene_S0_finalOpt
      * Solvation model:               GBSA
        Solvent                        toluene
        Solvent mass                       9.2140E+01 g/mol
          :  Hamiltonian                  GFN2-xTB          :
 * total energy  :  -114.5701198 Eh     change       -0.1323627E-08 Eh
 * total energy  :  -114.5702306 Eh     change       -0.1107926E-03 Eh
 * total energy  :  -114.5702666 Eh     change       -0.3602815E-04 Eh
 * total energy  :  -114.5702745 Eh     change       -0.7891023E-05 Eh
 * total energy  :  -114.5702834 Eh     change       -0.8922170E-05 Eh
 * total energy  :  -114.5702906 Eh     change       -0.7216146E-05 Eh
 * total energy  :  -114.5702958 Eh     change       -0.5189201E-05 Eh
 * total energy  :  -114.5703012 Eh     change       -0.5335055E-05 Eh
 * total energy  :  -114.5703073 Eh     change       -0.6099486E-05 Eh
 * total energy  :  -114.5703117 Eh     change       -0.4434354E-05 Eh
 * total energy  :  -114.5703869 Eh     change       -0.6181495E-06 Eh
 * total energy  :  -114.5703875 Eh     change       -0.6226218E-06 Eh
 * total energy  :  -114.5703883 Eh     change       -0.7457876E-06 Eh
 * total energy  :  -114.5703893 Eh     change       -0.1008199E-05 Eh
 * total energy  :  -114.5703906 Eh     change       -0.1286817E-05 Eh
 * total energy  :  -114.5703919 Eh     change       -0.1339495E-05 Eh
 * total energy  :  -114.5703932 Eh     change       -0.1317893E-05 Eh
 * total energy  :  -114.5703944 Eh     change       -0.1215572E-05 Eh
 * total energy  :  -114.5703944 Eh     change       -0.5389353E-08 Eh
   *** GEOMETRY OPTIMIZATION CONVERGED AFTER 44 ITERATIONS ***

 final structure:
================
74
 xtb: 6.7.1 (edcfbbe)
C            9.53757189156348       -1.14436761807952        1.21796720678076
C            9.26054935460925        0.36062558334887        1.25457661274878
C            9.04204483318116        0.83969673796785        2.69232034465483
C            8.07087030063792        0.71015837776860        0.39492401893220
C            8.20926811520008        1.59450501119361       -0.68001099006406
C            7.13787143265320        1.93676539176760       -1.47411713565230
C            5.88179669979401        1.39337013398891       -1.20727959973807
O            4.84554587516403        1.75775288050938       -2.00568426399983
C            3.64076185856356        1.25122540373279       -1.74784560044926
C            3.33708062235856        0.38484418178333       -0.75361116668631
C            1.95853709088189       -0.10023003045699       -0.58310548954947
C            1.39987183946338       -0.20898889905323        0.68831092996152
C            0.10279672198167       -0.65813725351156        0.84924753297384
C           -0.65783843166575       -1.00332981147718       -0.26059684101257
N           -2.00020366072860       -1.45343520918514       -0.09998434516304
C           -2.24993303704266       -2.81754106506882       -0.07522781912182
C           -1.18240285778292       -3.71609425951792       -0.16239593168124
C           -1.39965196093690       -5.07809728423040       -0.14860446541754
C           -2.68932550913574       -5.56856208887197       -0.04603521817240
C           -3.74498062955799       -4.68071630354871        0.05231624527367
C           -3.55498632844792       -3.30525238829537        0.04292463781441
C           -4.75219796415546       -2.38291893563134        0.17329359534986
C           -5.44701264668879       -2.67503738981448        1.51706039078744
C           -5.71675810504881       -2.65612918012847       -0.99631444427072
C           -4.35268149409508       -0.91715021693493        0.14020833511622
C           -5.34364426989743        0.04351348326591        0.24170431268494
C           -5.02468392776306        1.39324404443321        0.20672213458595
C           -3.67925874094346        1.77192476433468        0.06358134300107
C           -2.66986827139526        0.84232148685902       -0.04105593422633
C           -3.00829672183654       -0.51517736974248        0.00309737329938
O           -3.53415150190064        3.13011500250049        0.04126200593702
C           -4.79500472479792        3.64402041360455        0.17018693201141
C           -5.13460999848812        4.98311138776041        0.19579990228451
C           -6.47776538082346        5.29554785952023        0.33017347703787
C           -7.44588362369817        4.30129883422292        0.43611948806325
C           -7.10419862813112        2.96222130075599        0.41156808657423
C           -5.76373030648262        2.62454137868805        0.27713328242616
C           -0.10649472813805       -0.90499336355907       -1.53264682642028
C            1.19155500226385       -0.46013842436202       -1.69042704951004
C            4.39612732140665       -0.07531824043613        0.15146578085268
O            4.21726118752679       -0.87695863968084        1.06384357159345
C            5.71453740491469        0.50359294097964       -0.14034159495583
C            6.82200387563360        0.17739952117190        0.64683171617214
H            8.70681012555146       -1.70221559918772        1.64247822931276
H            9.68809050659520       -1.47834985618261        0.19345188671474
H           10.43290445330697       -1.37277834005105        1.79168805663713
H           10.13732702643393        0.87874213758276        0.85140245376675
H            8.86013179777614        1.91228257481165        2.71218912272471
H            9.92176418548851        0.62629391984654        3.29515725494761
H            8.18783270498091        0.33834852850001        3.14052929754912
H            9.17868966829575        2.02077935838973       -0.89192151642171
H            7.24414734574642        2.62088460735281       -2.30117556145439
H            2.89402972422658        1.63319404029963       -2.43135413684470
H            1.98461770113814        0.05967972483907        1.55396707440676
H           -0.32910852261291       -0.73844366529564        1.83585938903707
H           -0.17363541125224       -3.33970011285350       -0.23673188676624
H           -0.55933123304599       -5.75336888691655       -0.21687427891213
H           -2.87309661761212       -6.63244390011907       -0.03658652998441
H           -4.74461398274239       -5.07830171609777        0.14067934832960
H           -6.31835394027399       -2.04017532921402        1.65017499203326
H           -4.75736944727547       -2.48850006558169        2.33864067139905
H           -5.76880203841053       -3.71130649363911        1.56875244399686
H           -5.22700668597197       -2.42754260367638       -1.94132743124711
H           -6.60946846724613       -2.04266548848237       -0.91551333248729
H           -6.02111808168966       -3.69871147044422       -1.01140392407969
H           -6.37726230805743       -0.24419417472958        0.34729344366132
H           -1.64750315848406        1.16169678391205       -0.15435472983343
H           -4.37821150987214        5.74786805761855        0.11312357407068
H           -6.77757081072392        6.33259790947507        0.35283947286634
H           -8.48294201066955        4.58504070346054        0.53899432867171
H           -7.85758589545412        2.19369272358921        0.49400945300760
H           -0.69958627521516       -1.18380270847422       -2.39120107115635
H            1.62078639126913       -0.40610962771796       -2.67949717100322
H            6.65403809656748       -0.51022596757766        1.46209349262535

          :  Hamiltonian                  GFN2-xTB          :
         :: gradient norm              0.000057718631 Eh/a0 ::
         :: HOMO-LUMO gap              1.614704093143 eV    ::
         :: SCC energy              -116.480823809762 Eh    ::
         :: -> dispersion             -0.096635454146 Eh    ::
         :: -> Gsolv                  -0.049149474732 Eh    ::
         :: repulsion energy           1.910429373463 Eh    ::

    * Orbital Energies and Occupations

         #    Occupation            Energy/Eh            Energy/eV
      -------------------------------------------------------------
         1        2.0000           -0.7639436             -20.7880
       ...           ...                  ...                  ...
        93        2.0000           -0.4248361             -11.5604
        94        2.0000           -0.4199468             -11.4273
        95        2.0000           -0.4180209             -11.3749
        96        2.0000           -0.4157192             -11.3123
        97        2.0000           -0.4112542             -11.1908
        98        2.0000           -0.4085157             -11.1163
        99        2.0000           -0.4079791             -11.1017
       100        2.0000           -0.3950272             -10.7492
       101        2.0000           -0.3932404             -10.7006
       102        2.0000           -0.3919041             -10.6643
       103        2.0000           -0.3910886             -10.6421
       104        2.0000           -0.3820646             -10.3965
       105        2.0000           -0.3461116              -9.4182 (HOMO)
       106                         -0.2867723              -7.8035 (LUMO)
       107                         -0.2631956              -7.1619
       108                         -0.2479373              -6.7467
       109                         -0.2361372              -6.4256
       110                         -0.2332058              -6.3459
       111                         -0.2264818              -6.1629
       112                         -0.2248380              -6.1182
       113                         -0.2180054              -5.9322
       114                         -0.2128088              -5.7908
       115                         -0.2037776              -5.5451
       116                         -0.1781653              -4.8481
       ...                                ...                  ...
       203                          0.7484479              20.3663
      -------------------------------------------------------------
                  HL-Gap            0.0593393 Eh            1.6147 eV

     #   Z          covCN         q      C6AA      α(0)
     1   6 C        3.756    -0.106    22.574     6.775
     2   6 C        3.855    -0.014    20.789     6.485
     3   6 C        3.756    -0.106    22.571     6.774
     4   6 C        2.969     0.016    27.647     8.625
     5   6 C        2.927    -0.029    28.723     8.789
     6   6 C        2.912    -0.050    29.231     8.866
     7   6 C        2.900     0.132    25.107     8.216
     8   8 O        1.710    -0.180    17.021     5.570
     9   6 C        2.828     0.101    25.758     8.316
    10   6 C        2.956    -0.048    29.190     8.862
    11   6 C        2.978     0.016    27.651     8.626
    12   6 C        2.924    -0.023    28.574     8.766
    13   6 C        2.920    -0.037    28.914     8.818
    14   6 C        2.928     0.068    26.481     8.439
    15   7 N        2.755    -0.066    22.512     7.047
    16   6 C        2.928     0.058    26.695     8.473
    17   6 C        2.924    -0.058    29.445     8.899
    18   6 C        2.919    -0.034    28.852     8.808
    19   6 C        2.917    -0.046    29.131     8.851
    20   6 C        2.928    -0.037    28.929     8.821
    21   6 C        2.979    -0.013    28.335     8.732
    22   6 C        3.909     0.022    20.142     6.379
    23   6 C        3.761    -0.105    22.556     6.770
    24   6 C        3.761    -0.105    22.561     6.771
    25   6 C        2.977    -0.019    28.482     8.754
    26   6 C        2.920    -0.042    29.051     8.839
    27   6 C        3.050    -0.036    28.853     8.809
    28   6 C        3.094     0.124    25.174     8.223
    29   6 C        2.914    -0.087    30.189     9.010
    30   6 C        2.931     0.060    26.663     8.468
    31   8 O        1.713    -0.253    18.185     5.758
    32   6 C        3.097     0.124    25.167     8.222
    33   6 C        2.908    -0.055    29.376     8.887
    34   6 C        2.926    -0.036    28.899     8.816
    35   6 C        2.920    -0.040    29.002     8.831
    36   6 C        2.913    -0.038    28.935     8.821
    37   6 C        3.055    -0.020    28.444     8.746
    38   6 C        2.920    -0.037    28.928     8.820
    39   6 C        2.924    -0.038    28.938     8.822
    40   6 C        2.834     0.225    23.282     7.907
    41   8 O        0.857    -0.460    22.919     6.419
    42   6 C        2.972    -0.041    29.013     8.835
    43   6 C        2.929    -0.024    28.607     8.771
    44   1 H        0.925     0.041     2.436     2.441
    45   1 H        0.925     0.036     2.501     2.473
    46   1 H        0.925     0.045     2.386     2.416
    47   1 H        0.924     0.043     2.408     2.427
    48   1 H        0.925     0.036     2.500     2.472
    49   1 H        0.925     0.045     2.382     2.413
    50   1 H        0.925     0.041     2.439     2.442
    51   1 H        0.926     0.061     2.186     2.312
    52   1 H        0.926     0.066     2.131     2.283
    53   1 H        0.925     0.079     1.989     2.205
    54   1 H        0.926     0.050     2.322     2.383
    55   1 H        0.926     0.046     2.371     2.408
    56   1 H        0.926     0.025     2.655     2.548
    57   1 H        0.926     0.027     2.623     2.532
    58   1 H        0.926     0.028     2.622     2.532
    59   1 H        0.926     0.035     2.519     2.482
    60   1 H        0.925     0.043     2.408     2.427
    61   1 H        0.925     0.031     2.575     2.509
    62   1 H        0.925     0.044     2.393     2.419
    63   1 H        0.925     0.031     2.567     2.506
    64   1 H        0.925     0.043     2.406     2.426
    65   1 H        0.925     0.044     2.392     2.419
    66   1 H        0.926     0.045     2.389     2.417
    67   1 H        0.926     0.037     2.484     2.464
    68   1 H        0.926     0.041     2.438     2.442
    69   1 H        0.926     0.040     2.452     2.449
    70   1 H        0.926     0.038     2.476     2.461
    71   1 H        0.926     0.039     2.466     2.456
    72   1 H        0.926     0.049     2.337     2.391
    73   1 H        0.926     0.046     2.369     2.407
    74   1 H        0.926     0.062     2.173     2.305

molecular dipole:
                 x           y           z       tot (Debye)
 q only:        1.219       0.478      -0.896
   full:        1.279       0.653      -1.030       4.491

 projected vibrational frequencies (cm⁻¹)
eigval :       -0.00    -0.00    -0.00     0.00     0.00     0.00
eigval :       -1.78    11.92    15.26    26.48    28.75    31.82
eigval :       47.11    55.88    62.76    70.83    85.83   103.45
eigval :      108.58   114.47   117.89   124.47   142.57   147.41
eigval :      160.88   180.82   189.10   198.56   205.81   216.11
eigval :      221.45   227.07   231.42   262.82   269.40   288.29
eigval :      294.69   303.49   321.11   322.47   336.54   344.48
eigval :      360.36   376.54   381.63   385.58   395.07   409.49
eigval :      415.54   424.82   434.05   438.03   452.30   476.12
eigval :      479.04   491.77   497.61   514.12   525.66   532.33
eigval :      535.11   538.76   543.12   556.58   572.58   578.18
eigval :      596.04   603.24   613.77   621.93   644.14   661.74
eigval :      677.81   682.25   682.75   693.84   699.71   706.11
eigval :      706.27   729.61   740.60   748.49   776.26   777.16
eigval :      777.30   810.90   825.08   829.25   835.65   842.45
eigval :      853.00   865.44   867.60   868.36   871.38   873.77
eigval :      878.93   898.82   900.53   901.02   912.52   912.68
eigval :      920.88   921.34   921.48   923.81   929.26   938.33
eigval :      946.50   957.10   958.32   984.31   999.93  1012.43
eigval :     1012.65  1060.90  1061.30  1075.71  1086.08  1087.67
eigval :     1112.60  1113.49  1121.62  1132.83  1135.12  1144.48
eigval :     1148.13  1158.00  1158.71  1170.75  1174.73  1183.75
eigval :     1184.01  1184.61  1191.17  1206.76  1226.08  1227.77
eigval :     1231.85  1237.89  1243.23  1251.35  1257.27  1264.82
eigval :     1271.37  1279.37  1282.87  1304.11  1306.92  1312.08
eigval :     1327.03  1329.50  1337.19  1340.65  1349.75  1358.23
eigval :     1373.59  1399.66  1400.09  1400.46  1411.36  1411.84
eigval :     1418.89  1422.25  1435.16  1444.85  1455.47  1458.24
eigval :     1478.53  1480.10  1485.35  1486.49  1489.20  1489.37
eigval :     1489.51  1495.88  1498.77  1500.90  1501.12  1558.08
eigval :     1560.77  1562.34  1582.77  1587.85  1592.54  1593.22
eigval :     1595.16  1595.95  1602.65  1614.09  1637.52  2933.89
eigval :     3022.97  3025.51  3027.62  3031.29  3032.36  3035.02
eigval :     3040.85  3041.52  3043.05  3045.28  3049.18  3053.30
eigval :     3068.10  3073.41  3076.77  3079.59  3082.70  3084.37
eigval :     3084.40  3086.70  3089.85  3092.10  3094.02  3095.50
eigval :     3097.36  3099.79  3101.89  3105.61  3106.22  3120.14

   temp. (K)  partition function   enthalpy   heat capacity  entropy
                                   cal/mol     cal/K/mol   cal/K/mol   J/K/mol
 298.15  VIB  0.141E+18            21202.823    132.997    133.144
         ROT  0.834E+08              888.752      2.981     39.228
         INT  0.117E+26            22091.575    135.978    172.372
         TR   0.129E+29             1481.254      4.968     44.842
         TOT                       23572.8289   140.9460   217.2138   908.8224

       T/K    H(0)-H(T)+PV         H(T)/Eh          T*S/Eh         G(T)/Eh
   ------------------------------------------------------------------------
    298.15    0.375657E-01    0.617726E+00    0.103205E+00    0.514521E+00
   ------------------------------------------------------------------------

         :::::::::::::::::::::::::::::::::::::::::::::::::::::
         ::                  THERMODYNAMIC                  ::
         :::::::::::::::::::::::::::::::::::::::::::::::::::::
         :: total free energy        -114.055873481799 Eh   ::
         ::.................................................::
         :: total energy             -114.570394433316 Eh   ::
         :: zero point energy           0.580160522126 Eh   ::
         :: G(RRHO) w/o ZPVE           -0.065639570609 Eh   ::
         :: G(RRHO) contrib.            0.514520951517 Eh   ::
         :::::::::::::::::::::::::::::::::::::::::::::::::::::

           -------------------------------------------------
          | TOTAL ENERGY             -114.570394433316 Eh   |
          | TOTAL ENTHALPY           -113.952668217155 Eh   |
          | TOTAL FREE ENERGY        -114.055873481799 Eh   |
          | GRADIENT NORM               0.000057720539 Eh/α |
          | HOMO-LUMO GAP               1.614704707064 eV   |
           -------------------------------------------------

 * finished run on 2025/09/04 at 14:34:33.380
