   * xtb version 6.7.1 (edcfbbe) compiled by 'albert@albert-system' on 2024-07-22

   ID    Z sym.   atoms
    1    6 C      1-7, 9-14, 16-30, 32-40, 42, 43
    2    8 O      8, 31, 41
    3    7 N      15
    4    1 H      44-74

          program call               : xtb data2507/toluene/IpCm-PhBzAc/IpCm-PhBzAc_toluene_S0_finalOpt.xtbopt.xyz --gfn 2 --uhf 2 --gbsa toluene --ohess vtight --parallel 40 --molden --ceasefiles --namespace data2507/toluene/IpCm-PhBzAc/IpCm-PhBzAc_toluene_T1_preOpt
      * Solvation model:               GBSA
        Solvent                        toluene
        Solvent mass                       9.2140E+01 g/mol
          :  Hamiltonian                  GFN2-xTB          :
 * total energy  :  -114.4763850 Eh     change       -0.6314067E-08 Eh
 * total energy  :  -114.4796591 Eh     change       -0.3274141E-02 Eh
 * total energy  :  -114.4803858 Eh     change       -0.7266947E-03 Eh
 * total energy  :  -114.4804395 Eh     change       -0.5369084E-04 Eh
 * total energy  :  -114.4804696 Eh     change       -0.3013723E-04 Eh
 * total energy  :  -114.4804889 Eh     change       -0.1922636E-04 Eh
 * total energy  :  -114.4805111 Eh     change       -0.2219919E-04 Eh
 * total energy  :  -114.4805290 Eh     change       -0.1793022E-04 Eh
 * total energy  :  -114.4805464 Eh     change       -0.1739078E-04 Eh
 * total energy  :  -114.4805549 Eh     change       -0.8517780E-05 Eh
 * total energy  :  -114.4810995 Eh     change       -0.1134749E-05 Eh
 * total energy  :  -114.4811005 Eh     change       -0.1083104E-05 Eh
 * total energy  :  -114.4811016 Eh     change       -0.1043529E-05 Eh
 * total energy  :  -114.4811026 Eh     change       -0.1019100E-05 Eh
 * total energy  :  -114.4811036 Eh     change       -0.1017458E-05 Eh
 * total energy  :  -114.4811047 Eh     change       -0.1059230E-05 Eh
 * total energy  :  -114.4811058 Eh     change       -0.1141300E-05 Eh
 * total energy  :  -114.4811071 Eh     change       -0.1237241E-05 Eh
 * total energy  :  -114.4811071 Eh     change       -0.3656595E-08 Eh
   *** GEOMETRY OPTIMIZATION CONVERGED AFTER 122 ITERATIONS ***

 final structure:
================
74
 xtb: 6.7.1 (edcfbbe)
C            9.28001889940105       -0.82388409278070        1.96934098899029
C            9.12641513510501        0.60194152867586        1.43352645703648
C            8.84740101089348        1.58332226589091        2.57454195219398
C            8.03814117835096        0.66656867361389        0.38924930990976
C            8.33242786640268        1.02558511459257       -0.91809092887825
C            7.34118632114271        1.08113316370441       -1.89048239788975
C            6.02865500810556        0.77275563171157       -1.55740082312000
O            5.09071303998575        0.84926731626141       -2.53766282199070
C            3.80906854455622        0.51986529833649       -2.21667106225855
C            3.37603495605717        0.13873418603685       -0.96660781471456
C            1.99135364762975       -0.26764900620020       -0.77296428725930
C            1.33932130075006       -0.07637574390886        0.45274687779910
C            0.02691688088828       -0.44851722315172        0.63018602536283
C           -0.67541416940371       -1.05904102579381       -0.41149884124515
N           -2.01771757657408       -1.46942392401890       -0.22256965614166
C           -2.30039736372282       -2.82071113460043       -0.20131460929394
C           -1.25644230874498       -3.75614870460657       -0.31366727967714
C           -1.51673288127484       -5.10604253039549       -0.32521319854142
C           -2.82466071988310       -5.55967402364761       -0.20798300287032
C           -3.84986276091384       -4.64626841303500       -0.04408172866379
C           -3.61956915223821       -3.27719900512274       -0.02596547423665
C           -4.77079450128313       -2.32917842688066        0.21363524069676
C           -5.38850461580371       -2.65903313245742        1.58803209366916
C           -5.81926387913572       -2.52689484147153       -0.90046385500390
C           -4.33522793933149       -0.87937396309883        0.20557601229528
C           -5.28458174659797        0.10160677324750        0.40854447066434
C           -4.93109025195920        1.45237492492336        0.35126840644066
C           -3.58852758726150        1.79881456242844        0.05080172308240
C           -2.62336279714629        0.85295098886406       -0.15496439250540
C           -2.98834541907212       -0.51218611018599       -0.04451099269363
O           -3.42498684798440        3.14941329575336       -0.01069495754059
C           -4.65401325890697        3.69281856447106        0.25189565934176
C           -4.96329606885283        5.03413228965937        0.29426084151945
C           -6.28279901000143        5.37476450001970        0.57749849867432
C           -7.25176559409928        4.39946174434932        0.80785157304875
C           -6.94425996858649        3.05585674967289        0.76541187907497
C           -5.62517851921108        2.68681610338559        0.48268568212941
C           -0.03575591331736       -1.27714321129737       -1.63295754812228
C            1.26863379583289       -0.87970913167963       -1.81102630790249
C            4.32045049164673        0.08998938457776        0.12796834123423
O            4.03136282629209       -0.23217754368129        1.30570044564031
C            5.70335668334576        0.40539065306847       -0.24465718615973
C            6.71965845422575        0.36128608796491        0.71033958706804
H            8.36807522307891       -1.14728710364546        2.46529821812400
H            9.48973020450695       -1.51370125304111        1.15424203305816
H           10.09825042002186       -0.87101989426433        2.68480008354047
H           10.07021847232411        0.89118022148129        0.95721478949819
H            8.74491045114220        2.59513883107429        2.18734208971861
H            9.66438656802209        1.56637133680457        3.29284305414573
H            7.92784608437777        1.32023842973269        3.09158590228415
H            9.34861450436762        1.26804294983073       -1.19330927726496
H            7.56841742639079        1.36579235754235       -2.90605058672423
H            3.15230925581330        0.65762383454265       -3.05901727388641
H            1.88858212973457        0.35790671544263        1.27306505467498
H           -0.46101283899377       -0.29254186342719        1.58103216714595
H           -0.23712172350564       -3.41226925455837       -0.38009825572371
H           -0.70104443452865       -5.80657019709477       -0.41722462770101
H           -3.03866414153390       -6.61703964042419       -0.22209318487634
H           -4.85513410785594       -5.01695128896300        0.07748083772376
H           -6.22176802480476       -1.99776081439833        1.80332440577904
H           -4.64136191496383       -2.53762985795156        2.36987105248387
H           -5.74924583744696       -3.68256534170960        1.61246150502560
H           -5.38646750531859       -2.27544164953370       -1.86664652878705
H           -6.68198497241539       -1.88978192093720       -0.73391964654010
H           -6.15700947823243       -3.55806958653088       -0.93184912998324
H           -6.31226495286562       -0.15511191097309        0.60227526782706
H           -1.61774939639238        1.14385013449382       -0.40428399463907
H           -4.21020199505237        5.78485205959423        0.11504855884989
H           -6.55847052905240        6.41737542023682        0.61798492808466
H           -8.26385875799041        4.70803197532431        1.02404134945953
H           -7.69593502619376        2.30327776526873        0.94446344596933
H           -0.57918228184092       -1.74694905071631       -2.43958858277972
H            1.75141940215858       -1.05682058058882       -2.75919872152989
H            6.43620682928917        0.07504875943427        1.71200880218205

          :  Hamiltonian                  GFN2-xTB          :
         :: gradient norm              0.000052113564 Eh/a0 ::
         :: HOMO-LUMO gap              0.065307364829 eV    ::
         :: SCC energy              -116.371209519078 Eh    ::
         :: -> dispersion             -0.096497940197 Eh    ::
         :: -> Gsolv                  -0.057956677969 Eh    ::
         :: repulsion energy           1.890102456534 Eh    ::

    * Orbital Energies and Occupations

         #    Occupation            Energy/Eh            Energy/eV
      -------------------------------------------------------------
         1        2.0000           -0.7422307             -20.1971
       ...           ...                  ...                  ...
        94        2.0000           -0.4214859             -11.4692
        95        2.0000           -0.4212396             -11.4625
        96        2.0000           -0.4175223             -11.3614
        97        2.0000           -0.4142870             -11.2733
        98        2.0000           -0.4137966             -11.2600
        99        2.0000           -0.4033293             -10.9751
       100        2.0000           -0.4014083             -10.9229
       101        2.0000           -0.3976412             -10.8204
       102        2.0000           -0.3939354             -10.7195
       103        1.9994           -0.3742422             -10.1836
       104        1.9586           -0.3701326             -10.0718
       105        1.0419           -0.3641744              -9.9097
       106        0.7795           -0.2667500              -7.2586 (HOMO)
       107        0.2204           -0.2643502              -7.1933 (LUMO)
       108        0.0000           -0.2548881              -6.9359
       109                         -0.2389246              -6.5015
       110                         -0.2381053              -6.4792
       111                         -0.2333350              -6.3494
       112                         -0.2305863              -6.2746
       113                         -0.2163997              -5.8885
       114                         -0.2137914              -5.8176
       115                         -0.2077007              -5.6518
       116                         -0.1947146              -5.2985
       117                         -0.1480969              -4.0299
       ...                                ...                  ...
       203                          0.7357616              20.0211
      -------------------------------------------------------------
                  HL-Gap            0.0023999 Eh            0.0653 eV

     #   Z          covCN         q      C6AA      α(0)
     1   6 C        3.756    -0.102    22.507     6.764
     2   6 C        3.855    -0.014    20.784     6.484
     3   6 C        3.755    -0.102    22.507     6.764
     4   6 C        2.968     0.003    27.949     8.672
     5   6 C        2.925    -0.044    29.090     8.845
     6   6 C        2.913    -0.067    29.676     8.933
     7   6 C        2.889     0.129    25.164     8.224
     8   8 O        1.708    -0.234    17.883     5.710
     9   6 C        2.817     0.053    26.800     8.482
    10   6 C        2.957    -0.054    29.332     8.883
    11   6 C        2.975     0.017    27.617     8.620
    12   6 C        2.923    -0.026    28.653     8.778
    13   6 C        2.916    -0.037    28.909     8.817
    14   6 C        2.932     0.048    26.915     8.508
    15   7 N        2.754     0.013    21.032     6.811
    16   6 C        2.930     0.056    26.742     8.481
    17   6 C        2.921    -0.044    29.092     8.845
    18   6 C        2.917    -0.026    28.650     8.777
    19   6 C        2.917    -0.028    28.694     8.784
    20   6 C        2.925    -0.031    28.774     8.797
    21   6 C        2.978     0.004    27.939     8.670
    22   6 C        3.910     0.026    20.081     6.369
    23   6 C        3.761    -0.110    22.647     6.784
    24   6 C        3.761    -0.110    22.652     6.785
    25   6 C        2.975    -0.003    28.088     8.693
    26   6 C        2.916    -0.045    29.112     8.848
    27   6 C        3.051    -0.019    28.424     8.744
    28   6 C        3.087     0.133    25.006     8.197
    29   6 C        2.910    -0.076    29.891     8.965
    30   6 C        2.932     0.050    26.881     8.503
    31   8 O        1.713    -0.244    18.037     5.734
    32   6 C        3.096     0.129    25.071     8.206
    33   6 C        2.907    -0.055    29.372     8.887
    34   6 C        2.925    -0.033    28.828     8.805
    35   6 C        2.918    -0.037    28.908     8.817
    36   6 C        2.911    -0.037    28.916     8.818
    37   6 C        3.053    -0.019    28.432     8.745
    38   6 C        2.916    -0.037    28.927     8.820
    39   6 C        2.923    -0.040    28.983     8.829
    40   6 C        2.835     0.189    23.965     8.022
    41   8 O        0.857    -0.519    24.215     6.598
    42   6 C        2.972    -0.041    29.015     8.836
    43   6 C        2.929    -0.041    29.015     8.834
    44   1 H        0.925     0.037     2.486     2.466
    45   1 H        0.925     0.033     2.548     2.496
    46   1 H        0.925     0.041     2.433     2.439
    47   1 H        0.924     0.035     2.516     2.480
    48   1 H        0.925     0.033     2.551     2.498
    49   1 H        0.925     0.041     2.434     2.440
    50   1 H        0.925     0.037     2.485     2.465
    51   1 H        0.926     0.039     2.459     2.452
    52   1 H        0.926     0.042     2.416     2.431
    53   1 H        0.926     0.048     2.348     2.396
    54   1 H        0.926     0.059     2.206     2.323
    55   1 H        0.926     0.047     2.363     2.404
    56   1 H        0.926     0.047     2.359     2.402
    57   1 H        0.926     0.046     2.365     2.405
    58   1 H        0.926     0.049     2.327     2.386
    59   1 H        0.926     0.056     2.242     2.341
    60   1 H        0.925     0.055     2.254     2.348
    61   1 H        0.925     0.040     2.455     2.450
    62   1 H        0.925     0.056     2.246     2.344
    63   1 H        0.925     0.040     2.447     2.446
    64   1 H        0.925     0.055     2.256     2.349
    65   1 H        0.925     0.056     2.243     2.342
    66   1 H        0.926     0.060     2.200     2.319
    67   1 H        0.926     0.055     2.263     2.352
    68   1 H        0.926     0.044     2.394     2.419
    69   1 H        0.926     0.044     2.401     2.423
    70   1 H        0.926     0.043     2.411     2.428
    71   1 H        0.926     0.046     2.374     2.409
    72   1 H        0.926     0.052     2.294     2.369
    73   1 H        0.926     0.045     2.386     2.416
    74   1 H        0.926     0.041     2.434     2.440

molecular dipole:
                 x           y           z       tot (Debye)
 q only:       -5.406      -1.907      -0.518
   full:       -5.147      -1.728      -0.687      13.910

 projected vibrational frequencies (cm⁻¹)
eigval :       -0.00    -0.00     0.00     0.00     0.00     0.00
eigval :        8.03    13.49    15.16    29.42    33.64    36.44
eigval :       49.66    56.81    66.46    76.75    88.54   103.48
eigval :      108.94   115.41   116.84   124.40   142.80   146.71
eigval :      161.51   184.74   196.02   198.02   211.94   217.24
eigval :      228.09   231.83   239.74   267.03   267.74   286.10
eigval :      296.68   299.98   306.94   324.99   325.84   334.27
eigval :      356.11   361.84   371.17   383.16   385.33   403.26
eigval :      413.54   414.72   422.35   436.15   448.71   454.88
eigval :      470.73   481.81   506.35   518.96   521.70   523.71
eigval :      524.91   536.15   537.60   551.91   561.38   573.73
eigval :      587.74   593.64   607.91   615.39   632.39   644.27
eigval :      650.02   656.79   671.17   676.43   683.40   695.37
eigval :      698.92   701.33   702.84   721.68   733.88   762.55
eigval :      765.41   772.58   806.58   809.51   811.77   821.58
eigval :      836.40   847.00   847.51   853.69   855.51   861.10
eigval :      869.49   871.07   887.91   888.67   894.69   905.33
eigval :      913.15   914.26   916.56   922.33   923.32   931.33
eigval :      946.82   954.58   956.92   985.37   993.15  1004.13
eigval :     1008.60  1031.40  1053.14  1058.95  1069.90  1073.77
eigval :     1081.93  1095.18  1105.19  1113.92  1134.15  1135.45
eigval :     1139.37  1141.46  1142.95  1155.62  1159.20  1169.81
eigval :     1178.90  1182.19  1184.30  1186.39  1200.36  1203.95
eigval :     1216.70  1223.81  1233.15  1236.95  1242.16  1251.90
eigval :     1257.54  1266.68  1278.13  1285.77  1297.50  1299.63
eigval :     1310.06  1312.68  1323.57  1333.29  1346.00  1347.38
eigval :     1349.86  1367.55  1386.86  1395.17  1399.50  1400.06
eigval :     1404.24  1409.94  1413.90  1415.70  1417.81  1435.08
eigval :     1447.10  1455.07  1459.73  1465.22  1469.17  1476.60
eigval :     1479.28  1487.65  1489.88  1491.79  1493.07  1493.79
eigval :     1495.46  1500.60  1503.39  1519.97  1533.52  1538.89
eigval :     1553.85  1561.80  1567.68  1569.89  1581.56  2923.60
eigval :     3023.23  3027.24  3027.67  3029.62  3030.38  3032.60
eigval :     3038.72  3041.78  3053.04  3055.44  3060.14  3063.92
eigval :     3074.81  3079.88  3081.00  3084.69  3089.76  3090.73
eigval :     3091.46  3096.71  3097.21  3098.85  3098.97  3105.12
eigval :     3105.51  3106.39  3107.28  3113.93  3117.05  3131.66

   temp. (K)  partition function   enthalpy   heat capacity  entropy
                                   cal/mol     cal/K/mol   cal/K/mol   J/K/mol
 298.15  VIB  0.183E+17            21404.899    135.533    132.300
         ROT  0.838E+08              888.752      2.981     39.235
         INT  0.154E+25            22293.651    138.514    171.535
         TR   0.129E+29             1481.254      4.968     44.842
         TOT                       23774.9049   143.4823   216.3771   905.3217

       T/K    H(0)-H(T)+PV         H(T)/Eh          T*S/Eh         G(T)/Eh
   ------------------------------------------------------------------------
    298.15    0.378877E-01    0.612791E+00    0.102808E+00    0.509983E+00
   ------------------------------------------------------------------------

         :::::::::::::::::::::::::::::::::::::::::::::::::::::
         ::                  THERMODYNAMIC                  ::
         :::::::::::::::::::::::::::::::::::::::::::::::::::::
         :: total free energy        -113.971123962106 Eh   ::
         ::.................................................::
         :: total energy             -114.481107063927 Eh   ::
         :: zero point energy           0.574903108526 Eh   ::
         :: G(RRHO) w/o ZPVE           -0.064920006705 Eh   ::
         :: G(RRHO) contrib.            0.509983101821 Eh   ::
         :::::::::::::::::::::::::::::::::::::::::::::::::::::

           -------------------------------------------------
          | TOTAL ENERGY             -114.481107063927 Eh   |
          | TOTAL ENTHALPY           -113.868316232863 Eh   |
          | TOTAL FREE ENERGY        -113.971123962106 Eh   |
          | GRADIENT NORM               0.000052019961 Eh/α |
          | HOMO-LUMO GAP               0.065303483039 eV   |
           -------------------------------------------------

 * finished run on 2025/09/04 at 14:34:45.311
