   * xtb version 6.7.1 (edcfbbe) compiled by 'albert@albert-system' on 2024-07-22

   ID    Z sym.   atoms
    1    6 C      1-6, 8-35, 37-54
    2    7 N      7, 36
    3    1 H      55-94

          program call               : xtb data2507/gas/BDAVBi/BDAVBi.xyz --gfn 2 --ohess vtight --parallel 40 --molden --ceasefiles --namespace data2507/gas/BDAVBi/BDAVBi_gas_S0_preOpt
          :  Hamiltonian                  GFN2-xTB          :
 * total energy  :  -137.5141582 Eh     change       -0.1271536E-07 Eh
 * total energy  :  -137.5296356 Eh     change       -0.1547732E-01 Eh
 * total energy  :  -137.5359996 Eh     change       -0.6364051E-02 Eh
 * total energy  :  -137.5383785 Eh     change       -0.2378911E-02 Eh
 * total energy  :  -137.5401681 Eh     change       -0.1789583E-02 Eh
 * total energy  :  -137.5414529 Eh     change       -0.1284787E-02 Eh
 * total energy  :  -137.5423960 Eh     change       -0.9430600E-03 Eh
 * total energy  :  -137.5430935 Eh     change       -0.6975359E-03 Eh
 * total energy  :  -137.5435332 Eh     change       -0.4397054E-03 Eh
 * total energy  :  -137.5437910 Eh     change       -0.2577794E-03 Eh
 * total energy  :  -137.5451102 Eh     change       -0.8991715E-06 Eh
 * total energy  :  -137.5451111 Eh     change       -0.9035605E-06 Eh
 * total energy  :  -137.5451119 Eh     change       -0.8605688E-06 Eh
 * total energy  :  -137.5451128 Eh     change       -0.8542442E-06 Eh
 * total energy  :  -137.5451137 Eh     change       -0.9592559E-06 Eh
 * total energy  :  -137.5451150 Eh     change       -0.1223510E-05 Eh
 * total energy  :  -137.5451166 Eh     change       -0.1595877E-05 Eh
 * total energy  :  -137.5451185 Eh     change       -0.1979570E-05 Eh
 * total energy  :  -137.5451185 Eh     change       -0.6899143E-08 Eh
   *** GEOMETRY OPTIMIZATION CONVERGED AFTER 122 ITERATIONS ***

 final structure:
================
94
 xtb: 6.7.1 (edcfbbe)
C           -3.08518844426774        0.85871746649021       -0.09154300198915
C           -4.26179723617761        1.49880809771273       -0.18571675040618
C           -5.57688615063427        0.90424952625431       -0.08737083839828
C           -5.79891564821764       -0.45435437016707        0.16294689763820
C           -7.07283870250331       -0.96881944951529        0.24078926672613
C           -8.18771832517439       -0.14533177431633        0.06652937531933
N           -9.47896768600786       -0.66985923294874        0.13761898110120
C          -10.51725459979749        0.08954360241011        0.69021631716550
C          -11.79955871034524        0.03560963183570        0.14442506403719
C          -12.82270807384568        0.78102007367570        0.69694610857709
C          -12.58575057704690        1.59541858126035        1.79223684703402
C          -11.31289211160330        1.65552686872475        2.33567469590861
C          -10.28489115482651        0.90770237872404        1.79556490029605
C           -9.74104220273506       -1.95740994934794       -0.34589459036637
C           -9.10674380961545       -2.42373218603938       -1.49719816707500
C           -9.36665860867645       -3.69602727611816       -1.96770992768530
C          -10.26508825416897       -4.51876695107596       -1.30814968513203
C          -10.90173293003236       -4.05838393011448       -0.16719712900052
C          -10.64226134940550       -2.79078068914707        0.31619630747595
C           -7.98018947845323        1.21301830921038       -0.18047898632330
C           -6.70264344322463        1.72002808070223       -0.25163664481897
C           -1.76941938167038        1.45288699277168       -0.20001625486194
C           -1.54837871441302        2.81784131670687       -0.40923157131831
C           -0.27117526745619        3.32456740193281       -0.50852927464597
C            0.84471268636754        2.49304775474770       -0.41099263741510
C            2.20299260610788        3.03299028311505       -0.52883232107269
C            3.19028777283729        2.33474158713841       -1.22495875324818
C            4.46907609391488        2.83602850712142       -1.33694365477472
C            4.81277328747293        4.05457942672309       -0.74991675364673
C            6.15085209312674        4.62249418571758       -0.87922737419841
C            7.31449493071363        3.96410570473003       -0.86715402141985
C            7.52921022803826        2.55013449487151       -0.57929968256858
C            6.80179382552609        1.87373602274111        0.40156175795976
C            7.04381222172737        0.54553453286021        0.67528946330824
C            8.02832234426925       -0.15538946237943       -0.02356127937026
N            8.27268796499285       -1.50533051536718        0.24848681736184
C            8.20810157730730       -1.97691730031701        1.56406985332963
C            8.64815452104487       -1.18206253036772        2.62253330275136
C            8.58042357477685       -1.65059081191067        3.91998638842643
C            8.08380022326762       -2.91639713449514        4.18476166932172
C            7.64865282159824       -3.71130919724495        3.13699789539942
C            7.70386098899602       -3.24854123411331        1.83682828922447
C            8.59050030381234       -2.37950960537462       -0.79668596504225
C            7.97854811328373       -2.24164147277257       -2.04264642028136
C            8.29734478391175       -3.10279861016087       -3.07422882007598
C            9.22069061550170       -4.11742633516485       -2.88199623627489
C            9.82864497148362       -4.26129459863745       -1.64555138011746
C            9.52309615763667       -3.39978020705392       -0.61011099344313
C            8.77214606545619        0.51895048758156       -0.99219813497923
C            8.53030641187293        1.85037958354555       -1.25424469881586
C            3.81886284183200        4.76480682057888       -0.07645928746057
C            2.54019616191866        4.26025474858647        0.03977575852578
C            0.63146129151644        1.13083470924008       -0.20185947587270
C           -0.64560681281879        0.62566904235136       -0.09525089389256
H           -3.07611572362748       -0.21032895977181        0.07679377887197
H           -4.27074927939290        2.56702612486180       -0.35910110820032
H           -4.96236904336109       -1.11954361103866        0.31022006115305
H           -7.21932271884855       -2.01969353016893        0.44471530721750
H          -11.98453691323694       -0.59161600044622       -0.71543345572073
H          -13.81074920010697        0.73169568634951        0.26326849490048
H          -13.38728284899314        2.17870606909353        2.21940223714503
H          -11.12011589864397        2.28317944826923        3.19336965356221
H           -9.29562461943186        0.94785553253073        2.22761655083622
H           -8.41379606207379       -1.78014426042935       -2.01925107377664
H           -8.87006460100680       -4.04407276403750       -2.86158073146766
H          -10.46787614179938       -5.51132055005259       -1.68078443448261
H          -11.60019675157282       -4.69452378054768        0.35643927736200
H          -11.13276538060363       -2.43750306617293        1.21150325711999
H           -8.83115094259978        1.86314063781473       -0.32308537467703
H           -6.56518386093902        2.77363035863008       -0.45093656322867
H           -2.38614188604209        3.49232096275588       -0.49853255145061
H           -0.13067954445596        4.38067155956503       -0.68938413498555
H            2.94035558139693        1.40018673530911       -1.70606090667351
H            5.21318851139312        2.29072150321441       -1.89821502902302
H            6.17219549488745        5.69753249066535       -1.01641386855668
H            8.21994935717418        4.52233000544323       -1.07649182199819
H            6.04190770384086        2.40155112687261        0.95770374579621
H            6.46931098296019        0.03680124926716        1.43562744783329
H            9.04578641740729       -0.19862374947210        2.41834584332181
H            8.92689251564618       -1.02524130327298        4.72975640362343
H            8.03625530385519       -3.28056086833889        5.19980023971907
H            7.25455617739731       -4.69758427047635        3.33401957027968
H            7.35434091051869       -3.86699633500958        1.02298665347529
H            7.25045694863946       -1.45771912604671       -2.19202782457409
H            7.81400722012568       -2.98596528589510       -4.03320054874410
H            9.46468706654598       -4.79083829719410       -3.68956269860086
H           10.55423661572522       -5.04581311184184       -1.48784884376957
H           10.00676402789315       -3.50804881071562        0.34973392613234
H            9.54759125336749       -0.00827955190999       -1.52881822870358
H            9.12020705985961        2.36053320599866       -2.00278545536779
H            4.06332608414017        5.71602139191667        0.37596166128703
H            1.79533087970440        4.81417812805274        0.59277363974394
H            1.47953062234889        0.46886834774103       -0.10080465661719
H           -0.78565512526377       -0.43330472745500        0.07363721033532

          :  Hamiltonian                  GFN2-xTB          :
         :: gradient norm              0.000057511360 Eh/a0 ::
         :: HOMO-LUMO gap              2.059062990815 eV    ::
         :: SCC energy              -140.198014590345 Eh    ::
         :: -> dispersion             -0.121343500677 Eh    ::
         :: repulsion energy           2.652896046173 Eh    ::

    * Orbital Energies and Occupations

         #    Occupation            Energy/Eh            Energy/eV
      -------------------------------------------------------------
         1        2.0000           -0.6644969             -18.0819
       ...           ...                  ...                  ...
       117        2.0000           -0.4063387             -11.0570
       118        2.0000           -0.4056077             -11.0371
       119        2.0000           -0.4044133             -11.0046
       120        2.0000           -0.4032161             -10.9721
       121        2.0000           -0.4029880             -10.9659
       122        2.0000           -0.4028720             -10.9627
       123        2.0000           -0.4005228             -10.8988
       124        2.0000           -0.3999164             -10.8823
       125        2.0000           -0.3972863             -10.8107
       126        2.0000           -0.3789327             -10.3113
       127        2.0000           -0.3665916              -9.9755
       128        2.0000           -0.3462022              -9.4206
       129        2.0000           -0.3445146              -9.3747 (HOMO)
       130                         -0.2688454              -7.3157 (LUMO)
       131                         -0.2528646              -6.8808
       132                         -0.2302857              -6.2664
       133                         -0.2286048              -6.2207
       134                         -0.2265335              -6.1643
       135                         -0.2258123              -6.1447
       136                         -0.2253922              -6.1332
       137                         -0.2215342              -6.0283
       138                         -0.2205555              -6.0016
       139                         -0.2198731              -5.9831
       140                         -0.2192836              -5.9670
       ...                                ...                  ...
       256                          0.7112626              19.3544
      -------------------------------------------------------------
                  HL-Gap            0.0756692 Eh            2.0591 eV

     #   Z          covCN         q      C6AA      α(0)
     1   6 C        2.901    -0.042    29.039     8.836
     2   6 C        2.901    -0.040    28.984     8.827
     3   6 C        2.969     0.006    27.893     8.663
     4   6 C        2.923    -0.034    28.849     8.808
     5   6 C        2.920    -0.049    29.213     8.863
     6   6 C        2.924     0.063    26.586     8.456
     7   7 N        2.752    -0.073    22.661     7.070
     8   6 C        2.925     0.065    26.541     8.448
     9   6 C        2.922    -0.047    29.173     8.857
    10   6 C        2.920    -0.029    28.729     8.790
    11   6 C        2.919    -0.038    28.948     8.823
    12   6 C        2.920    -0.029    28.729     8.790
    13   6 C        2.922    -0.047    29.168     8.857
    14   6 C        2.925     0.065    26.541     8.449
    15   6 C        2.922    -0.047    29.169     8.857
    16   6 C        2.920    -0.029    28.729     8.790
    17   6 C        2.919    -0.038    28.948     8.823
    18   6 C        2.920    -0.029    28.730     8.790
    19   6 C        2.922    -0.047    29.174     8.858
    20   6 C        2.919    -0.049    29.222     8.865
    21   6 C        2.928    -0.035    28.873     8.812
    22   6 C        2.969     0.012    27.744     8.640
    23   6 C        2.922    -0.035    28.876     8.812
    24   6 C        2.922    -0.035    28.872     8.812
    25   6 C        2.976     0.008    27.845     8.656
    26   6 C        2.976     0.008    27.847     8.656
    27   6 C        2.923    -0.035    28.869     8.811
    28   6 C        2.922    -0.032    28.806     8.802
    29   6 C        2.971     0.016    27.657     8.626
    30   6 C        2.899    -0.040    28.995     8.829
    31   6 C        2.899    -0.038    28.951     8.822
    32   6 C        2.970     0.010    27.799     8.648
    33   6 C        2.923    -0.031    28.786     8.798
    34   6 C        2.920    -0.048    29.199     8.861
    35   6 C        2.925     0.063    26.592     8.457
    36   7 N        2.752    -0.075    22.700     7.076
    37   6 C        2.924     0.065    26.539     8.448
    38   6 C        2.922    -0.048    29.184     8.859
    39   6 C        2.920    -0.029    28.732     8.790
    40   6 C        2.919    -0.039    28.961     8.825
    41   6 C        2.920    -0.029    28.734     8.790
    42   6 C        2.922    -0.048    29.187     8.860
    43   6 C        2.924     0.065    26.537     8.448
    44   6 C        2.923    -0.048    29.180     8.858
    45   6 C        2.919    -0.029    28.734     8.790
    46   6 C        2.919    -0.039    28.962     8.825
    47   6 C        2.920    -0.029    28.734     8.790
    48   6 C        2.922    -0.048    29.187     8.859
    49   6 C        2.920    -0.049    29.211     8.863
    50   6 C        2.926    -0.036    28.907     8.817
    51   6 C        2.925    -0.037    28.923     8.819
    52   6 C        2.922    -0.035    28.878     8.813
    53   6 C        2.922    -0.035    28.874     8.812
    54   6 C        2.927    -0.036    28.893     8.815
    55   1 H        0.925     0.032     2.555     2.499
    56   1 H        0.925     0.033     2.542     2.493
    57   1 H        0.926     0.034     2.528     2.486
    58   1 H        0.926     0.031     2.572     2.508
    59   1 H        0.926     0.032     2.563     2.504
    60   1 H        0.926     0.032     2.564     2.504
    61   1 H        0.926     0.030     2.581     2.513
    62   1 H        0.926     0.032     2.561     2.503
    63   1 H        0.926     0.032     2.552     2.498
    64   1 H        0.926     0.032     2.552     2.498
    65   1 H        0.926     0.032     2.561     2.503
    66   1 H        0.926     0.030     2.581     2.512
    67   1 H        0.926     0.032     2.564     2.504
    68   1 H        0.926     0.032     2.563     2.504
    69   1 H        0.926     0.031     2.576     2.510
    70   1 H        0.926     0.031     2.569     2.506
    71   1 H        0.926     0.031     2.577     2.510
    72   1 H        0.926     0.030     2.590     2.517
    73   1 H        0.926     0.030     2.588     2.516
    74   1 H        0.926     0.030     2.580     2.512
    75   1 H        0.925     0.032     2.552     2.498
    76   1 H        0.925     0.032     2.555     2.500
    77   1 H        0.926     0.034     2.524     2.484
    78   1 H        0.926     0.031     2.568     2.506
    79   1 H        0.926     0.031     2.569     2.507
    80   1 H        0.926     0.031     2.573     2.508
    81   1 H        0.926     0.030     2.592     2.518
    82   1 H        0.926     0.031     2.573     2.509
    83   1 H        0.926     0.031     2.568     2.506
    84   1 H        0.926     0.031     2.572     2.508
    85   1 H        0.926     0.031     2.572     2.508
    86   1 H        0.926     0.030     2.592     2.518
    87   1 H        0.926     0.031     2.574     2.509
    88   1 H        0.926     0.031     2.568     2.506
    89   1 H        0.926     0.031     2.573     2.509
    90   1 H        0.926     0.031     2.576     2.510
    91   1 H        0.925     0.028     2.617     2.530
    92   1 H        0.926     0.030     2.584     2.514
    93   1 H        0.926     0.030     2.592     2.517
    94   1 H        0.925     0.028     2.617     2.530

molecular dipole:
                 x           y           z       tot (Debye)
 q only:       -0.186      -0.095       0.019
   full:       -0.182      -0.091       0.017       0.519

 projected vibrational frequencies (cm⁻¹)
eigval :       -0.00    -0.00    -0.00     0.00     0.00     0.00
eigval :        2.57     5.47     6.95    11.52    18.85    25.27
eigval :       26.31    35.53    38.60    43.57    46.38    51.22
eigval :       56.86    58.84    68.07    69.84    75.51    80.27
eigval :       83.69    88.14    99.58   103.82   110.03   139.07
eigval :      149.25   166.55   179.19   189.96   206.98   218.66
eigval :      231.59   232.36   239.97   254.71   268.19   274.65
eigval :      308.84   316.71   316.83   322.33   335.75   341.87
eigval :      361.36   368.69   375.91   377.46   377.98   378.19
eigval :      379.95   385.07   387.23   388.52   392.06   408.91
eigval :      425.95   447.63   463.77   467.20   474.94   482.80
eigval :      490.26   495.58   502.74   526.36   529.73   544.28
eigval :      549.73   581.78   583.23   584.12   587.92   593.23
eigval :      593.65   594.86   603.62   606.59   611.95   616.17
eigval :      646.25   659.19   659.38   662.42   664.37   670.68
eigval :      678.92   680.76   686.13   699.74   702.93   734.70
eigval :      756.60   757.14   759.90   760.26   767.91   776.45
eigval :      796.96   808.88   817.54   821.37   828.57   845.59
eigval :      859.96   862.12   865.84   870.10   872.80   874.17
eigval :      874.75   876.21   876.27   882.13   891.25   892.43
eigval :      892.90   893.52   909.59   910.10   911.29   912.23
eigval :      912.60   917.34   920.57   922.53   923.38   926.83
eigval :      927.22   927.62   928.42   928.65   929.18   929.26
eigval :      929.50   929.84   930.19   931.33   932.26   985.55
eigval :      985.74   986.19   987.82  1004.92  1005.02  1017.63
eigval :     1023.42  1024.05  1083.04  1083.24  1083.30  1084.09
eigval :     1084.30  1121.86  1121.97  1124.06  1124.35  1139.40
eigval :     1142.43  1144.60  1150.24  1180.70  1180.76  1180.80
eigval :     1180.87  1181.68  1187.04  1187.34  1192.05  1195.42
eigval :     1195.55  1195.83  1199.15  1203.10  1209.69  1212.09
eigval :     1223.90  1229.21  1242.73  1244.94  1272.03  1273.86
eigval :     1275.74  1278.53  1279.24  1280.83  1282.83  1283.07
eigval :     1295.65  1310.60  1312.08  1316.20  1320.15  1321.79
eigval :     1321.85  1322.54  1326.34  1327.11  1328.26  1333.57
eigval :     1336.84  1340.82  1347.17  1375.42  1398.11  1414.49
eigval :     1415.36  1419.19  1436.61  1436.82  1443.26  1443.57
eigval :     1470.97  1472.23  1474.15  1476.28  1477.01  1487.41
eigval :     1490.38  1508.97  1547.86  1551.60  1554.92  1561.21
eigval :     1573.40  1576.96  1577.10  1580.97  1581.22  1589.51
eigval :     1594.65  1594.74  1595.21  1599.10  1600.95  1603.19
eigval :     1640.61  1657.86  3027.43  3042.18  3052.96  3061.45
eigval :     3065.71  3066.59  3070.16  3071.02  3074.28  3075.04
eigval :     3075.42  3075.68  3075.85  3076.14  3076.15  3076.61
eigval :     3076.79  3077.22  3080.20  3081.05  3081.56  3082.23
eigval :     3085.32  3085.58  3085.91  3086.17  3086.69  3086.99
eigval :     3088.51  3089.08  3089.30  3089.80  3090.88  3093.19
eigval :     3096.31  3096.77  3097.23  3097.32  3097.65  3098.17

   temp. (K)  partition function   enthalpy   heat capacity  entropy
                                   cal/mol     cal/K/mol   cal/K/mol   J/K/mol
 298.15  VIB  0.812E+24            26960.895    165.360    174.012
         ROT  0.275E+09              888.752      2.981     41.595
         INT  0.223E+33            27849.648    168.341    215.607
         TR   0.176E+29             1481.254      4.968     45.467
         TOT                       29330.9016   173.3091   261.0741  1092.3342

       T/K    H(0)-H(T)+PV         H(T)/Eh          T*S/Eh         G(T)/Eh
   ------------------------------------------------------------------------
    298.15    0.467418E-01    0.788463E+00    0.124045E+00    0.664418E+00
   ------------------------------------------------------------------------

         :::::::::::::::::::::::::::::::::::::::::::::::::::::
         ::                  THERMODYNAMIC                  ::
         :::::::::::::::::::::::::::::::::::::::::::::::::::::
         :: total free energy        -136.880700747616 Eh   ::
         ::.................................................::
         :: total energy             -137.545118544171 Eh   ::
         :: zero point energy           0.741720776688 Eh   ::
         :: G(RRHO) w/o ZPVE           -0.077302980134 Eh   ::
         :: G(RRHO) contrib.            0.664417796554 Eh   ::
         :::::::::::::::::::::::::::::::::::::::::::::::::::::

           -------------------------------------------------
          | TOTAL ENERGY             -137.545118544171 Eh   |
          | TOTAL ENTHALPY           -136.756656000560 Eh   |
          | TOTAL FREE ENERGY        -136.880700747616 Eh   |
          | GRADIENT NORM               0.000057513157 Eh/α |
          | HOMO-LUMO GAP               2.059063385804 eV   |
           -------------------------------------------------

 * finished run on 2025/09/10 at 18:26:57.755
