   * xtb version 6.7.1 (edcfbbe) compiled by 'albert@albert-system' on 2024-07-22

   ID    Z sym.   atoms
    1    6 C      1-6, 8-35, 37-54
    2    7 N      7, 36
    3    1 H      55-94

          program call               : xtb data2507/gas/BDAVBi/BDAVBi_gas_T1_crest.xyz --gfn 2 --spinpol --tblite --uhf 2 --ohess vtight --parallel 40 --molden --ceasefiles --namespace data2507/gas/BDAVBi/BDAVBi_gas_T1_finalOpt
 * total energy  :  -137.4774983 Eh     change       -0.1756950E-07 Eh
 * total energy  :  -137.4775753 Eh     change       -0.7705243E-04 Eh
 * total energy  :  -137.4777017 Eh     change       -0.1263750E-03 Eh
 * total energy  :  -137.4779509 Eh     change       -0.2492239E-03 Eh
 * total energy  :  -137.4780380 Eh     change       -0.8708508E-04 Eh
 * total energy  :  -137.4781750 Eh     change       -0.1369759E-03 Eh
 * total energy  :  -137.4782126 Eh     change       -0.3757140E-04 Eh
 * total energy  :  -137.4782497 Eh     change       -0.3712163E-04 Eh
 * total energy  :  -137.4782834 Eh     change       -0.3368963E-04 Eh
 * total energy  :  -137.4783174 Eh     change       -0.3397525E-04 Eh
 * total energy  :  -137.4785132 Eh     change       -0.6803641E-06 Eh
 * total energy  :  -137.4785139 Eh     change       -0.7098585E-06 Eh
 * total energy  :  -137.4785147 Eh     change       -0.7171049E-06 Eh
 * total energy  :  -137.4785152 Eh     change       -0.5857070E-06 Eh
 * total energy  :  -137.4785156 Eh     change       -0.3619640E-06 Eh
 * total energy  :  -137.4785159 Eh     change       -0.2837963E-06 Eh
 * total energy  :  -137.4785161 Eh     change       -0.1687900E-06 Eh
 * total energy  :  -137.4785162 Eh     change       -0.1781232E-06 Eh
 * total energy  :  -137.4785163 Eh     change       -0.9356128E-07 Eh
   *** GEOMETRY OPTIMIZATION CONVERGED AFTER 114 ITERATIONS ***

 final structure:
================
94
 xtb: 6.7.1 (edcfbbe)
C           -3.37698988563716        1.89535125515763       -0.14799719128140
C           -3.90421100674562        0.66943674934268        0.04529973335135
C           -5.30481412537652        0.32632146785700        0.02788657584612
C           -6.32222390141906        1.22679255257412       -0.31363236921045
C           -7.64389274616037        0.84622908113719       -0.31738337446089
C           -8.01373665793059       -0.45651204014510        0.02718407159921
N           -9.35569617110762       -0.84020998260981        0.02689209870342
C           -9.71651419631079       -2.13533794482584       -0.36228726557619
C          -10.75357653152967       -2.80477861739594        0.28728490930344
C          -11.10999226400844       -4.08082431196601       -0.10292040760365
C          -10.43783786747658       -4.71250906054532       -1.13653514319796
C           -9.40494444783292       -4.05321502759643       -1.78284690240912
C           -9.04623233879768       -2.77393352801417       -1.40561043727707
C          -10.34592373844562        0.07016750660921        0.41422454333499
C          -10.11424849397103        0.96659353430505        1.45745133707432
C          -11.09342699972101        1.86563407529539        1.83223788594759
C          -12.31743525797519        1.88189450718420        1.18355186699826
C          -12.55443055027802        0.99016900376105        0.15020210582785
C          -11.57886645231838        0.09264691994142       -0.23757075655419
C           -7.00985423356383       -1.36559700643561        0.36869307371114
C           -5.68972397250908       -0.97929368501731        0.36250306808870
C           -1.98040108293059        2.24049396421498       -0.13405652712453
C           -0.94428560466855        1.30646449653222        0.01804698950861
C            0.37159534655963        1.69547448557565        0.02566047146845
C            0.74334241221754        3.04195701441183       -0.12864635185990
C            2.13200029733258        3.44133149734766       -0.12884467231154
C            2.57163146471293        4.59070302840566       -0.82377500086139
C            3.88374895663455        4.95601242622371       -0.84223191749527
C            4.88428830678323        4.19001644460855       -0.17425630386197
C            6.22099949300265        4.55895501373278       -0.25162096237761
C            7.34891595086092        3.82129301606162        0.22091014872702
C            7.54776505747231        2.44645603896174        0.13475783125049
C            6.71476503071418        1.58312520799624       -0.63670538496447
C            6.91530737059219        0.23337748626831       -0.65897864982951
C            7.96712150873309       -0.35567865698245        0.06425929993317
N            8.14678231457486       -1.73434862171421        0.05874063503623
C            7.03625586918086       -2.58412808769199        0.01460383549972
C            5.86551266971005       -2.25246451248690        0.69809669108661
C            4.76989162195387       -3.09103016795874        0.64647404685533
C            4.82264623965439       -4.27188153005690       -0.07686672553706
C            5.98416233798940       -4.60784315541988       -0.75359872002071
C            7.08350577184618       -3.77298903071770       -0.71452574133553
C            9.43596640932101       -2.27626389891523        0.09504927718337
C           10.47826633353413       -1.66426903017407       -0.60236268643291
C           11.75073111502617       -2.19873063874641       -0.55881173774988
C           12.00446559222350       -3.34901746876755        0.17105573562579
C           10.97182140327165       -3.96262731365750        0.86209526270250
C            9.69688680684566       -3.43319135856893        0.83034607019731
C            8.83969027870101        0.48359435701846        0.78184642773373
C            8.64501838962410        1.83400053096540        0.80659756523585
C            4.42185341264732        3.06846957978964        0.57871063107164
C            3.10709972154619        2.70962999866771        0.58233825768079
C           -0.29344458520205        3.97597769933136       -0.28750173062167
C           -1.60904499113126        3.58607562320501       -0.28571547173715
H           -4.04185931077852        2.73091524923687       -0.32539622717412
H           -3.24301127732557       -0.16280869950453        0.24816518945081
H           -6.07354414095964        2.23741166820687       -0.59785973280536
H           -8.40932006991418        1.55550332107275       -0.59767450616509
H          -11.27267702022506       -2.31797277222004        1.10001758514542
H          -11.91336323143767       -4.58890436009802        0.41009710427041
H          -10.71716820949531       -5.71111260468489       -1.43638795151515
H           -8.87933454201345       -4.53545485317496       -2.59396875153376
H           -8.24786850202251       -2.25754572463203       -1.91826524619855
H           -9.16441339190866        0.94855061631116        1.97158575911662
H          -10.90187073863103        2.55303159686919        2.64309435187160
H          -13.08111633656444        2.58424322838086        1.48126190617102
H          -13.50389662110485        0.99895527025576       -0.36473613084118
H          -11.76231866017579       -0.59490074247987       -1.05034894943743
H           -7.27907298521101       -2.37498681355122        0.64429334801132
H           -4.92952033967824       -1.69763173033906        0.63585525502424
H           -1.17949614316725        0.25783830525184        0.12053456235841
H            1.14041766568574        0.94200111970772        0.11540008017573
H            1.85455559046114        5.17261268391118       -1.38403446335229
H            4.19559702705787        5.82670805279227       -1.40240353564207
H            6.43689867329380        5.53462159176715       -0.67351264705499
H            8.15464897267703        4.40783229247426        0.64757407991129
H            5.93132992320035        2.01661247794621       -1.23789756160247
H            6.27579697071177       -0.39878567446754       -1.25854312078118
H            5.82752055865100       -1.33858582615747        1.27238771950810
H            3.87067865702402       -2.82482330631511        1.18203054441798
H            3.96471292077667       -4.92571977179751       -0.11297210607108
H            6.03198984151216       -5.52361645868423       -1.32409817086102
H            7.98361508523335       -4.03055153914968       -1.25333211484947
H           10.27750343112735       -0.77524243048321       -1.18200262680667
H           12.54848079085363       -1.71826831790254       -1.10570345105516
H           13.00000113294228       -3.76481779871995        0.20078136836651
H           11.16248447832145       -4.85647879105723        1.43747867729824
H            8.89532409549570       -3.90583452538177        1.37894779715162
H            9.65693219787202        0.04129847291415        1.33359667080361
H            9.31111365168171        2.46184352360757        1.38075828548675
H            5.13181800131853        2.52239253121554        1.18077602055246
H            2.79427030635334        1.87018210324560        1.18630726519047
H           -0.05588646395144        5.02548626263597       -0.37896651506548
H           -2.38431964132378        4.33222132132521       -0.39664196008530

 projected vibrational frequencies (cm⁻¹)
eigval :       -0.00    -0.00    -0.00     0.00     0.00     0.00
eigval :        4.02     4.78     8.00    13.60    17.61    27.47
eigval :       28.80    37.13    40.76    44.38    47.21    51.60
eigval :       61.10    61.85    69.95    71.67    77.87    78.68
eigval :       84.63    95.94   101.13   109.80   121.79   141.22
eigval :      159.51   173.92   182.38   193.03   208.34   228.26
eigval :      231.02   232.20   239.85   251.31   257.69   275.84
eigval :      299.52   309.90   315.53   319.62   329.38   338.41
eigval :      348.40   358.82   369.93   377.27   377.86   378.12
eigval :      378.25   383.61   386.72   391.22   399.57   407.37
eigval :      411.72   415.95   456.30   465.16   471.85   472.99
eigval :      475.86   489.30   500.03   502.08   524.84   527.40
eigval :      546.81   578.34   582.62   582.93   586.75   590.64
eigval :      592.91   593.77   595.88   605.05   606.80   615.43
eigval :      652.15   655.39   658.75   660.70   662.02   663.69
eigval :      664.77   673.83   682.45   690.39   691.87   703.26
eigval :      731.63   737.82   756.53   756.95   759.33   760.10
eigval :      770.43   801.25   804.07   806.64   815.36   820.85
eigval :      832.41   838.85   843.86   848.80   854.31   859.77
eigval :      872.88   874.49   874.67   874.83   876.12   892.36
eigval :      892.58   893.43   893.50   907.88   908.57   909.42
eigval :      910.98   911.94   912.33   912.53   916.63   919.10
eigval :      921.94   922.34   927.28   927.52   928.31   928.95
eigval :      929.07   929.09   929.19   929.45   930.58   966.63
eigval :      973.64   979.62   985.90  1002.13  1002.94  1003.89
eigval :     1004.87  1022.59  1060.49  1081.88  1083.03  1083.16
eigval :     1084.02  1108.58  1121.65  1121.90  1123.88  1124.13
eigval :     1136.84  1141.02  1144.58  1155.51  1168.08  1180.17
eigval :     1180.28  1180.63  1180.74  1185.57  1187.11  1191.34
eigval :     1192.47  1193.56  1194.76  1195.24  1208.85  1209.66
eigval :     1226.32  1230.51  1236.47  1244.54  1272.43  1273.48
eigval :     1277.71  1278.53  1279.80  1281.62  1282.72  1284.52
eigval :     1297.06  1304.60  1310.34  1313.52  1319.44  1319.83
eigval :     1321.81  1324.25  1327.10  1327.62  1332.05  1337.12
eigval :     1343.67  1343.84  1350.09  1390.01  1414.27  1420.02
eigval :     1423.90  1433.38  1436.22  1436.48  1439.05  1442.86
eigval :     1443.25  1459.57  1467.32  1467.90  1468.07  1471.11
eigval :     1475.20  1480.04  1486.56  1488.50  1497.09  1522.48
eigval :     1533.71  1546.15  1563.58  1571.81  1574.60  1576.13
eigval :     1576.60  1580.34  1588.28  1593.71  1593.90  1594.27
eigval :     1599.21  1623.78  3017.27  3027.03  3051.36  3059.34
eigval :     3063.51  3064.47  3069.67  3070.17  3072.19  3075.27
eigval :     3075.67  3076.17  3076.93  3077.30  3077.75  3078.50
eigval :     3078.65  3079.20  3079.29  3079.80  3080.68  3082.94
eigval :     3084.81  3086.04  3087.06  3087.47  3087.73  3088.48
eigval :     3089.16  3089.86  3090.47  3091.01  3091.65  3093.89
eigval :     3097.23  3097.68  3098.01  3099.12  3099.55  3103.93

   temp. (K)  partition function   enthalpy   heat capacity  entropy
                                   cal/mol     cal/K/mol   cal/K/mol   J/K/mol
 298.15  VIB  0.271E+24            27095.243    167.267    173.608
         ROT  0.262E+09              888.752      2.981     41.504
         INT  0.710E+32            27983.995    170.248    215.112
         TR   0.176E+29             1481.254      4.968     45.467
         TOT                       29465.2490   175.2162   260.5789  1090.2619

       T/K    H(0)-H(T)+PV         H(T)/Eh          T*S/Eh         G(T)/Eh
   ------------------------------------------------------------------------
    298.15    0.469559E-01    0.785468E+00    0.123809E+00    0.661659E+00
   ------------------------------------------------------------------------

         :::::::::::::::::::::::::::::::::::::::::::::::::::::
         ::                  THERMODYNAMIC                  ::
         :::::::::::::::::::::::::::::::::::::::::::::::::::::
         :: total free energy        -136.816857671283 Eh   ::
         ::.................................................::
         :: total energy             -137.478516369980 Eh   ::
         :: zero point energy           0.738512259567 Eh   ::
         :: G(RRHO) w/o ZPVE           -0.076853560870 Eh   ::
         :: G(RRHO) contrib.            0.661658698697 Eh   ::
         :::::::::::::::::::::::::::::::::::::::::::::::::::::

           -------------------------------------------------
          | TOTAL ENERGY             -137.478516369980 Eh   |
          | TOTAL ENTHALPY           -136.693048247295 Eh   |
          | TOTAL FREE ENERGY        -136.816857671283 Eh   |
          | GRADIENT NORM               0.000088557812 Eh/α |
           -------------------------------------------------

 * finished run on 2025/09/10 at 18:57:22.142
