   * xtb version 6.7.1 (edcfbbe) compiled by 'albert@albert-system' on 2024-07-22

   ID    Z sym.   atoms
    1    6 C      1-6, 8-35, 37-54
    2    7 N      7, 36
    3    1 H      55-94

          program call               : xtb data2507/gas/BDAVBi/BDAVBi_gas_S0_crest.xyz --gfn 2 --ohess vtight --parallel 40 --molden --ceasefiles --namespace data2507/gas/BDAVBi/BDAVBi_gas_S0_finalOpt
          :  Hamiltonian                  GFN2-xTB          :
 * total energy  :  -137.5462009 Eh     change       -0.6281482E-09 Eh
 * total energy  :  -137.5462022 Eh     change       -0.1326211E-05 Eh
 * total energy  :  -137.5462050 Eh     change       -0.2845998E-05 Eh
 * total energy  :  -137.5462110 Eh     change       -0.5998566E-05 Eh
 * total energy  :  -137.5462185 Eh     change       -0.7433540E-05 Eh
 * total energy  :  -137.5462237 Eh     change       -0.5236469E-05 Eh
 * total energy  :  -137.5462275 Eh     change       -0.3796446E-05 Eh
 * total energy  :  -137.5462315 Eh     change       -0.4021020E-05 Eh
 * total energy  :  -137.5462360 Eh     change       -0.4527084E-05 Eh
 * total energy  :  -137.5462397 Eh     change       -0.3702916E-05 Eh
 * total energy  :  -137.5463189 Eh     change       -0.5877207E-06 Eh
 * total energy  :  -137.5463193 Eh     change       -0.4489432E-06 Eh
 * total energy  :  -137.5463198 Eh     change       -0.4596700E-06 Eh
 * total energy  :  -137.5463204 Eh     change       -0.6096526E-06 Eh
 * total energy  :  -137.5463212 Eh     change       -0.8233974E-06 Eh
 * total energy  :  -137.5463222 Eh     change       -0.9895123E-06 Eh
 * total energy  :  -137.5463233 Eh     change       -0.1046477E-05 Eh
 * total energy  :  -137.5463243 Eh     change       -0.1092397E-05 Eh
 * total energy  :  -137.5463244 Eh     change       -0.8209440E-08 Eh
   *** GEOMETRY OPTIMIZATION CONVERGED AFTER 68 ITERATIONS ***

 final structure:
================
94
 xtb: 6.7.1 (edcfbbe)
C           -2.67696185209797        2.03848697410500       -0.18518318067171
C           -3.20739315669601        0.81206461529116       -0.05335174320341
C           -4.61493832426577        0.47851735199346       -0.03935953391087
C           -5.63653298602690        1.41053447619958       -0.25208722943191
C           -6.96128753274866        1.03902691823310       -0.22428103823458
C           -7.32636193366573       -0.28638211655713        0.02370911818337
N           -8.67008567304913       -0.66134630848984        0.05835370879514
C           -9.06188099434654       -1.91629596783565       -0.42340303079617
C          -10.06565264438907       -2.63859370077001        0.22135649301388
C          -10.45330132007599       -3.87347868673408       -0.26092049403617
C           -9.84529313123102       -4.41123924367709       -1.38350753766868
C           -8.84520136806456       -3.69933023275194       -2.02546339075369
C           -8.45603556472294       -2.46008480196813       -1.55582545966776
C           -9.63102860456885        0.21437140593449        0.57764380995986
C           -9.33710470961817        1.01373725355653        1.68214378774269
C          -10.28837925351098        1.87777535193508        2.18830163263737
C          -11.54567926178501        1.95397343438553        1.61170048928312
C          -11.84434690975620        1.15832710169282        0.51771990147925
C          -10.89721353312400        0.29725581074706       -0.00118811933984
C           -6.31642215449939       -1.22707052179968        0.23429385979088
C           -4.99389964962779       -0.84799071342938        0.19826298245512
C           -1.26770262787218        2.37102558646314       -0.18919317832440
C           -0.24601269132749        1.41834727078659       -0.12036847203743
C            1.07834209608153        1.79680933332710       -0.11469156280859
C            1.44413883089469        3.14127557549834       -0.18527935643662
C            2.85927153628753        3.52602031774476       -0.17587803569865
C            3.34253076962941        4.52256990133862       -1.02078377031132
C            4.68546799248797        4.84317166251026       -1.03864943919071
C            5.59097236647264        4.17249063406203       -0.21900408071773
C            7.02073909243238        4.47332722892950       -0.28978840688770
C            7.99522577310670        3.56021967981176       -0.25620080248842
C            7.77403221501229        2.11536883974926       -0.23835739572257
C            6.81341688436134        1.52509134737308       -1.06168704354026
C            6.54381673790785        0.17818014553350       -0.98065873796339
C            7.22422411207539       -0.62641302725897       -0.06471802921835
N            6.88482945843402       -1.97686554565988        0.07093974396280
C            5.53866673425915       -2.35339584440688        0.00669681888205
C            4.54611410574952       -1.52213095960578        0.52779641359892
C            3.21827616918677       -1.89470339501021        0.45724077568709
C            2.85573691368792       -3.09799215567257       -0.12560140252194
C            3.83702962279320       -3.92830321822552       -0.64162248111444
C            5.16760257128992       -3.56235209963272       -0.58159925013557
C            7.87957989322157       -2.93193332975410        0.30048108103999
C            9.12660705253469       -2.81026810813949       -0.31286570776631
C           10.11202540236079       -3.74927601166604       -0.07947485132124
C            9.87182089347586       -4.82599843389465        0.75841772146390
C            8.63402240854280       -4.95365585482273        1.36720605178800
C            7.64477388595883       -4.01531480347048        1.14721736170943
C            8.23117059898351       -0.05600907683764        0.71287909334767
C            8.50725767926559        1.29253879633209        0.61443602412142
C            5.09638275234305        3.21653563717910        0.66960842935366
C            3.75751706243103        2.89350829459757        0.68385619798834
C            0.43209265976334        4.09567951406957       -0.26817007612939
C           -0.89279870334330        3.71699170525982       -0.26648500323152
H           -3.33481635113773        2.89138225504816       -0.29015036491829
H           -2.54954890166024       -0.03854877924021        0.06868235650721
H           -5.39205641402054        2.44126248491259       -0.45680138413771
H           -7.73238270748315        1.77458573565367       -0.40239781155919
H          -10.53465584933923       -2.22529626296754        1.10238316531747
H          -11.23034113782818       -4.42364764908430        0.24922174662618
H          -10.14891632011745       -5.37794545629830       -1.75558308169698
H           -8.36973726980683       -4.10798654050509       -2.90505709620133
H           -7.68333112859173       -1.90195464773729       -2.06411332975112
H           -8.36100900627368        0.94819200905957        2.14023398408387
H          -10.04841708844927        2.48971982262757        3.04544327415791
H          -12.28744042837385        2.62815983490467        2.01219969006660
H          -12.82041473595040        1.21442029763277        0.05851734045865
H          -11.12940415227425       -0.31523351289491       -0.86021250891694
H           -6.58136906524229       -2.25546742705079        0.43263253419284
H           -4.22852652110480       -1.59173008040327        0.37060355648106
H           -0.49007081555601        0.36785085622600       -0.07702271162101
H            1.85139041120689        1.04210251540840       -0.08202248082825
H            2.66228008631951        5.02889288093564       -1.69054194302363
H            5.04745020537850        5.60263753559176       -1.71786357366014
H            7.27753781990965        5.52202345375797       -0.37576039230585
H            9.02846929100616        3.88407488136454       -0.23510108397398
H            6.27908615040900        2.13426197207515       -1.77492238556866
H            5.79358786681154       -0.26440691244967       -1.61946187609203
H            4.82538343676230       -0.58587986280751        0.98882676851589
H            2.45995342382235       -1.24625375036253        0.87186411777335
H            1.81689896049025       -3.38668924397562       -0.17707198080454
H            3.56411331176593       -4.86619556896966       -1.10284877123766
H            5.92931248226044       -4.20793241158555       -0.99383221357071
H            9.31278942391019       -1.97696344841003       -0.97465360701264
H           11.07237708788809       -3.64372713662918       -0.56264007995998
H           10.64336792258085       -5.55972714252326        0.93589729441172
H            8.43939985816732       -5.78651034236646        2.02702300518146
H            6.68471157863459       -4.11160326784208        1.63293743631319
H            8.78196969690454       -0.67343890646713        1.40751775400993
H            9.27361383379061        1.72580095233007        1.24148841355705
H            5.77456735354743        2.72955144775455        1.35459229932920
H            3.39202650377312        2.15443992508147        1.38227829689568
H            0.69101585316558        5.14395126819230       -0.31100237091615
H           -1.66223789156459        4.47492293343848       -0.32100796616555

          :  Hamiltonian                  GFN2-xTB          :
         :: gradient norm              0.000066873434 Eh/a0 ::
         :: HOMO-LUMO gap              2.079394306118 eV    ::
         :: SCC energy              -140.199896385332 Eh    ::
         :: -> dispersion             -0.124714866727 Eh    ::
         :: repulsion energy           2.653572032434 Eh    ::

    * Orbital Energies and Occupations

         #    Occupation            Energy/Eh            Energy/eV
      -------------------------------------------------------------
         1        2.0000           -0.6645742             -18.0840
       ...           ...                  ...                  ...
       117        2.0000           -0.4067550             -11.0684
       118        2.0000           -0.4056663             -11.0387
       119        2.0000           -0.4043499             -11.0029
       120        2.0000           -0.4034304             -10.9779
       121        2.0000           -0.4033028             -10.9744
       122        2.0000           -0.4029949             -10.9661
       123        2.0000           -0.4007690             -10.9055
       124        2.0000           -0.3993548             -10.8670
       125        2.0000           -0.3967670             -10.7966
       126        2.0000           -0.3797700             -10.3341
       127        2.0000           -0.3674123              -9.9978
       128        2.0000           -0.3461536              -9.4193
       129        2.0000           -0.3445314              -9.3752 (HOMO)
       130                         -0.2681151              -7.2958 (LUMO)
       131                         -0.2509368              -6.8283
       132                         -0.2303609              -6.2684
       133                         -0.2285840              -6.2201
       134                         -0.2266182              -6.1666
       135                         -0.2262821              -6.1574
       136                         -0.2257592              -6.1432
       137                         -0.2216163              -6.0305
       138                         -0.2212636              -6.0209
       139                         -0.2199035              -5.9839
       140                         -0.2193857              -5.9698
       ...                                ...                  ...
       256                          0.7102867              19.3279
      -------------------------------------------------------------
                  HL-Gap            0.0764163 Eh            2.0794 eV

     #   Z          covCN         q      C6AA      α(0)
     1   6 C        2.901    -0.042    29.039     8.836
     2   6 C        2.901    -0.040    28.984     8.827
     3   6 C        2.969     0.006    27.894     8.663
     4   6 C        2.923    -0.034    28.849     8.808
     5   6 C        2.920    -0.049    29.213     8.863
     6   6 C        2.924     0.063    26.586     8.456
     7   7 N        2.752    -0.073    22.662     7.070
     8   6 C        2.925     0.065    26.541     8.448
     9   6 C        2.922    -0.047    29.172     8.857
    10   6 C        2.920    -0.029    28.729     8.790
    11   6 C        2.919    -0.038    28.947     8.823
    12   6 C        2.920    -0.029    28.729     8.790
    13   6 C        2.922    -0.047    29.167     8.856
    14   6 C        2.925     0.065    26.541     8.449
    15   6 C        2.922    -0.047    29.170     8.857
    16   6 C        2.920    -0.029    28.729     8.790
    17   6 C        2.919    -0.038    28.949     8.823
    18   6 C        2.920    -0.029    28.730     8.790
    19   6 C        2.922    -0.047    29.175     8.858
    20   6 C        2.919    -0.049    29.223     8.865
    21   6 C        2.928    -0.035    28.873     8.812
    22   6 C        2.970     0.012    27.747     8.640
    23   6 C        2.922    -0.035    28.870     8.811
    24   6 C        2.923    -0.035    28.872     8.812
    25   6 C        2.977     0.008    27.843     8.655
    26   6 C        2.977     0.008    27.847     8.656
    27   6 C        2.923    -0.035    28.876     8.812
    28   6 C        2.924    -0.037    28.918     8.819
    29   6 C        2.973     0.016    27.644     8.624
    30   6 C        2.900    -0.039    28.979     8.827
    31   6 C        2.900    -0.038    28.939     8.820
    32   6 C        2.973     0.010    27.778     8.645
    33   6 C        2.924    -0.031    28.777     8.797
    34   6 C        2.921    -0.047    29.179     8.858
    35   6 C        2.926     0.063    26.594     8.457
    36   7 N        2.752    -0.075    22.700     7.076
    37   6 C        2.925     0.065    26.538     8.448
    38   6 C        2.922    -0.047    29.175     8.858
    39   6 C        2.919    -0.029    28.718     8.788
    40   6 C        2.919    -0.039    28.963     8.825
    41   6 C        2.920    -0.029    28.735     8.790
    42   6 C        2.922    -0.048    29.185     8.859
    43   6 C        2.923     0.065    26.540     8.448
    44   6 C        2.923    -0.048    29.192     8.860
    45   6 C        2.919    -0.029    28.735     8.790
    46   6 C        2.919    -0.039    28.968     8.826
    47   6 C        2.920    -0.029    28.735     8.791
    48   6 C        2.922    -0.048    29.195     8.861
    49   6 C        2.920    -0.049    29.218     8.864
    50   6 C        2.925    -0.036    28.902     8.816
    51   6 C        2.923    -0.032    28.802     8.801
    52   6 C        2.924    -0.034    28.857     8.809
    53   6 C        2.921    -0.035    28.874     8.812
    54   6 C        2.928    -0.036    28.894     8.815
    55   1 H        0.925     0.032     2.556     2.500
    56   1 H        0.925     0.033     2.543     2.494
    57   1 H        0.926     0.034     2.528     2.487
    58   1 H        0.926     0.031     2.572     2.508
    59   1 H        0.926     0.032     2.563     2.503
    60   1 H        0.926     0.032     2.564     2.504
    61   1 H        0.926     0.030     2.581     2.512
    62   1 H        0.926     0.032     2.561     2.503
    63   1 H        0.926     0.032     2.552     2.498
    64   1 H        0.926     0.032     2.552     2.498
    65   1 H        0.926     0.032     2.561     2.503
    66   1 H        0.926     0.030     2.582     2.513
    67   1 H        0.926     0.032     2.565     2.504
    68   1 H        0.926     0.032     2.564     2.504
    69   1 H        0.926     0.031     2.577     2.510
    70   1 H        0.926     0.031     2.570     2.507
    71   1 H        0.926     0.030     2.582     2.513
    72   1 H        0.926     0.030     2.579     2.512
    73   1 H        0.926     0.030     2.583     2.513
    74   1 H        0.925     0.028     2.616     2.529
    75   1 H        0.925     0.033     2.543     2.494
    76   1 H        0.925     0.033     2.544     2.494
    77   1 H        0.926     0.033     2.545     2.495
    78   1 H        0.926     0.031     2.567     2.505
    79   1 H        0.926     0.031     2.575     2.509
    80   1 H        0.926     0.030     2.584     2.514
    81   1 H        0.926     0.029     2.598     2.521
    82   1 H        0.926     0.031     2.575     2.510
    83   1 H        0.926     0.031     2.567     2.505
    84   1 H        0.926     0.031     2.570     2.507
    85   1 H        0.926     0.031     2.576     2.510
    86   1 H        0.926     0.029     2.595     2.519
    87   1 H        0.926     0.031     2.576     2.510
    88   1 H        0.926     0.031     2.570     2.507
    89   1 H        0.926     0.032     2.565     2.505
    90   1 H        0.926     0.031     2.572     2.508
    91   1 H        0.926     0.029     2.606     2.525
    92   1 H        0.926     0.029     2.600     2.522
    93   1 H        0.926     0.029     2.597     2.520
    94   1 H        0.925     0.028     2.616     2.529

molecular dipole:
                 x           y           z       tot (Debye)
 q only:       -0.179      -0.089      -0.006
   full:       -0.175      -0.089      -0.007       0.500

 projected vibrational frequencies (cm⁻¹)
eigval :       -0.00    -0.00     0.00     0.00     0.00     0.00
eigval :        2.76     5.43     8.92    13.18    19.59    25.23
eigval :       26.51    36.03    40.28    43.86    45.90    52.66
eigval :       59.52    61.57    68.97    72.03    75.66    78.13
eigval :       82.19    89.82    99.45   104.23   121.45   129.92
eigval :      146.45   168.43   191.10   192.25   206.34   221.70
eigval :      229.54   231.97   245.73   249.45   267.59   274.51
eigval :      310.04   314.87   318.94   324.08   333.98   338.00
eigval :      367.54   370.83   377.31   377.63   378.25   378.70
eigval :      382.81   384.83   388.14   391.27   397.93   404.05
eigval :      419.13   454.69   464.33   466.88   476.53   482.61
eigval :      491.13   495.75   502.67   525.64   530.32   546.17
eigval :      551.12   580.95   583.21   583.92   588.05   592.28
eigval :      593.24   595.96   603.03   608.14   613.12   615.82
eigval :      639.02   659.20   659.31   662.10   664.30   671.47
eigval :      681.11   683.57   684.78   699.31   703.52   735.10
eigval :      756.66   757.14   760.02   760.26   768.28   776.31
eigval :      800.49   808.89   817.24   818.84   827.92   845.86
eigval :      860.32   862.41   864.83   869.48   872.15   874.14
eigval :      874.74   876.18   876.36   882.56   890.56   892.43
eigval :      892.86   893.52   905.85   909.64   910.26   912.14
eigval :      912.68   916.47   919.66   922.58   923.87   927.18
eigval :      927.57   927.63   928.56   928.79   929.17   929.25
eigval :      929.48   929.51   930.43   931.35   933.35   985.68
eigval :      985.87   986.25   987.68  1004.82  1005.03  1017.94
eigval :     1023.49  1024.02  1083.04  1083.50  1084.09  1084.14
eigval :     1085.22  1121.85  1122.29  1124.05  1124.86  1139.28
eigval :     1141.31  1144.20  1148.66  1171.69  1180.71  1180.81
eigval :     1180.86  1181.03  1187.10  1187.23  1191.95  1194.55
eigval :     1195.53  1196.50  1198.17  1201.63  1209.21  1209.64
eigval :     1223.08  1224.26  1240.37  1243.59  1272.06  1272.96
eigval :     1276.33  1277.26  1278.73  1279.58  1282.80  1283.40
eigval :     1295.02  1309.71  1312.78  1315.88  1319.59  1320.14
eigval :     1322.04  1322.75  1326.66  1327.09  1328.31  1328.58
eigval :     1336.63  1340.55  1346.82  1365.55  1397.49  1413.44
eigval :     1414.25  1419.11  1436.70  1436.85  1443.29  1443.82
eigval :     1471.14  1472.42  1474.54  1476.28  1477.35  1487.70
eigval :     1490.40  1509.37  1548.46  1551.84  1555.56  1561.86
eigval :     1574.09  1576.80  1577.13  1580.84  1581.24  1591.00
eigval :     1594.73  1594.96  1595.29  1599.28  1601.17  1603.29
eigval :     1640.77  1654.32  3036.78  3050.84  3052.99  3061.53
eigval :     3065.63  3067.19  3070.05  3071.58  3072.74  3073.04
eigval :     3075.13  3075.44  3075.70  3075.94  3076.15  3076.47
eigval :     3076.79  3077.23  3079.17  3080.14  3081.32  3082.41
eigval :     3085.39  3085.62  3086.03  3086.21  3086.91  3087.00
eigval :     3088.12  3089.06  3089.09  3089.26  3089.81  3091.84
eigval :     3095.40  3096.33  3097.09  3097.24  3097.57  3097.96

   temp. (K)  partition function   enthalpy   heat capacity  entropy
                                   cal/mol     cal/K/mol   cal/K/mol   J/K/mol
 298.15  VIB  0.389E+24            26915.000    165.508    173.199
         ROT  0.225E+09              888.752      2.981     41.200
         INT  0.876E+32            27803.752    168.489    214.399
         TR   0.176E+29             1481.254      4.968     45.467
         TOT                       29285.0058   173.4574   259.8659  1087.2791

       T/K    H(0)-H(T)+PV         H(T)/Eh          T*S/Eh         G(T)/Eh
   ------------------------------------------------------------------------
    298.15    0.466686E-01    0.788404E+00    0.123471E+00    0.664934E+00
   ------------------------------------------------------------------------

         :::::::::::::::::::::::::::::::::::::::::::::::::::::
         ::                  THERMODYNAMIC                  ::
         :::::::::::::::::::::::::::::::::::::::::::::::::::::
         :: total free energy        -136.881390811099 Eh   ::
         ::.................................................::
         :: total energy             -137.546324352895 Eh   ::
         :: zero point energy           0.741735609978 Eh   ::
         :: G(RRHO) w/o ZPVE           -0.076802068182 Eh   ::
         :: G(RRHO) contrib.            0.664933541796 Eh   ::
         :::::::::::::::::::::::::::::::::::::::::::::::::::::

           -------------------------------------------------
          | TOTAL ENERGY             -137.546324352895 Eh   |
          | TOTAL ENTHALPY           -136.757920115593 Eh   |
          | TOTAL FREE ENERGY        -136.881390811099 Eh   |
          | GRADIENT NORM               0.000066869485 Eh/α |
          | HOMO-LUMO GAP               2.079394371012 eV   |
           -------------------------------------------------

 * finished run on 2025/09/10 at 18:43:19.757
