   * xtb version 6.7.1 (edcfbbe) compiled by 'albert@albert-system' on 2024-07-22

   ID    Z sym.   atoms
    1    6 C      1-6, 8-35, 37-54
    2    7 N      7, 36
    3    1 H      55-94

          program call               : xtb data2507/gas/BDAVBi/BDAVBi_gas_S0_finalOpt.xtbopt.xyz --gfn 2 --spinpol --tblite --uhf 2 --ohess vtight --parallel 40 --molden --ceasefiles --namespace data2507/gas/BDAVBi/BDAVBi_gas_T1_preOpt
 * total energy  :  -137.4662927 Eh     change       -0.4051878E-07 Eh
 * total energy  :  -137.4738185 Eh     change       -0.7525864E-02 Eh
 * total energy  :  -137.4763722 Eh     change       -0.2553684E-02 Eh
 * total energy  :  -137.4765569 Eh     change       -0.1846728E-03 Eh
 * total energy  :  -137.4767573 Eh     change       -0.2004175E-03 Eh
 * total energy  :  -137.4768538 Eh     change       -0.9650130E-04 Eh
 * total energy  :  -137.4769719 Eh     change       -0.1181079E-03 Eh
 * total energy  :  -137.4770846 Eh     change       -0.1126551E-03 Eh
 * total energy  :  -137.4771350 Eh     change       -0.5041214E-04 Eh
 * total energy  :  -137.4771624 Eh     change       -0.2739550E-04 Eh
 * total energy  :  -137.4772285 Eh     change       -0.2036155E-05 Eh
 * total energy  :  -137.4772304 Eh     change       -0.1952849E-05 Eh
 * total energy  :  -137.4772323 Eh     change       -0.1904381E-05 Eh
 * total energy  :  -137.4772344 Eh     change       -0.2058907E-05 Eh
 * total energy  :  -137.4772364 Eh     change       -0.1999996E-05 Eh
 * total energy  :  -137.4772377 Eh     change       -0.1347385E-05 Eh
 * total energy  :  -137.4772389 Eh     change       -0.1140227E-05 Eh
 * total energy  :  -137.4772398 Eh     change       -0.8847350E-06 Eh
 * total energy  :  -137.4772398 Eh     change       -0.2251076E-07 Eh
   *** GEOMETRY OPTIMIZATION CONVERGED AFTER 44 ITERATIONS ***

 final structure:
================
94
 xtb: 6.7.1 (edcfbbe)
C           -2.72510540816641        2.10289109897533       -0.20868544818856
C           -3.28931477886720        0.83134850672219        0.02051218688429
C           -4.64808451262276        0.51533247032342        0.02107758534312
C           -5.69398109055861        1.45555874459836       -0.21070967443668
C           -7.00720538800227        1.08535585166265       -0.19027032265543
C           -7.38212111766642       -0.24970359481237        0.04927849771529
N           -8.72084978992921       -0.62378812914640        0.06116710462192
C           -9.10032776112152       -1.87973776836705       -0.42268022613428
C          -10.11887600853814       -2.60144037223322        0.20179396605412
C          -10.48591849642271       -3.84218866245708       -0.28013445262027
C           -9.84514861097512       -4.38527578427497       -1.38255448547432
C           -8.83207502809464       -3.67317364337888       -2.00503498847142
C           -8.46049740331634       -2.42939909671231       -1.53492547371427
C           -9.69076387066137        0.25131604217377        0.55941809813227
C           -9.41140641666273        1.06125749846301        1.66147420689202
C          -10.37097454783311        1.92672956922057        2.14756919176407
C          -11.62014916947002        1.99712494055462        1.55131217687901
C          -11.90310937253509        1.19328525076665        0.45832582172625
C          -10.94931732995043        0.32793083505557       -0.03944559653373
C           -6.36714875775014       -1.19934978283410        0.27583142788138
C           -5.05530291379431       -0.82934449660354        0.26822555633163
C           -1.36929442136282        2.41643637832057       -0.19480012348711
C           -0.32788680307407        1.47633571270990        0.06984578776543
C            0.98076174229642        1.84849676259966        0.08517446910578
C            1.38689428057823        3.17807623589733       -0.18048418913329
C            2.77944125741955        3.54404286021512       -0.17184774959910
C            3.27505361843650        4.60743994259870       -0.94799283208586
C            4.61570005807947        4.90578854915201       -0.97851245068004
C            5.54476539610692        4.15413810462483       -0.24790851415019
C            6.96266494548761        4.43823492911251       -0.34194909535376
C            7.95264599484235        3.53286051262445       -0.25895433530946
C            7.76306873963646        2.08983837826418       -0.22978196737119
C            6.80470325069424        1.47375468143963       -1.04171968314771
C            6.57201782928888        0.12155987867847       -0.96200976488432
C            7.28848330183146       -0.66913394863106       -0.05980973802250
N            6.98346969523901       -2.02672221220456        0.07864659016555
C            5.64625303680791       -2.43592514876711        0.02571779407425
C            4.63829175614213       -1.62787908136163        0.55400000993523
C            3.31903912853995       -2.03061832816539        0.49123671040347
C            2.98098279196943       -3.24279132878084       -0.08808790439722
C            3.97780461699219       -4.05072601478452       -0.60992296843657
C            5.29982772673640       -3.65356796265445       -0.55984626835250
C            8.00252085268914       -2.95886773960980        0.29265057853234
C            9.23817304048950       -2.80775588025560       -0.33733257444785
C           10.24667210960989       -3.72600093038370       -0.12089996975102
C           10.04145347298342       -4.81016485648161        0.71683294032588
C            8.81548338579427       -4.96646097903558        1.34289739102291
C            7.80303657751671       -4.04952093642039        1.13948114687561
C            8.29630599739554       -0.07547863005680        0.70053520077494
C            8.53665954690144        1.27913180689079        0.60234865192014
C            5.04557661108699        3.14643204344962        0.59194613673034
C            3.70965815690413        2.84558853093141        0.62223072053073
C            0.36354337901083        4.11425185711775       -0.46263077198283
C           -0.94888044442284        3.75627963328666       -0.45874859898682
H           -3.39997892971250        2.92115800732165       -0.41963987998566
H           -2.61377864856335        0.00977156955220        0.21254750815022
H           -5.44454045748545        2.48383651170126       -0.41840315972411
H           -7.77963005434086        1.81681074622238       -0.38211794429554
H          -10.61025178344926       -2.18493801290174        1.06893136197469
H          -11.27244617053513       -4.39330091048511        0.21380639543811
H          -10.13349606707725       -5.35667878822198       -1.75406775942680
H           -8.33252072904291       -4.08632343536975       -2.86874525088737
H           -7.67989252123295       -1.86863698998154       -2.02757512049743
H           -8.44255143445461        0.99654682267678        2.13436799328368
H          -10.14484687244191        2.54497257910391        3.00364700599386
H          -12.36809823119927        2.67350060430579        1.93585623826440
H          -12.87211244388813        1.24651402753287       -0.01552699539658
H          -11.16685686572062       -0.28899875663500       -0.89905454370791
H           -6.64452800446867       -2.22404797051915        0.47861252752131
H           -4.29113938664174       -1.56780405451111        0.46417823073811
H           -0.58451930856508        0.44465094153414        0.25494637607678
H            1.73941392768775        1.09941934907868        0.26070665329357
H            2.59663909606867        5.17371953063045       -1.56861132871956
H            4.97130560303946        5.70923837579268       -1.60929232952972
H            7.22289702376457        5.48085935785016       -0.48319550106209
H            8.97891381264903        3.87723410803486       -0.22135433077066
H            6.24524859077040        2.07127461736635       -1.74533089596582
H            5.82544954698787       -0.33891922577647       -1.59240138572291
H            4.89884142989255       -0.68580296272017        1.01374964229000
H            2.54825300443431       -1.39823097611407        0.90704176410974
H            1.94875723303967       -3.55505254413424       -0.13320687659614
H            3.72370728015090       -4.99497450575739       -1.06886718307101
H            6.07325156537415       -4.28054386922195       -0.97895545426021
H            9.39626170228503       -1.96917744660403       -0.99968289387054
H           11.19749582767825       -3.59857404981896       -0.61733067186785
H           10.83099601675018       -5.52765882603407        0.88087741364822
H            8.64848892287093       -5.80509034944978        2.00289490142069
H            6.85227552680000       -4.16760751722392        1.63844353431874
H            8.87394998881914       -0.68100025435682        1.38389506803618
H            9.30337963041058        1.72920201395845        1.21691781800929
H            5.72857893153305        2.61559620577676        1.23854821503198
H            3.35854803959262        2.08194388056419        1.30021874509369
H            0.63062164743910        5.14480978136608       -0.64604410012934
H           -1.71051929339050        4.49841137178517       -0.65572804767091

 projected vibrational frequencies (cm⁻¹)
eigval :       -0.00    -0.00    -0.00    -0.00     0.00     0.00
eigval :        2.61     5.40     7.56    12.42    19.13    25.16
eigval :       28.05    38.16    40.64    46.55    49.60    50.33
eigval :       59.74    62.89    66.65    70.05    77.97    80.32
eigval :       85.73    99.67   102.25   119.72   122.79   133.59
eigval :      149.53   171.80   192.71   206.37   209.14   227.36
eigval :      229.31   235.02   249.79   253.04   267.83   273.62
eigval :      303.39   309.03   314.40   322.52   324.20   337.36
eigval :      346.34   369.30   376.30   377.93   378.18   380.84
eigval :      380.88   387.13   389.68   392.78   398.52   400.71
eigval :      408.57   436.32   458.00   464.88   467.92   473.61
eigval :      477.49   490.82   498.67   502.31   520.67   532.62
eigval :      545.42   578.09   579.26   582.79   587.66   591.30
eigval :      591.51   593.09   595.08   603.04   609.21   611.24
eigval :      638.05   654.57   659.14   660.68   661.70   662.53
eigval :      666.45   678.35   683.03   687.79   697.45   730.55
eigval :      752.43   756.13   756.26   759.09   759.34   766.01
eigval :      795.68   796.39   797.14   799.58   816.56   817.98
eigval :      825.75   836.85   845.32   849.12   860.22   864.41
eigval :      872.44   872.98   873.28   874.31   875.29   878.28
eigval :      891.07   892.54   893.17   893.43   905.89   906.70
eigval :      909.81   910.04   911.50   912.37   914.06   915.20
eigval :      915.95   924.87   926.67   927.04   927.38   927.56
eigval :      928.52   928.61   928.70   928.88   930.14   932.09
eigval :      962.96   978.33   985.58   998.01  1001.86  1002.78
eigval :     1004.70  1022.02  1054.15  1081.40  1082.51  1083.78
eigval :     1084.84  1121.60  1122.38  1123.79  1125.04  1131.41
eigval :     1135.62  1141.03  1147.37  1157.62  1174.80  1179.29
eigval :     1179.68  1179.94  1180.59  1180.71  1186.04  1187.69
eigval :     1192.58  1193.14  1193.55  1195.80  1207.50  1210.19
eigval :     1222.00  1230.09  1232.64  1240.81  1246.65  1272.62
eigval :     1273.89  1276.81  1278.90  1280.57  1282.35  1282.97
eigval :     1284.89  1303.91  1309.34  1314.29  1319.27  1319.96
eigval :     1322.71  1324.20  1325.48  1327.77  1328.07  1332.02
eigval :     1340.92  1354.70  1360.44  1371.65  1413.76  1416.04
eigval :     1425.35  1433.11  1434.69  1435.91  1439.26  1443.25
eigval :     1444.88  1448.30  1463.15  1465.22  1465.64  1470.50
eigval :     1474.84  1481.94  1484.03  1484.57  1495.63  1510.67
eigval :     1539.16  1546.37  1567.86  1569.10  1573.84  1575.66
eigval :     1579.90  1583.22  1585.43  1591.75  1593.11  1593.47
eigval :     1599.01  1617.75  3031.53  3046.10  3058.48  3062.20
eigval :     3063.65  3068.40  3070.81  3072.82  3073.14  3075.01
eigval :     3075.32  3075.97  3076.61  3077.23  3078.18  3078.35
eigval :     3079.08  3079.54  3080.08  3080.29  3081.53  3082.48
eigval :     3085.57  3086.32  3087.45  3087.73  3087.81  3088.99
eigval :     3089.22  3089.55  3090.03  3091.66  3092.16  3093.31
eigval :     3096.05  3097.30  3097.65  3099.64  3100.10  3102.60

   temp. (K)  partition function   enthalpy   heat capacity  entropy
                                   cal/mol     cal/K/mol   cal/K/mol   J/K/mol
 298.15  VIB  0.351E+24            27038.873    167.238    173.555
         ROT  0.229E+09              888.752      2.981     41.235
         INT  0.805E+32            27927.625    170.219    214.790
         TR   0.176E+29             1481.254      4.968     45.467
         TOT                       29408.8791   175.1872   260.2571  1088.9158

       T/K    H(0)-H(T)+PV         H(T)/Eh          T*S/Eh         G(T)/Eh
   ------------------------------------------------------------------------
    298.15    0.468660E-01    0.785337E+00    0.123657E+00    0.661681E+00
   ------------------------------------------------------------------------

         :::::::::::::::::::::::::::::::::::::::::::::::::::::
         ::                  THERMODYNAMIC                  ::
         :::::::::::::::::::::::::::::::::::::::::::::::::::::
         :: total free energy        -136.815558987504 Eh   ::
         ::.................................................::
         :: total energy             -137.477239791274 Eh   ::
         :: zero point energy           0.738471324711 Eh   ::
         :: G(RRHO) w/o ZPVE           -0.076790520941 Eh   ::
         :: G(RRHO) contrib.            0.661680803770 Eh   ::
         :::::::::::::::::::::::::::::::::::::::::::::::::::::

           -------------------------------------------------
          | TOTAL ENERGY             -137.477239791274 Eh   |
          | TOTAL ENTHALPY           -136.691902434645 Eh   |
          | TOTAL FREE ENERGY        -136.815558987504 Eh   |
          | GRADIENT NORM               0.000079064627 Eh/α |
           -------------------------------------------------

 * finished run on 2025/09/10 at 18:43:32.546
