   * xtb version 6.7.1 (edcfbbe) compiled by 'albert@albert-system' on 2024-07-22

   ID    Z sym.   atoms
    1    6 C      1-30
    2    1 H      31-52

          program call               : xtb data2507/gas/FAPbCl3/FAPbCl3_gas_S0_finalOpt.xtbopt.xyz --gfn 2 --spinpol --tblite --uhf 2 --ohess vtight --parallel 40 --molden --ceasefiles --namespace data2507/gas/FAPbCl3/FAPbCl3_gas_T1_preOpt
 * total energy  :   -75.3075562 Eh     change       -0.2328591E-08 Eh
 * total energy  :   -75.3180538 Eh     change       -0.1049756E-01 Eh
 * total energy  :   -75.3216874 Eh     change       -0.3633630E-02 Eh
 * total energy  :   -75.3227653 Eh     change       -0.1077899E-02 Eh
 * total energy  :   -75.3237927 Eh     change       -0.1027373E-02 Eh
 * total energy  :   -75.3246226 Eh     change       -0.8299227E-03 Eh
 * total energy  :   -75.3252717 Eh     change       -0.6490705E-03 Eh
 * total energy  :   -75.3257996 Eh     change       -0.5279319E-03 Eh
 * total energy  :   -75.3262604 Eh     change       -0.4608146E-03 Eh
 * total energy  :   -75.3266793 Eh     change       -0.4189252E-03 Eh
 * total energy  :   -75.3276519 Eh     change       -0.3737346E-06 Eh
 * total energy  :   -75.3276523 Eh     change       -0.3751041E-06 Eh
 * total energy  :   -75.3276526 Eh     change       -0.3437805E-06 Eh
 * total energy  :   -75.3276530 Eh     change       -0.3722205E-06 Eh
 * total energy  :   -75.3276533 Eh     change       -0.3125770E-06 Eh
 * total energy  :   -75.3276537 Eh     change       -0.3363907E-06 Eh
 * total energy  :   -75.3276540 Eh     change       -0.2999377E-06 Eh
 * total energy  :   -75.3276542 Eh     change       -0.2616575E-06 Eh
 * total energy  :   -75.3276542 Eh     change       -0.2198584E-07 Eh
   *** GEOMETRY OPTIMIZATION CONVERGED AFTER 68 ITERATIONS ***

 final structure:
================
52
 xtb: 6.7.1 (edcfbbe)
C           -5.66229495592414        1.65093306681017       -0.26811220144414
C           -4.97108778322682        0.62979182267015       -0.91452382910131
C           -3.60250801477680        0.55366187463555       -0.84524082083839
C           -2.84709210102251        1.50637207972569       -0.11287268086321
C           -1.43182410665625        1.43913906521513        0.02085305739902
C           -0.66707887363907        2.65849897496702        0.05138601108933
C            0.67659810141608        2.65596395732526       -0.05019692992643
C            1.43672311168907        1.43371257749143       -0.01993024372424
C            2.85224219716010        1.49554320592409        0.11378743810268
C            3.60404359352553        0.53980957582417        0.84592869636688
C            4.97290601321305        0.61072818727057        0.91521477214407
C            5.66797577707128        1.62937349065061        0.26901736890314
C            4.95273926700310        2.59826439431249       -0.43221044488191
C            3.58358974457602        2.54898956806281       -0.49668538775109
C            0.68687972266706        0.19674765634430       -0.01339453478333
C            1.42281228695778       -1.07662882479024       -0.08291650341984
C            1.22856691195092       -2.08203247725924        0.86405595483505
C            1.92641413056520       -3.27044984706970        0.77719333335820
C            2.82344330429917       -3.47999071422888       -0.25858475839899
C            3.02398289981081       -2.48828390841200       -1.20420816991973
C            2.33442490396855       -1.29420534717431       -1.11607360391069
C           -0.68666374077920        0.19934488506370        0.01401759589162
C           -1.42740768783457       -1.07126045571786        0.08321931484523
C           -1.23693966080822       -2.07715024119402       -0.86400293016979
C           -1.93926381843221       -3.26294974978824       -0.77744772695249
C           -2.83709360381664       -3.46936408332664        0.25826369875466
C           -3.03391388818226       -2.47714144681553        1.20412856983769
C           -2.33985507653092       -1.28564926562684        1.11630466896000
C           -3.57444038551908        2.56245759600439        0.49782548502595
C           -4.94338983664379        2.61694743036156        0.43333862348621
H           -6.73876460842363        1.70311868227308       -0.32170859488677
H           -5.51649802741997       -0.10387489804248       -1.49071280896122
H           -3.08662333556918       -0.20707240944599       -1.40838242062649
H           -1.19921504672674        3.59727806960191        0.06276992681102
H            1.21228278669312        3.59272731077729       -0.06135734221512
H            3.08528145144651       -0.21909493198386        1.40890360829980
H            5.51552876804389       -0.12513306577160        1.49124047565175
H            6.74464491201039        1.67745267627573        0.32260236684508
H            5.48371283224349        3.39367038935754       -0.93588937413548
H            3.05580819938213        3.28598281725103       -1.08299972838975
H            0.54159583289380       -1.91718462248252        1.68143755979422
H            1.77233511178388       -4.03729536157746        1.52243983079506
H            3.36526818772664       -4.41179238500205       -0.32591543475567
H            3.72220304228692       -2.64561037843139       -2.01343278458433
H            2.48683911578254       -0.52438015021026       -1.85901709034320
H           -0.54934388880033       -1.91468590477509       -1.68133556448016
H           -1.78806606661573       -4.03018266843368       -1.52288523779258
H           -3.38242523599806       -4.39913378266538        0.32535535233436
H           -3.73273721862838       -2.63203662017143        2.01330058363924
H           -2.48938199411061       -0.51543960995304        1.85943558641386
H           -3.04387502501295        3.29730065504424        1.08431768435333
H           -5.47134560223678        3.41425006001751        0.93718523811779

 projected vibrational frequencies (cm⁻¹)
eigval :       -0.00    -0.00    -0.00    -0.00     0.00     0.00
eigval :       16.01    25.92    46.36    47.06    59.00    60.93
eigval :       71.52    78.08    87.83    89.95   126.60   133.32
eigval :      196.85   203.89   215.46   227.69   237.77   256.46
eigval :      263.24   300.89   312.07   369.47   371.94   374.79
eigval :      378.22   403.40   405.71   445.22   457.44   460.10
eigval :      486.08   539.83   551.10   563.56   565.52   580.35
eigval :      583.05   585.42   588.18   593.89   639.52   643.84
eigval :      664.21   665.31   666.37   683.49   688.62   727.49
eigval :      732.89   742.44   759.31   777.74   796.10   829.52
eigval :      836.44   841.79   866.20   866.26   874.53   876.83
eigval :      897.88   900.41   901.40   914.01   914.15   918.70
eigval :      919.51   928.02   928.74   930.24   930.61   940.01
eigval :      947.43   954.77   973.02  1002.86  1012.14  1056.15
eigval :     1068.20  1071.62  1083.88  1084.13  1117.04  1121.07
eigval :     1122.87  1126.09  1144.08  1154.45  1174.45  1174.67
eigval :     1181.59  1181.72  1184.13  1195.78  1198.00  1205.78
eigval :     1240.78  1242.42  1275.38  1275.43  1281.95  1282.67
eigval :     1298.82  1309.91  1314.42  1319.94  1331.48  1332.66
eigval :     1357.28  1370.86  1403.72  1404.16  1414.29  1427.01
eigval :     1428.86  1458.00  1467.66  1470.08  1494.51  1496.91
eigval :     1498.94  1536.62  1552.20  1569.16  1570.68  1586.66
eigval :     1586.90  1608.29  3068.83  3069.08  3071.57  3071.59
eigval :     3072.80  3073.00  3073.18  3073.57  3080.35  3080.94
eigval :     3081.23  3085.96  3086.29  3086.82  3089.23  3092.40
eigval :     3092.65  3095.25  3095.49  3097.76  3111.03  3111.28

   temp. (K)  partition function   enthalpy   heat capacity  entropy
                                   cal/mol     cal/K/mol   cal/K/mol   J/K/mol
 298.15  VIB  0.102E+11            13751.395     89.958     85.070
         ROT  0.795E+07              888.752      2.981     34.555
         INT  0.809E+17            14640.148     92.939    119.625
         TR   0.724E+28             1481.254      4.968     43.697
         TOT                       16121.4017    97.9075   163.3217   683.3380

       T/K    H(0)-H(T)+PV         H(T)/Eh          T*S/Eh         G(T)/Eh
   ------------------------------------------------------------------------
    298.15    0.256911E-01    0.431587E+00    0.775994E-01    0.353987E+00
   ------------------------------------------------------------------------

         :::::::::::::::::::::::::::::::::::::::::::::::::::::
         ::                  THERMODYNAMIC                  ::
         :::::::::::::::::::::::::::::::::::::::::::::::::::::
         :: total free energy         -74.973666779468 Eh   ::
         ::.................................................::
         :: total energy              -75.327654235373 Eh   ::
         :: zero point energy           0.405895777667 Eh   ::
         :: G(RRHO) w/o ZPVE           -0.051908321762 Eh   ::
         :: G(RRHO) contrib.            0.353987455905 Eh   ::
         :::::::::::::::::::::::::::::::::::::::::::::::::::::

           -------------------------------------------------
          | TOTAL ENERGY              -75.327654235373 Eh   |
          | TOTAL ENTHALPY            -74.896067368731 Eh   |
          | TOTAL FREE ENERGY         -74.973666779468 Eh   |
          | GRADIENT NORM               0.000042118917 Eh/α |
           -------------------------------------------------

 * finished run on 2025/09/10 at 02:51:33.205
