   * xtb version 6.7.1 (edcfbbe) compiled by 'albert@albert-system' on 2024-07-22

   ID    Z sym.   atoms
    1    6 C      1-30
    2    1 H      31-52

          program call               : xtb data2507/gas/FAPbCl3/FAPbCl3.xyz --gfn 2 --ohess vtight --parallel 40 --molden --ceasefiles --namespace data2507/gas/FAPbCl3/FAPbCl3_gas_S0_preOpt
          :  Hamiltonian                  GFN2-xTB          :
 * total energy  :   -75.4167631 Eh     change       -0.1351893E-08 Eh
 * total energy  :   -75.4240928 Eh     change       -0.7329723E-02 Eh
 * total energy  :   -75.4256833 Eh     change       -0.1590549E-02 Eh
 * total energy  :   -75.4261517 Eh     change       -0.4684026E-03 Eh
 * total energy  :   -75.4265464 Eh     change       -0.3946614E-03 Eh
 * total energy  :   -75.4268384 Eh     change       -0.2919624E-03 Eh
 * total energy  :   -75.4272134 Eh     change       -0.3750603E-03 Eh
 * total energy  :   -75.4277319 Eh     change       -0.5184442E-03 Eh
 * total energy  :   -75.4282772 Eh     change       -0.5453017E-03 Eh
 * total energy  :   -75.4287347 Eh     change       -0.4575711E-03 Eh
 * total energy  :   -75.4315944 Eh     change       -0.5653958E-06 Eh
 * total energy  :   -75.4315947 Eh     change       -0.3135616E-06 Eh
 * total energy  :   -75.4315949 Eh     change       -0.1950144E-06 Eh
 * total energy  :   -75.4315951 Eh     change       -0.1897167E-06 Eh
 * total energy  :   -75.4315952 Eh     change       -0.1641136E-06 Eh
 * total energy  :   -75.4315954 Eh     change       -0.1611564E-06 Eh
 * total energy  :   -75.4315956 Eh     change       -0.1810068E-06 Eh
 * total energy  :   -75.4315957 Eh     change       -0.1274207E-06 Eh
 * total energy  :   -75.4315957 Eh     change       -0.9256098E-09 Eh
   *** GEOMETRY OPTIMIZATION CONVERGED AFTER 44 ITERATIONS ***

 final structure:
================
52
 xtb: 6.7.1 (edcfbbe)
C           -5.65586252215048        1.66656738539002       -0.03414558337328
C           -4.98029775905384        0.91251277664766       -0.97917911766570
C           -3.59934834914490        0.85779717411000       -0.96913418752874
C           -2.87314654600413        1.55954291684526       -0.01129792539363
C           -1.39960680606462        1.52085003153038        0.00734262550195
C           -0.68970846990287        2.71697693325347        0.00816044773774
C            0.68970752490472        2.71697846640657       -0.00796125077706
C            1.39960671598284        1.52085172362210       -0.00722943225027
C            2.87314660133560        1.55954274253878        0.01141330731951
C            3.59934892786649        0.85772666768408        0.96919802157794
C            4.98029772843550        0.91244790396062        0.97925179208150
C            5.65586216116708        1.66657607350367        0.03427718192652
C            4.94167415767593        2.37566192365495       -0.91642179288574
C            3.55983157384070        2.32683594456983       -0.92497813345971
C            0.69929233490112        0.30952151867681       -0.00142628589496
C            1.43679374946104       -0.97045436673686       -0.00747905856304
C            1.23394390379062       -1.91132609677430        0.99706494846187
C            1.92932895708673       -3.10584971011066        0.98790999787974
C            2.83273037539134       -3.37775537062562       -0.02551272515150
C            3.03973176737002       -2.44716025823797       -1.02960219741665
C            2.34847075568869       -1.25026105004506       -1.02047577601459
C           -0.69929147571020        0.30952072934069        0.00145130866884
C           -1.43679256687964       -0.97045574047586        0.00740785611021
C           -1.23394318513868       -1.91125127660983       -0.99720760009186
C           -1.92932937331556       -3.10577491082242       -0.98814374225588
C           -2.83273099850143       -3.37775700934142        0.02525827817774
C           -3.03973181821077       -2.44723808634908        1.02941847516823
C           -2.34846995727647       -1.25033867044079        1.02038310523518
C           -3.55983106621990        2.32676507947412        0.92515178116622
C           -4.94167415970156        2.37558681468967        0.91660303748362
H           -6.73531001152507        1.70372445850576       -0.04032742410779
H           -5.53241390580106        0.36395501073317       -1.72836629205454
H           -3.07673197400653        0.27632365851865       -1.71418851216379
H           -1.23147224059842        3.65180501570186        0.00197738666777
H            1.23147000103985        3.65180673856864       -0.00170979299746
H            3.07673181019916        0.27619551484282        1.71420739728796
H            5.53241424387359        0.36382430303768        1.72839107545010
H            6.73531028328156        1.70372214099014        0.04045417841356
H            5.46313175569896        2.96800327074896       -1.65453337639150
H            3.00336449701080        2.87238041875812       -1.67428914675505
H            0.53524668225808       -1.69812845767625        1.79331050297734
H            1.76563750498615       -3.82732079592935        1.77523240505457
H            3.37446129715449       -4.31218110416294       -0.03239779154576
H            3.74287728835001       -2.65441676499020       -1.82322329657414
H            2.50705742946814       -0.52720139833829       -1.80789348917257
H           -0.53524332006362       -1.69799490409983       -1.79343513296059
H           -1.76563737142149       -3.82718681551717       -1.77552029351847
H           -3.37446460041198       -4.31218173357666        0.03207084415881
H           -3.74288012156693       -2.65455297510430        1.82302185711137
H           -2.50705685828653       -0.52733846842822        1.80785536862484
H           -3.00336439907222        2.87224891812997        1.67450684289141
H           -5.46313117219164        2.96787370995606        1.65475833382974

          :  Hamiltonian                  GFN2-xTB          :
         :: gradient norm              0.000023116559 Eh/a0 ::
         :: HOMO-LUMO gap              3.475459808551 eV    ::
         :: SCC energy               -76.930486194834 Eh    ::
         :: -> dispersion             -0.073201336675 Eh    ::
         :: repulsion energy           1.498890501361 Eh    ::

    * Orbital Energies and Occupations

         #    Occupation            Energy/Eh            Energy/eV
      -------------------------------------------------------------
         1        2.0000           -0.6522587             -17.7489
       ...           ...                  ...                  ...
        59        2.0000           -0.4212791             -11.4636
        60        2.0000           -0.4178256             -11.3696
        61        2.0000           -0.4176534             -11.3649
        62        2.0000           -0.4090838             -11.1317
        63        2.0000           -0.4065869             -11.0638
        64        2.0000           -0.4032961             -10.9742
        65        2.0000           -0.4016470             -10.9294
        66        2.0000           -0.4010027             -10.9118
        67        2.0000           -0.4000109             -10.8849
        68        2.0000           -0.3946572             -10.7392
        69        2.0000           -0.3937556             -10.7146
        70        2.0000           -0.3796198             -10.3300
        71        2.0000           -0.3761999             -10.2369 (HOMO)
        72                         -0.2484791              -6.7615 (LUMO)
        73                         -0.2407464              -6.5510
        74                         -0.2232765              -6.0757
        75                         -0.2223603              -6.0507
        76                         -0.2199797              -5.9860
        77                         -0.2175403              -5.9196
        78                         -0.2173951              -5.9156
        79                         -0.2165358              -5.8922
        80                         -0.2001103              -5.4453
        81                         -0.1911501              -5.2015
        82                         -0.1079035              -2.9362
       ...                                ...                  ...
       142                          0.7063961              19.2220
      -------------------------------------------------------------
                  HL-Gap            0.1277208 Eh            3.4755 eV

     #   Z          covCN         q      C6AA      α(0)
     1   6 C        2.920    -0.031    28.782     8.798
     2   6 C        2.919    -0.029    28.733     8.790
     3   6 C        2.924    -0.031    28.781     8.798
     4   6 C        2.978     0.013    27.718     8.636
     5   6 C        2.980     0.003    27.957     8.673
     6   6 C        2.922    -0.038    28.939     8.822
     7   6 C        2.922    -0.038    28.939     8.822
     8   6 C        2.980     0.003    27.957     8.673
     9   6 C        2.978     0.013    27.718     8.636
    10   6 C        2.924    -0.031    28.781     8.798
    11   6 C        2.919    -0.029    28.733     8.790
    12   6 C        2.920    -0.031    28.782     8.798
    13   6 C        2.919    -0.030    28.752     8.793
    14   6 C        2.926    -0.034    28.853     8.809
    15   6 C        2.983     0.000    28.015     8.682
    16   6 C        2.978     0.016    27.647     8.625
    17   6 C        2.925    -0.032    28.789     8.799
    18   6 C        2.919    -0.030    28.744     8.792
    19   6 C        2.920    -0.031    28.783     8.798
    20   6 C        2.919    -0.030    28.744     8.792
    21   6 C        2.925    -0.031    28.784     8.798
    22   6 C        2.983     0.000    28.015     8.682
    23   6 C        2.978     0.016    27.647     8.625
    24   6 C        2.925    -0.032    28.789     8.799
    25   6 C        2.919    -0.030    28.744     8.792
    26   6 C        2.920    -0.031    28.783     8.798
    27   6 C        2.919    -0.030    28.744     8.792
    28   6 C        2.925    -0.031    28.784     8.798
    29   6 C        2.926    -0.034    28.853     8.809
    30   6 C        2.919    -0.030    28.752     8.793
    31   1 H        0.926     0.029     2.603     2.523
    32   1 H        0.926     0.029     2.604     2.524
    33   1 H        0.926     0.028     2.608     2.525
    34   1 H        0.926     0.032     2.559     2.502
    35   1 H        0.926     0.032     2.559     2.502
    36   1 H        0.926     0.028     2.608     2.525
    37   1 H        0.926     0.029     2.604     2.524
    38   1 H        0.926     0.029     2.603     2.523
    39   1 H        0.926     0.029     2.601     2.522
    40   1 H        0.926     0.029     2.598     2.521
    41   1 H        0.926     0.027     2.632     2.537
    42   1 H        0.926     0.029     2.606     2.525
    43   1 H        0.926     0.029     2.603     2.523
    44   1 H        0.926     0.029     2.605     2.524
    45   1 H        0.926     0.027     2.633     2.537
    46   1 H        0.926     0.027     2.632     2.537
    47   1 H        0.926     0.029     2.606     2.525
    48   1 H        0.926     0.029     2.603     2.523
    49   1 H        0.926     0.029     2.605     2.524
    50   1 H        0.926     0.027     2.633     2.537
    51   1 H        0.926     0.029     2.598     2.521
    52   1 H        0.926     0.029     2.601     2.522

molecular dipole:
                 x           y           z       tot (Debye)
 q only:       -0.000       0.018      -0.000
   full:       -0.000      -0.003      -0.000       0.008

 projected vibrational frequencies (cm⁻¹)
eigval :       -0.00     0.00     0.00     0.00     0.00     0.00
eigval :       25.70    33.18    44.37    45.72    49.23    62.73
eigval :       64.09    73.13    73.47   106.02   118.42   123.92
eigval :      203.96   211.36   218.31   221.16   233.05   249.69
eigval :      256.99   332.84   350.00   373.45   373.50   374.28
eigval :      374.60   402.11   417.29   462.43   489.08   491.32
eigval :      504.80   566.28   576.99   583.28   583.28   587.62
eigval :      590.90   597.64   597.91   627.86   666.09   669.14
eigval :      673.21   679.10   682.23   695.98   719.38   757.33
eigval :      758.91   761.02   766.20   808.09   843.21   846.73
eigval :      877.87   878.37   879.37   879.73   901.87   902.51
eigval :      902.56   904.05   920.29   929.09   929.60   930.10
eigval :      930.68   931.38   931.64   932.19   932.30   951.93
eigval :      968.02   981.95   989.91  1036.52  1072.63  1084.51
eigval :     1084.79  1085.70  1091.20  1120.42  1120.90  1121.44
eigval :     1121.98  1138.45  1156.09  1182.44  1182.45  1182.47
eigval :     1182.49  1198.54  1198.64  1200.68  1202.59  1240.68
eigval :     1260.75  1279.93  1282.41  1282.63  1284.68  1296.74
eigval :     1299.29  1315.16  1315.51  1319.11  1320.16  1327.40
eigval :     1407.55  1427.45  1430.22  1432.58  1437.17  1446.18
eigval :     1479.50  1480.54  1491.14  1497.05  1551.32  1571.38
eigval :     1582.63  1583.13  1584.23  1585.00  1601.27  1601.65
eigval :     1601.92  1602.13  3067.81  3068.07  3070.59  3070.62
eigval :     3072.15  3072.44  3072.78  3073.28  3073.87  3079.06
eigval :     3079.13  3079.35  3079.87  3084.61  3084.67  3085.03
eigval :     3086.83  3087.02  3091.64  3091.78  3093.06  3093.22

   temp. (K)  partition function   enthalpy   heat capacity  entropy
                                   cal/mol     cal/K/mol   cal/K/mol   J/K/mol
 298.15  VIB  0.622E+10            13470.485     87.514     83.511
         ROT  0.781E+07              888.752      2.981     34.520
         INT  0.485E+17            14359.238     90.495    118.031
         TR   0.724E+28             1481.254      4.968     43.697
         TOT                       15840.4916    95.4627   161.7285   676.6720

       T/K    H(0)-H(T)+PV         H(T)/Eh          T*S/Eh         G(T)/Eh
   ------------------------------------------------------------------------
    298.15    0.252434E-01    0.435597E+00    0.768424E-01    0.358754E+00
   ------------------------------------------------------------------------

         :::::::::::::::::::::::::::::::::::::::::::::::::::::
         ::                  THERMODYNAMIC                  ::
         :::::::::::::::::::::::::::::::::::::::::::::::::::::
         :: total free energy         -75.072841296139 Eh   ::
         ::.................................................::
         :: total energy              -75.431595693473 Eh   ::
         :: zero point energy           0.410353394265 Eh   ::
         :: G(RRHO) w/o ZPVE           -0.051598996931 Eh   ::
         :: G(RRHO) contrib.            0.358754397335 Eh   ::
         :::::::::::::::::::::::::::::::::::::::::::::::::::::

           -------------------------------------------------
          | TOTAL ENERGY              -75.431595693473 Eh   |
          | TOTAL ENTHALPY            -74.995998868960 Eh   |
          | TOTAL FREE ENERGY         -75.072841296139 Eh   |
          | GRADIENT NORM               0.000023115365 Eh/α |
          | HOMO-LUMO GAP               3.475459808143 eV   |
           -------------------------------------------------

 * finished run on 2025/09/10 at 02:50:26.962
