   * xtb version 6.7.1 (edcfbbe) compiled by 'albert@albert-system' on 2024-07-22

   ID    Z sym.   atoms
    1    6 C      1-30
    2    1 H      31-52

          program call               : xtb data2507/gas/FAPbCl3/FAPbCl3_gas_T1_crest.xyz --gfn 2 --spinpol --tblite --uhf 2 --ohess vtight --parallel 40 --molden --ceasefiles --namespace data2507/gas/FAPbCl3/FAPbCl3_gas_T1_finalOpt
 * total energy  :   -75.3276221 Eh     change       -0.9112398E-08 Eh
 * total energy  :   -75.3276491 Eh     change       -0.2701781E-04 Eh
 * total energy  :   -75.3276561 Eh     change       -0.7027864E-05 Eh
 * total energy  :   -75.3276568 Eh     change       -0.6859208E-06 Eh
 * total energy  :   -75.3276576 Eh     change       -0.8163261E-06 Eh
 * total energy  :   -75.3276584 Eh     change       -0.7782859E-06 Eh
 * total energy  :   -75.3276589 Eh     change       -0.5119248E-06 Eh
 * total energy  :   -75.3276590 Eh     change       -0.1478014E-06 Eh
 * total energy  :   -75.3276590 Eh     change        0.2208787E-07 Eh
 * total energy  :   -75.3276591 Eh     change       -0.6281404E-07 Eh
   *** GEOMETRY OPTIMIZATION CONVERGED AFTER 10 ITERATIONS ***

 final structure:
================
52
 xtb: 6.7.1 (edcfbbe)
C           -5.66560829846635        1.64640754685438       -0.24827898402874
C           -4.97706476095687        0.62379202132321       -0.89490689604856
C           -3.60799627129355        0.54843711070858       -0.83153763020669
C           -2.85021580060832        1.50368669018179       -0.10604708683235
C           -1.43326384935525        1.43929433729628        0.01898263323337
C           -0.67121726624908        2.66056124578102        0.03554804852849
C            0.67207029084049        2.66042773663289       -0.07102518411974
C            1.43460525525123        1.43984613455040       -0.03344096671942
C            2.84889846360242        1.50361821414056        0.10514916145755
C            3.59895608552104        0.54766396741261        0.83973701854352
C            4.96724734922250        0.61956784822393        0.91487812590483
C            5.66437476982884        1.63941181762665        0.27247453925251
C            4.95116122902946        2.60830539827352       -0.43114343790148
C            3.58250481427754        2.55830075009925       -0.50143965400948
C            0.68660545032832        0.20074127530057       -0.02133217146267
C            1.42532979623267       -1.07012501006468       -0.09866110713079
C            1.23823742876590       -2.08200554488891        0.84303618208494
C            1.93909188239894       -3.26779230348177        0.74562783174222
C            2.83200385099301       -3.46863403203268       -0.29548741174099
C            3.02582367159781       -2.47043294167667       -1.23568787939816
C            2.33352166857822       -1.27887487459548       -1.13690854117940
C           -0.68675506798702        0.20131285543542        0.01428210390487
C           -1.42576232641585       -1.06998865961247        0.09447403104125
C           -1.24397597085558       -2.07952645289389       -0.85035718826320
C           -1.94414989804282       -3.26571341471527       -0.75128909177858
C           -2.83100146096410       -3.46849513738682        0.29449568443046
C           -3.01925774211833       -2.47234558220455        1.23794402538179
C           -2.32725754423377       -1.28061721541323        1.13772062369942
C           -3.57469300997393        2.56032622086271        0.50588841418288
C           -4.94416718462720        2.61417755730695        0.44765148459318
H           -6.74234364793367        1.69804323843817       -0.29725782273856
H           -5.52474861460306       -0.11185250636818       -1.46639658532622
H           -3.09432690964236       -0.21436004594050       -1.39394376070625
H           -1.20580851677277        3.59803039582059        0.04111546117586
H            1.20523640341039        3.59841119290309       -0.09167638913093
H            3.07839055491446       -0.21186792711487        1.40017309458753
H            5.50802147000583       -0.11620204141312        1.49276417678654
H            6.74072183558419        1.68846502383759        0.33088436536463
H            5.48378675620731        3.40440777758745       -0.93198097794322
H            3.05695071845822        3.29537042782341       -1.08959034018831
H            0.55488215411334       -1.92419511584084        1.66479989650258
H            1.79061720979047       -4.03962238462860        1.48685284405049
H            3.37590462580391       -4.39858055489380       -0.37109619391205
H            3.72087427330750       -2.62071129127588       -2.04897415067319
H            2.48055245680311       -0.50403813239086       -1.87571272312022
H           -0.56462467883424       -1.92004479871044       -1.67516564015934
H           -1.79971924253363       -4.03617964126782       -1.49472586162910
H           -3.37455687226771       -4.39855521660181        0.37135314572210
H           -3.70959983451338       -2.62430582246362        2.05492025696267
H           -2.47002948559187       -0.50709312125154        1.87875436070968
H           -3.04137859300978        3.29686816194820        1.08780813382631
H           -5.47009831361661        3.41248106485921        0.95202853717803

 projected vibrational frequencies (cm⁻¹)
eigval :       -0.00    -0.00     0.00     0.00     0.00     0.00
eigval :       15.71    25.94    46.46    46.78    58.85    60.34
eigval :       71.57    78.03    87.94    89.94   126.59   133.38
eigval :      196.64   203.96   215.37   227.62   237.74   256.44
eigval :      263.23   300.96   312.41   369.26   372.13   374.78
eigval :      378.24   403.41   405.42   444.88   457.44   460.27
eigval :      485.78   539.77   550.89   563.60   565.57   580.39
eigval :      583.12   585.44   588.21   593.83   639.39   643.89
eigval :      664.14   664.99   666.58   683.50   688.60   727.42
eigval :      732.92   742.40   759.27   777.76   796.13   829.51
eigval :      836.36   841.67   865.41   867.02   874.64   876.81
eigval :      897.65   900.35   901.49   913.71   914.38   918.61
eigval :      919.52   928.13   928.66   930.25   930.70   939.83
eigval :      947.41   954.74   972.80  1002.83  1012.06  1056.17
eigval :     1068.25  1071.93  1083.77  1084.03  1117.02  1120.98
eigval :     1122.78  1125.99  1144.34  1154.48  1174.38  1174.81
eigval :     1181.52  1181.66  1184.21  1195.75  1197.82  1205.77
eigval :     1240.77  1242.61  1275.30  1275.59  1281.95  1282.70
eigval :     1298.84  1309.99  1314.46  1319.94  1331.54  1332.75
eigval :     1357.66  1370.60  1403.10  1404.94  1414.28  1426.70
eigval :     1428.58  1457.83  1467.16  1469.99  1494.48  1496.99
eigval :     1499.30  1536.73  1552.15  1568.94  1570.75  1586.19
eigval :     1587.31  1608.27  3068.76  3069.00  3071.36  3071.43
eigval :     3072.75  3072.96  3073.11  3073.50  3080.38  3080.75
eigval :     3081.13  3085.73  3086.15  3086.71  3089.22  3092.46
eigval :     3092.59  3095.16  3095.38  3097.82  3110.86  3111.24

   temp. (K)  partition function   enthalpy   heat capacity  entropy
                                   cal/mol     cal/K/mol   cal/K/mol   J/K/mol
 298.15  VIB  0.105E+11            13753.473     89.948     85.098
         ROT  0.795E+07              888.752      2.981     34.555
         INT  0.835E+17            14642.225     92.928    119.653
         TR   0.724E+28             1481.254      4.968     43.697
         TOT                       16123.4789    97.8966   163.3497   683.4551

       T/K    H(0)-H(T)+PV         H(T)/Eh          T*S/Eh         G(T)/Eh
   ------------------------------------------------------------------------
    298.15    0.256944E-01    0.431578E+00    0.776127E-01    0.353965E+00
   ------------------------------------------------------------------------

         :::::::::::::::::::::::::::::::::::::::::::::::::::::
         ::                  THERMODYNAMIC                  ::
         :::::::::::::::::::::::::::::::::::::::::::::::::::::
         :: total free energy         -74.973693663238 Eh   ::
         ::.................................................::
         :: total energy              -75.327659135401 Eh   ::
         :: zero point energy           0.405883777132 Eh   ::
         :: G(RRHO) w/o ZPVE           -0.051918304968 Eh   ::
         :: G(RRHO) contrib.            0.353965472163 Eh   ::
         :::::::::::::::::::::::::::::::::::::::::::::::::::::

           -------------------------------------------------
          | TOTAL ENERGY              -75.327659135401 Eh   |
          | TOTAL ENTHALPY            -74.896080959102 Eh   |
          | TOTAL FREE ENERGY         -74.973693663238 Eh   |
          | GRADIENT NORM               0.000071187241 Eh/α |
           -------------------------------------------------

 * finished run on 2025/09/10 at 02:52:45.962
