   * xtb version 6.7.1 (edcfbbe) compiled by 'albert@albert-system' on 2024-07-22

   ID    Z sym.   atoms
    1    6 C      1-30
    2    1 H      31-52

          program call               : xtb data2507/gas/FAPbCl3/FAPbCl3_gas_S0_crest.xyz --gfn 2 --ohess vtight --parallel 40 --molden --ceasefiles --namespace data2507/gas/FAPbCl3/FAPbCl3_gas_S0_finalOpt
          :  Hamiltonian                  GFN2-xTB          :
 * total energy  :   -75.4315935 Eh     change       -0.1319691E-08 Eh
 * total energy  :   -75.4315940 Eh     change       -0.5189945E-06 Eh
 * total energy  :   -75.4315946 Eh     change       -0.6106472E-06 Eh
 * total energy  :   -75.4315954 Eh     change       -0.8227924E-06 Eh
 * total energy  :   -75.4315958 Eh     change       -0.3208758E-06 Eh
 * total energy  :   -75.4315959 Eh     change       -0.1712905E-06 Eh
 * total energy  :   -75.4315961 Eh     change       -0.2041111E-06 Eh
 * total energy  :   -75.4315963 Eh     change       -0.1914221E-06 Eh
 * total energy  :   -75.4315964 Eh     change       -0.6905081E-07 Eh
   *** GEOMETRY OPTIMIZATION CONVERGED AFTER 9 ITERATIONS ***

 final structure:
================
52
 xtb: 6.7.1 (edcfbbe)
C           -5.65135407033263        1.60789307606583       -0.12312782240177
C           -4.96168034408253        0.85174084247487       -1.05621402206909
C           -3.58116737629514        0.79504017326501       -1.02370659981090
C           -2.86951767813454        1.49679102234984       -0.05499706868781
C           -1.39654189513915        1.45566639842985       -0.01293169947468
C           -0.68453616954221        2.65046394604729       -0.00153819298683
C            0.69495897691126        2.64784134547206        0.00363976790393
C            1.40255864645846        1.45038730971478        0.01423589560045
C            2.87567490333414        1.48652031100483        0.05574001546125
C            3.58559899335789        0.78123452420918        1.02314930467452
C            4.96627483669193        0.83414941790206        1.05550582889073
C            5.65785020715464        1.58996847761279        0.12355997558221
C            4.95987087901799        2.30237089502359       -0.83664932907188
C            3.57828943125567        2.25529229680921       -0.86754937529132
C            0.69999162393365        0.24032538030995        0.00899407589209
C            1.43503606428921       -1.04107905051958        0.01013043943991
C            1.21673193055874       -1.98470368187650        1.00881733710064
C            1.90856682540540       -3.18132793658578        1.00426643772791
C            2.82389035511687       -3.45255529776540        0.00141856514929
C            3.04673928676174       -2.51897214805434       -0.99648890052749
C            2.35900394451173       -1.32002784680204       -0.99194597603800
C           -0.69850637586854        0.24298231114871       -0.00787584948838
C           -1.43898056107018       -1.03529503308517       -0.00928758148417
C           -1.22483605984991       -1.97981603006000       -1.00801573398171
C           -1.92281757129245       -3.17287017232444       -1.00415671462108
C           -2.84025895679204       -3.43955065864836       -0.00203167078814
C           -3.05882488699975       -2.50514876379337        0.99605970778000
C           -2.36483973080120       -1.30983081751370        0.99228201757116
C           -3.57015185525983        2.26616082305304        0.86926711503077
C           -4.95160487437573        2.31700528617787        0.83822345188870
H           -6.73050365081593        1.64654890773583       -0.14683424033773
H           -5.50236059749317        0.30309948821508       -1.81363460014920
H           -3.04744910203455        0.21193316097979       -1.75955380701833
H           -1.22436307682640        3.58631797564564       -0.01609519968260
H            1.23826448602640        3.58167235908193        0.01874621822988
H            3.05042790706318        0.19848981845181        1.75822339122915
H            5.50560348682009        0.28296071127877        1.81203881648703
H            6.73709102671055        1.62587916134315        0.14727937954980
H            5.49384991734996        2.89599086762426       -1.56470989930857
H            3.03466913531355        2.80343096364007       -1.62435378370477
H            0.50855783070147       -1.77223912996048        1.79684057371218
H            1.73251501381814       -3.90510112247932        1.78679107133330
H            3.36249588371015       -4.38880458744095       -0.00212465246046
H            3.75934031271430       -2.72557191463991       -1.78180726450770
H            2.52976534746881       -0.59470423521307       -1.77472582664067
H           -0.51507625206336       -1.77077721000923       -1.79552519782633
H           -1.75001948758603       -3.89739113747719       -1.78671225775924
H           -3.38391190048784       -4.37287951442545        0.00080775206408
H           -3.77307940843384       -2.70824185809519        1.78079207849056
H           -2.53231051305869       -0.58383434541013        1.77515180375102
H           -3.02512821303639        2.81169831846867        1.62694546507587
H           -5.48406558618380        2.91090371184366        1.56716620360242

          :  Hamiltonian                  GFN2-xTB          :
         :: gradient norm              0.000033792129 Eh/a0 ::
         :: HOMO-LUMO gap              3.473561780117 eV    ::
         :: SCC energy               -76.930476109568 Eh    ::
         :: -> dispersion             -0.073204291692 Eh    ::
         :: repulsion energy           1.498879719847 Eh    ::

    * Orbital Energies and Occupations

         #    Occupation            Energy/Eh            Energy/eV
      -------------------------------------------------------------
         1        2.0000           -0.6522583             -17.7489
       ...           ...                  ...                  ...
        59        2.0000           -0.4212821             -11.4637
        60        2.0000           -0.4178269             -11.3696
        61        2.0000           -0.4176719             -11.3654
        62        2.0000           -0.4091106             -11.1325
        63        2.0000           -0.4065730             -11.0634
        64        2.0000           -0.4033089             -10.9746
        65        2.0000           -0.4016323             -10.9290
        66        2.0000           -0.4010349             -10.9127
        67        2.0000           -0.3999973             -10.8845
        68        2.0000           -0.3946655             -10.7394
        69        2.0000           -0.3937516             -10.7145
        70        2.0000           -0.3796017             -10.3295
        71        2.0000           -0.3761790             -10.2364 (HOMO)
        72                         -0.2485279              -6.7628 (LUMO)
        73                         -0.2407488              -6.5511
        74                         -0.2233029              -6.0764
        75                         -0.2223372              -6.0501
        76                         -0.2199824              -5.9860
        77                         -0.2175663              -5.9203
        78                         -0.2173832              -5.9153
        79                         -0.2165205              -5.8918
        80                         -0.2001126              -5.4453
        81                         -0.1910942              -5.1999
        82                         -0.1079280              -2.9369
       ...                                ...                  ...
       142                          0.7063824              19.2216
      -------------------------------------------------------------
                  HL-Gap            0.1276510 Eh            3.4736 eV

     #   Z          covCN         q      C6AA      α(0)
     1   6 C        2.920    -0.031    28.782     8.798
     2   6 C        2.919    -0.029    28.733     8.790
     3   6 C        2.924    -0.031    28.781     8.798
     4   6 C        2.978     0.013    27.718     8.636
     5   6 C        2.980     0.003    27.957     8.673
     6   6 C        2.922    -0.038    28.938     8.822
     7   6 C        2.922    -0.038    28.939     8.822
     8   6 C        2.980     0.003    27.957     8.673
     9   6 C        2.978     0.013    27.718     8.636
    10   6 C        2.924    -0.031    28.781     8.798
    11   6 C        2.919    -0.029    28.733     8.790
    12   6 C        2.920    -0.031    28.782     8.798
    13   6 C        2.919    -0.030    28.752     8.793
    14   6 C        2.926    -0.034    28.853     8.809
    15   6 C        2.983     0.000    28.015     8.682
    16   6 C        2.978     0.016    27.647     8.625
    17   6 C        2.925    -0.032    28.789     8.799
    18   6 C        2.919    -0.030    28.744     8.792
    19   6 C        2.920    -0.031    28.783     8.798
    20   6 C        2.919    -0.030    28.744     8.792
    21   6 C        2.925    -0.031    28.784     8.798
    22   6 C        2.983     0.000    28.015     8.682
    23   6 C        2.978     0.016    27.647     8.625
    24   6 C        2.925    -0.032    28.789     8.799
    25   6 C        2.919    -0.030    28.744     8.792
    26   6 C        2.920    -0.031    28.783     8.798
    27   6 C        2.919    -0.030    28.744     8.792
    28   6 C        2.925    -0.031    28.784     8.798
    29   6 C        2.926    -0.034    28.853     8.809
    30   6 C        2.919    -0.030    28.752     8.793
    31   1 H        0.926     0.029     2.603     2.523
    32   1 H        0.926     0.029     2.604     2.524
    33   1 H        0.926     0.028     2.608     2.525
    34   1 H        0.926     0.032     2.559     2.502
    35   1 H        0.926     0.032     2.559     2.501
    36   1 H        0.926     0.029     2.608     2.525
    37   1 H        0.926     0.029     2.604     2.524
    38   1 H        0.926     0.029     2.603     2.523
    39   1 H        0.926     0.029     2.601     2.522
    40   1 H        0.926     0.029     2.598     2.521
    41   1 H        0.926     0.027     2.632     2.537
    42   1 H        0.926     0.029     2.606     2.525
    43   1 H        0.926     0.029     2.603     2.523
    44   1 H        0.926     0.029     2.605     2.524
    45   1 H        0.926     0.027     2.633     2.537
    46   1 H        0.926     0.027     2.632     2.537
    47   1 H        0.926     0.029     2.606     2.525
    48   1 H        0.926     0.029     2.603     2.523
    49   1 H        0.926     0.029     2.605     2.524
    50   1 H        0.926     0.027     2.633     2.537
    51   1 H        0.926     0.029     2.598     2.521
    52   1 H        0.926     0.029     2.601     2.522

molecular dipole:
                 x           y           z       tot (Debye)
 q only:        0.000       0.018       0.000
   full:       -0.000      -0.003      -0.000       0.008

 projected vibrational frequencies (cm⁻¹)
eigval :       -0.00    -0.00     0.00     0.00     0.00     0.00
eigval :       25.73    33.17    44.38    45.78    49.27    62.75
eigval :       64.12    73.39    73.50   106.08   118.47   123.99
eigval :      203.98   211.31   218.36   221.25   233.13   249.71
eigval :      257.08   332.90   350.07   373.48   373.51   374.34
eigval :      374.59   402.08   417.32   462.47   489.02   491.35
eigval :      504.72   566.28   576.96   583.27   583.30   587.62
eigval :      590.94   597.63   597.91   627.83   666.05   669.18
eigval :      673.22   679.10   682.21   695.99   719.39   757.31
eigval :      758.90   761.02   766.22   808.14   843.21   846.71
eigval :      877.88   878.36   879.35   879.75   901.86   902.54
eigval :      902.56   904.05   920.29   929.10   929.62   930.09
eigval :      930.67   931.38   931.65   932.18   932.29   951.93
eigval :      968.01   981.95   989.90  1036.52  1072.62  1084.52
eigval :     1084.80  1085.71  1091.20  1120.43  1120.91  1121.45
eigval :     1122.00  1138.45  1156.13  1182.44  1182.44  1182.47
eigval :     1182.49  1198.55  1198.66  1200.71  1202.60  1240.65
eigval :     1260.77  1279.94  1282.41  1282.65  1284.68  1296.73
eigval :     1299.29  1315.19  1315.51  1319.12  1320.18  1327.38
eigval :     1407.51  1427.43  1430.22  1432.58  1437.19  1446.16
eigval :     1479.49  1480.54  1491.11  1497.02  1551.31  1571.33
eigval :     1582.63  1583.13  1584.23  1584.98  1601.26  1601.65
eigval :     1601.92  1602.12  3067.84  3068.10  3070.58  3070.60
eigval :     3072.16  3072.46  3072.80  3073.30  3073.89  3079.09
eigval :     3079.15  3079.35  3079.87  3084.62  3084.67  3085.04
eigval :     3086.87  3087.06  3091.65  3091.79  3093.09  3093.25

   temp. (K)  partition function   enthalpy   heat capacity  entropy
                                   cal/mol     cal/K/mol   cal/K/mol   J/K/mol
 298.15  VIB  0.616E+10            13469.319     87.518     83.499
         ROT  0.781E+07              888.752      2.981     34.520
         INT  0.481E+17            14358.071     90.499    118.019
         TR   0.724E+28             1481.254      4.968     43.697
         TOT                       15839.3250    95.4671   161.7165   676.6219

       T/K    H(0)-H(T)+PV         H(T)/Eh          T*S/Eh         G(T)/Eh
   ------------------------------------------------------------------------
    298.15    0.252416E-01    0.435598E+00    0.768367E-01    0.358761E+00
   ------------------------------------------------------------------------

         :::::::::::::::::::::::::::::::::::::::::::::::::::::
         ::                  THERMODYNAMIC                  ::
         :::::::::::::::::::::::::::::::::::::::::::::::::::::
         :: total free energy         -75.072835022765 Eh   ::
         ::.................................................::
         :: total energy              -75.431596389721 Eh   ::
         :: zero point energy           0.410356535851 Eh   ::
         :: G(RRHO) w/o ZPVE           -0.051595168895 Eh   ::
         :: G(RRHO) contrib.            0.358761366955 Eh   ::
         :::::::::::::::::::::::::::::::::::::::::::::::::::::

           -------------------------------------------------
          | TOTAL ENERGY              -75.431596389721 Eh   |
          | TOTAL ENTHALPY            -74.995998282853 Eh   |
          | TOTAL FREE ENERGY         -75.072835022765 Eh   |
          | GRADIENT NORM               0.000033810246 Eh/α |
          | HOMO-LUMO GAP               3.473561782637 eV   |
           -------------------------------------------------

 * finished run on 2025/09/10 at 02:51:28.275
