   * xtb version 6.7.1 (edcfbbe) compiled by 'albert@albert-system' on 2024-07-22

   ID    Z sym.   atoms
    1    6 C      1-6, 8-22, 24-35, 39-42, 44-57
    2    7 N      7, 23, 43
    3   16 S      36
    4    8 O      37, 38
    5    1 H      58-92

          program call               : xtb data2507/gas/2Cz-DMAC-BTB/2Cz-DMAC-BTB_gas_S0_crest.xyz --gfn 2 --ohess vtight --parallel 40 --molden --ceasefiles --namespace data2507/gas/2Cz-DMAC-BTB/2Cz-DMAC-BTB_gas_S0_finalOpt
          :  Hamiltonian                  GFN2-xTB          :
 * total energy  :  -147.3101461 Eh     change       -0.2610648E-08 Eh
 * total energy  :  -147.3101466 Eh     change       -0.5738768E-06 Eh
 * total energy  :  -147.3101479 Eh     change       -0.1266960E-05 Eh
 * total energy  :  -147.3101497 Eh     change       -0.1757202E-05 Eh
 * total energy  :  -147.3101514 Eh     change       -0.1690461E-05 Eh
 * total energy  :  -147.3101525 Eh     change       -0.1175979E-05 Eh
 * total energy  :  -147.3101534 Eh     change       -0.8417896E-06 Eh
 * total energy  :  -147.3101542 Eh     change       -0.8423765E-06 Eh
 * total energy  :  -147.3101552 Eh     change       -0.9576525E-06 Eh
 * total energy  :  -147.3101561 Eh     change       -0.9122131E-06 Eh
 * total energy  :  -147.3101656 Eh     change       -0.2888747E-06 Eh
 * total energy  :  -147.3101659 Eh     change       -0.2494672E-06 Eh
 * total energy  :  -147.3101661 Eh     change       -0.2251225E-06 Eh
 * total energy  :  -147.3101663 Eh     change       -0.2151145E-06 Eh
 * total energy  :  -147.3101666 Eh     change       -0.2306162E-06 Eh
 * total energy  :  -147.3101668 Eh     change       -0.2212755E-06 Eh
 * total energy  :  -147.3101670 Eh     change       -0.1662804E-06 Eh
 * total energy  :  -147.3101671 Eh     change       -0.1189258E-06 Eh
 * total energy  :  -147.3101672 Eh     change       -0.9692221E-07 Eh
   *** GEOMETRY OPTIMIZATION CONVERGED AFTER 35 ITERATIONS ***

 final structure:
================
92
 xtb: 6.7.1 (edcfbbe)
C           -0.48032855327148        2.93424769407218        1.42841682020257
C           -0.41938406594715        2.26683834323909        0.04237985773063
C           -0.58038767108505        3.32389380200730       -1.06520530854873
C            0.93110924574655        1.59873269581213       -0.12698270815238
C            2.07749428721054        2.37486431358552       -0.06295180495175
C            3.34349086886514        1.83894919489998       -0.26018495667979
N            4.47459377097761        2.66478533431991       -0.19850602884486
C            5.60914660689333        2.42749556799754        0.54973236327374
C            5.89292527112207        1.38238198859505        1.41724597908189
C            7.11156747488530        1.39703568882479        2.06779104424371
C            8.02873221002352        2.42742304243298        1.87188035658395
C            7.74318552017353        3.48097120853149        1.02690554946785
C            6.52453434631424        3.48879348480484        0.36116770925455
C            5.90332511510046        4.40494648950663       -0.55339334082513
C            6.30421819445051        5.60594247941784       -1.12388568296316
C            5.45043676705262        6.23714864629414       -2.00596724404654
C            4.21748510706679        5.67735497324040       -2.33430840734631
C            3.79643925387841        4.48394241478784       -1.78026374845512
C            4.63933098057517        3.85736032513570       -0.87307588785882
C            3.46473443949128        0.48199027190023       -0.53442873224712
C            2.33788421804604       -0.30837031507677       -0.58395662729041
C            1.06421462984389        0.22719888060922       -0.36886119710166
N           -0.05119390955286       -0.59718813823062       -0.42758822396516
C            0.12777234894969       -1.98406751595758       -0.65653658980918
C           -0.22702077296805       -2.53508900043507       -1.88574797926090
C           -0.05750470313992       -3.89284773615831       -2.11547885919918
C            0.47164695108311       -4.66903411422080       -1.11153354939913
C            0.83799628787836       -4.13901381445405        0.12390073743324
C            0.65916853063875       -2.78180073571466        0.35348111295516
C            1.38263537550704       -5.12331885664380        1.05903413319117
C            1.83432729343912       -4.89020043565388        2.35291042904177
C            2.32273072836472       -5.95030259041776        3.10031936151549
C            2.36697481228055       -7.23328526988849        2.57666500940887
C            1.91918566269683       -7.47631463030791        1.28364993765996
C            1.43650550143496       -6.41893176825957        0.55099926940585
S            0.80094297421896       -6.43580305058526       -1.12961189247792
O            1.83885635317767       -6.75282433600690       -2.07099203685812
O           -0.42418127731250       -7.18161004917079       -1.21227051670599
C           -1.33710261456049       -0.09782948217028       -0.26876573929954
C           -2.42935007959890       -0.97055497115713       -0.28481709681529
C           -3.71709864386022       -0.50861591894893       -0.12596633100265
C           -3.94480404025016        0.85099372989887        0.04972992863869
N           -5.24539523904863        1.34864888842547        0.21057308915376
C           -6.31763325036122        1.09485636796470       -0.61999395531874
C           -6.37297636567686        0.34716564542609       -1.78753264269114
C           -7.58377491221972        0.27284825476175       -2.44851419367201
C           -8.71552179144012        0.93009041116052       -1.97034468369263
C           -8.66141497866862        1.69257214560563       -0.82095388477597
C           -7.45539878235205        1.78267509122640       -0.13833960150218
C           -7.03940868793366        2.47905984461725        1.04647844811335
C           -7.69701893413834        3.29707660677306        1.95580081755484
C           -6.98730354564028        3.79964137160846        3.02786401345058
C           -5.64255869911015        3.48301613437649        3.20863138525550
C           -4.96645625704652        2.67169611641313        2.31802750968391
C           -5.66791771354017        2.18373466507098        1.22445008431609
C           -2.85918473628558        1.71648871193041        0.08182702337372
C           -1.55546453035905        1.26781278517764       -0.05857340233133
H            0.32656621201251        3.65097115316201        1.55106387804644
H           -0.39046894660764        2.17976342834616        2.20790281239005
H           -1.42132538688730        3.45992757650226        1.56405117951180
H           -0.51227630848529        2.85009898075269       -2.04278889214928
H           -1.54372057752976        3.82033266193947       -0.99187439573528
H            0.19556821072766        4.08094545958591       -0.99378223069809
H            2.00206480106926        3.42957802365531        0.15066017970257
H            5.18169356887173        0.58773927669479        1.58633023217044
H            7.35805673874034        0.59298444896128        2.74575162046444
H            8.97197433562384        2.40068133027281        2.39693054363675
H            8.44817166236713        4.28629789872948        0.88568898816451
H            7.26692986269747        6.03084261511052       -0.88274360195777
H            5.74190264867407        7.17314396818738       -2.45875191374027
H            3.57832625404502        6.18575675852251       -3.04130145268363
H            2.84907915862440        4.04668272326832       -2.05803828376595
H            4.43619318324061        0.05298373461907       -0.72502692921343
H            2.44639851195005       -1.35670620139586       -0.81409253671133
H           -0.63652125586705       -1.89472961325839       -2.65204209117372
H           -0.32621808775873       -4.33891579488288       -3.05963852858223
H            0.92638503342039       -2.33128037835058        1.29702282093922
H            1.80731206268527       -3.89752153553421        2.77478903398053
H            2.67397644696053       -5.77281849421396        4.10578531783419
H            2.75048325777305       -8.04601193010821        3.17392992877414
H            1.94444191420929       -8.46505742026348        0.85396893190158
H           -2.26671027551086       -2.03002744101868       -0.40605423835217
H           -4.54448233591137       -1.20104637976637       -0.12152624816758
H           -5.49711394346959       -0.15275502403041       -2.17310372236604
H           -7.65418279386612       -0.30542493058954       -3.35807834335161
H           -9.64418403085124        0.84479283297140       -2.51476153028879
H           -9.53498016048178        2.21286297892482       -0.45798485943070
H           -8.74335325342614        3.52861472752054        1.82512758067754
H           -7.47932728634827        4.43960620812381        3.74512507287930
H           -5.11797615339878        3.87743025723125        4.06665103708961
H           -3.93012863456778        2.41405149773843        2.47811298068011
H           -3.05490907944139        2.76890964150287        0.21555450952143

          :  Hamiltonian                  GFN2-xTB          :
         :: gradient norm              0.000033830946 Eh/a0 ::
         :: HOMO-LUMO gap              1.532866924531 eV    ::
         :: SCC energy              -149.907264926457 Eh    ::
         :: -> dispersion             -0.137370151809 Eh    ::
         :: repulsion energy           2.597097756976 Eh    ::

    * Orbital Energies and Occupations

         #    Occupation            Energy/Eh            Energy/eV
      -------------------------------------------------------------
         1        2.0000           -0.7785537             -21.1855
       ...           ...                  ...                  ...
       124        2.0000           -0.4178687             -11.3708
       125        2.0000           -0.4169237             -11.3451
       126        2.0000           -0.4162240             -11.3260
       127        2.0000           -0.4153376             -11.3019
       128        2.0000           -0.4133264             -11.2472
       129        2.0000           -0.4105375             -11.1713
       130        2.0000           -0.4046074             -11.0099
       131        2.0000           -0.4037234             -10.9859
       132        2.0000           -0.3779878             -10.2856
       133        2.0000           -0.3770940             -10.2613
       134        2.0000           -0.3755299             -10.2187
       135        2.0000           -0.3628266              -9.8730
       136        2.0000           -0.3523843              -9.5889 (HOMO)
       137                         -0.2960525              -8.0560 (LUMO)
       138                         -0.2718374              -7.3971
       139                         -0.2619021              -7.1267
       140                         -0.2479068              -6.7459
       141                         -0.2440651              -6.6414
       142                         -0.2401695              -6.5353
       143                         -0.2375319              -6.4636
       144                         -0.2367495              -6.4423
       145                         -0.2302426              -6.2652
       146                         -0.2212781              -6.0213
       147                         -0.2203942              -5.9972
       ...                                ...                  ...
       268                          1.2191755              33.1755
      -------------------------------------------------------------
                  HL-Gap            0.0563318 Eh            1.5329 eV

     #   Z          covCN         q      C6AA      α(0)
     1   6 C        3.761    -0.104    22.537     6.768
     2   6 C        3.910     0.023    20.130     6.377
     3   6 C        3.761    -0.104    22.538     6.768
     4   6 C        2.979    -0.011    28.278     8.723
     5   6 C        2.931    -0.050    29.239     8.868
     6   6 C        2.911     0.052    26.830     8.494
     7   7 N        2.803    -0.043    22.076     6.978
     8   6 C        3.077     0.046    26.886     8.501
     9   6 C        2.910    -0.052    29.281     8.873
    10   6 C        2.924    -0.034    28.846     8.808
    11   6 C        2.920    -0.041    29.028     8.835
    12   6 C        2.912    -0.033    28.819     8.803
    13   6 C        3.068    -0.017    28.374     8.734
    14   6 C        3.068    -0.018    28.375     8.735
    15   6 C        2.912    -0.033    28.819     8.803
    16   6 C        2.920    -0.041    29.027     8.835
    17   6 C        2.924    -0.034    28.849     8.808
    18   6 C        2.910    -0.052    29.294     8.875
    19   6 C        3.077     0.046    26.891     8.502
    20   6 C        2.921    -0.045    29.127     8.850
    21   6 C        2.924    -0.059    29.470     8.902
    22   6 C        2.927     0.053    26.807     8.491
    23   7 N        2.754    -0.064    22.486     7.043
    24   6 C        2.926     0.075    26.327     8.415
    25   6 C        2.925    -0.035    28.883     8.813
    26   6 C        2.925    -0.016    28.422     8.743
    27   6 C        2.990    -0.081    30.003     8.985
    28   6 C        3.108     0.005    27.769     8.634
    29   6 C        2.922    -0.038    28.956     8.824
    30   6 C        3.109     0.004    27.793     8.637
    31   6 C        2.919    -0.025    28.634     8.775
    32   6 C        2.919    -0.024    28.597     8.769
    33   6 C        2.924    -0.022    28.552     8.763
    34   6 C        2.926    -0.016    28.400     8.739
    35   6 C        2.991    -0.075    29.868     8.965
    36  16 S        3.928     0.967   107.589    17.458
    37   8 O        0.860    -0.530    24.468     6.632
    38   8 O        0.860    -0.531    24.470     6.632
    39   6 C        2.927     0.053    26.809     8.491
    40   6 C        2.924    -0.059    29.463     8.901
    41   6 C        2.921    -0.045    29.121     8.849
    42   6 C        2.911     0.052    26.825     8.493
    43   7 N        2.803    -0.044    22.079     6.979
    44   6 C        3.077     0.046    26.886     8.501
    45   6 C        2.910    -0.051    29.275     8.872
    46   6 C        2.924    -0.034    28.837     8.806
    47   6 C        2.920    -0.041    29.024     8.835
    48   6 C        2.912    -0.033    28.821     8.803
    49   6 C        3.069    -0.018    28.378     8.735
    50   6 C        3.068    -0.017    28.374     8.734
    51   6 C        2.912    -0.033    28.820     8.803
    52   6 C        2.920    -0.042    29.032     8.836
    53   6 C        2.924    -0.034    28.856     8.809
    54   6 C        2.910    -0.052    29.300     8.876
    55   6 C        3.077     0.046    26.894     8.502
    56   6 C        2.931    -0.050    29.237     8.868
    57   6 C        2.979    -0.011    28.279     8.723
    58   1 H        0.925     0.043     2.412     2.429
    59   1 H        0.925     0.032     2.554     2.499
    60   1 H        0.925     0.043     2.407     2.426
    61   1 H        0.925     0.033     2.541     2.493
    62   1 H        0.925     0.043     2.409     2.427
    63   1 H        0.925     0.043     2.410     2.428
    64   1 H        0.926     0.045     2.382     2.414
    65   1 H        0.926     0.024     2.670     2.555
    66   1 H        0.926     0.027     2.627     2.535
    67   1 H        0.926     0.027     2.624     2.533
    68   1 H        0.926     0.031     2.577     2.510
    69   1 H        0.926     0.031     2.579     2.511
    70   1 H        0.926     0.027     2.622     2.532
    71   1 H        0.926     0.028     2.616     2.529
    72   1 H        0.926     0.026     2.645     2.543
    73   1 H        0.926     0.042     2.417     2.431
    74   1 H        0.926     0.030     2.587     2.515
    75   1 H        0.926     0.063     2.170     2.303
    76   1 H        0.926     0.064     2.152     2.294
    77   1 H        0.926     0.058     2.220     2.330
    78   1 H        0.926     0.052     2.294     2.369
    79   1 H        0.926     0.054     2.268     2.355
    80   1 H        0.926     0.057     2.234     2.337
    81   1 H        0.926     0.060     2.199     2.319
    82   1 H        0.926     0.031     2.576     2.510
    83   1 H        0.926     0.043     2.408     2.427
    84   1 H        0.926     0.026     2.649     2.545
    85   1 H        0.926     0.029     2.607     2.525
    86   1 H        0.926     0.028     2.620     2.531
    87   1 H        0.926     0.030     2.580     2.512
    88   1 H        0.926     0.030     2.580     2.512
    89   1 H        0.926     0.027     2.628     2.535
    90   1 H        0.926     0.027     2.626     2.534
    91   1 H        0.926     0.025     2.657     2.549
    92   1 H        0.926     0.045     2.382     2.414

molecular dipole:
                 x           y           z       tot (Debye)
 q only:        0.388       1.030       1.575
   full:        0.412       0.834       1.528       4.547

 projected vibrational frequencies (cm⁻¹)
eigval :       -0.00    -0.00    -0.00     0.00     0.00     0.00
eigval :        9.20    10.19    13.23    17.05    18.99    21.96
eigval :       34.10    37.67    41.34    51.68    70.64    78.37
eigval :       90.36    95.34   103.41   106.16   111.56   117.15
eigval :      123.87   123.98   127.38   144.58   146.10   162.55
eigval :      173.29   174.37   184.50   189.97   196.33   199.25
eigval :      235.44   240.56   241.97   271.69   271.80   278.12
eigval :      287.55   291.70   310.26   315.93   328.45   335.88
eigval :      345.06   356.06   359.24   366.74   385.14   393.03
eigval :      395.28   397.03   402.76   411.62   420.91   423.96
eigval :      428.75   433.92   436.05   444.29   453.90   468.48
eigval :      470.90   487.06   501.82   509.49   514.64   517.68
eigval :      518.39   525.11   528.16   530.69   541.35   541.37
eigval :      547.10   559.85   569.54   586.40   588.60   589.11
eigval :      595.81   604.86   626.76   631.62   637.36   639.80
eigval :      673.12   673.73   679.60   681.99   682.71   685.83
eigval :      691.14   701.81   702.89   708.23   709.26   709.78
eigval :      752.90   756.31   763.10   769.39   769.48   778.90
eigval :      780.79   780.84   806.13   822.49   826.59   829.42
eigval :      844.48   869.43   869.58   871.87   872.19   875.13
eigval :      881.82   893.97   894.47   899.51   899.56   901.21
eigval :      901.51   906.56   907.01   911.58   913.66   915.79
eigval :      917.07   917.48   923.28   923.29   925.81   926.03
eigval :      928.82   931.16   943.73   958.05   993.95   998.60
eigval :     1011.23  1012.48  1012.83  1014.82  1027.32  1069.81
eigval :     1069.88  1072.73  1073.30  1073.46  1083.03  1095.94
eigval :     1104.06  1121.38  1121.68  1125.54  1149.30  1151.78
eigval :     1151.89  1153.42  1159.25  1161.04  1169.28  1176.90
eigval :     1177.23  1177.72  1181.52  1181.57  1185.76  1189.99
eigval :     1194.82  1220.20  1225.32  1230.46  1236.68  1237.09
eigval :     1239.05  1245.98  1249.36  1253.29  1264.17  1269.19
eigval :     1273.42  1298.97  1300.71  1304.90  1306.86  1309.06
eigval :     1312.29  1322.55  1324.64  1331.02  1346.70  1357.79
eigval :     1357.94  1363.12  1363.54  1373.50  1388.58  1399.54
eigval :     1403.82  1414.97  1418.49  1422.00  1424.36  1428.90
eigval :     1429.70  1441.44  1444.83  1453.40  1457.19  1476.93
eigval :     1477.34  1481.81  1488.76  1488.99  1489.22  1491.75
eigval :     1500.40  1502.04  1503.77  1558.67  1565.54  1570.78
eigval :     1572.04  1574.75  1577.65  1578.70  1589.11  1589.42
eigval :     1596.84  1597.20  1599.30  1599.40  1602.44  1615.39
eigval :     1615.78  3026.39  3028.56  3041.90  3044.51  3051.54
eigval :     3055.58  3074.53  3074.62  3075.31  3075.90  3080.31
eigval :     3080.37  3081.52  3081.57  3086.92  3086.97  3087.02
eigval :     3088.68  3088.92  3094.49  3094.54  3094.74  3095.22
eigval :     3095.47  3096.35  3096.44  3097.36  3098.79  3100.33
eigval :     3100.73  3102.37  3106.56  3107.30  3108.83  3109.53

   temp. (K)  partition function   enthalpy   heat capacity  entropy
                                   cal/mol     cal/K/mol   cal/K/mol   J/K/mol
 298.15  VIB  0.731E+21            26845.086    170.608    165.994
         ROT  0.180E+09              888.752      2.981     40.758
         INT  0.132E+30            27733.839    173.589    206.752
         TR   0.200E+29             1481.254      4.968     45.719
         TOT                       29215.0925   178.5567   252.4705  1056.3366

       T/K    H(0)-H(T)+PV         H(T)/Eh          T*S/Eh         G(T)/Eh
   ------------------------------------------------------------------------
    298.15    0.465572E-01    0.749219E+00    0.119957E+00    0.629262E+00
   ------------------------------------------------------------------------

         :::::::::::::::::::::::::::::::::::::::::::::::::::::
         ::                  THERMODYNAMIC                  ::
         :::::::::::::::::::::::::::::::::::::::::::::::::::::
         :: total free energy        -146.680905318158 Eh   ::
         ::.................................................::
         :: total energy             -147.310167169524 Eh   ::
         :: zero point energy           0.702661516887 Eh   ::
         :: G(RRHO) w/o ZPVE           -0.073399665521 Eh   ::
         :: G(RRHO) contrib.            0.629261851366 Eh   ::
         :::::::::::::::::::::::::::::::::::::::::::::::::::::

           -------------------------------------------------
          | TOTAL ENERGY             -147.310167169524 Eh   |
          | TOTAL ENTHALPY           -146.560948439180 Eh   |
          | TOTAL FREE ENERGY        -146.680905318158 Eh   |
          | GRADIENT NORM               0.000033764589 Eh/α |
          | HOMO-LUMO GAP               1.532867272303 eV   |
           -------------------------------------------------

 * finished run on 2025/07/17 at 23:02:01.299
