   * xtb version 6.7.1 (edcfbbe) compiled by 'albert@albert-system' on 2024-07-22

   ID    Z sym.   atoms
    1    6 C      1-6, 8-22, 24-35, 39-42, 44-57
    2    7 N      7, 23, 43
    3   16 S      36
    4    8 O      37, 38
    5    1 H      58-92

          program call               : xtb data2507/gas/2Cz-DMAC-BTB/2Cz-DMAC-BTB.xyz --gfn 2 --ohess vtight --parallel 40 --molden --ceasefiles --namespace data2507/gas/2Cz-DMAC-BTB/2Cz-DMAC-BTB_gas_S0_preOpt
          :  Hamiltonian                  GFN2-xTB          :
 * total energy  :  -147.2780196 Eh     change       -0.5222148E-08 Eh
 * total energy  :  -147.2981912 Eh     change       -0.2017163E-01 Eh
 * total energy  :  -147.3049137 Eh     change       -0.6722525E-02 Eh
 * total energy  :  -147.3070545 Eh     change       -0.2140803E-02 Eh
 * total energy  :  -147.3086162 Eh     change       -0.1561667E-02 Eh
 * total energy  :  -147.3092118 Eh     change       -0.5955953E-03 Eh
 * total energy  :  -147.3094006 Eh     change       -0.1888593E-03 Eh
 * total energy  :  -147.3094895 Eh     change       -0.8885926E-04 Eh
 * total energy  :  -147.3095402 Eh     change       -0.5071642E-04 Eh
 * total energy  :  -147.3095776 Eh     change       -0.3740761E-04 Eh
 * total energy  :  -147.3099379 Eh     change       -0.8549159E-06 Eh
 * total energy  :  -147.3099387 Eh     change       -0.7785857E-06 Eh
 * total energy  :  -147.3099394 Eh     change       -0.7393299E-06 Eh
 * total energy  :  -147.3099402 Eh     change       -0.7462566E-06 Eh
 * total energy  :  -147.3099409 Eh     change       -0.7841178E-06 Eh
 * total energy  :  -147.3099418 Eh     change       -0.8633595E-06 Eh
 * total energy  :  -147.3099427 Eh     change       -0.9293920E-06 Eh
 * total energy  :  -147.3099437 Eh     change       -0.9674886E-06 Eh
 * total energy  :  -147.3099437 Eh     change       -0.5095984E-08 Eh
   *** GEOMETRY OPTIMIZATION CONVERGED AFTER 68 ITERATIONS ***

 final structure:
================
92
 xtb: 6.7.1 (edcfbbe)
C           -0.02800238222398        2.37213920237035        1.46930310860144
C            0.00857263251700        1.80251907126003        0.03955179810226
C            0.05162295286449        2.94773567811269       -0.98824796152230
C            1.26017145192208        0.95879803152610       -0.11050693338647
C            2.49981557267601        1.54901959624728        0.07456450975400
C            3.68290011938074        0.82732691660692       -0.02573687809342
N            4.91336647951521        1.46411140698139        0.18893745694239
C            5.22946307033595        2.25913126206900        1.27152162935937
C            4.47267419069848        2.56810968968937        2.39319481971840
C            5.04264991476822        3.38300851833057        3.35214522121911
C            6.33812543905244        3.87615433531816        3.21138552820299
C            7.10541076324087        3.55120856978107        2.11084618476041
C            6.55438083199095        2.73380714703344        1.13275849983296
C            7.05381538923171        2.19224191249357       -0.09961650045310
C            8.26318664458103        2.30559456786498       -0.77278340413565
C            8.41206425107325        1.65275971487933       -1.97980384914272
C            7.36895504603525        0.90633499352118       -2.52404152554635
C            6.15681999489289        0.77869771689600       -1.87376388314832
C            6.00899600444537        1.41331220477355       -0.64860446021619
C            3.62396112702374       -0.52597600908302       -0.33630003597138
C            2.40151823930372       -1.12585454481187       -0.54484992746331
C            1.21118416588398       -0.40216905819147       -0.43073767749066
N           -0.00179511721414       -1.03965173783188       -0.63654864866282
C           -0.00519304411909       -2.41841426448112       -0.98098159100373
C            0.01242826290913       -2.79342792083777       -2.32109246292305
C            0.01176544363306       -4.13792258288619       -2.66600927873462
C           -0.00532597389453       -5.07396826749068       -1.65939601348445
C           -0.02308930471387       -4.72044048818337       -0.31193461861719
C           -0.02382601830562       -3.37432132364239        0.02953940748655
C           -0.03840077371807       -5.85998572457350        0.60530350912195
C           -0.05619101429806       -5.81735584809843        1.99468185840237
C           -0.06800900900377       -7.00574269352428        2.70785455123854
C           -0.06226638665744       -8.22984039463859        2.05686555405462
C           -0.04443033517394       -8.28303170637657        0.66820120213191
C           -0.03292903779550       -7.09953578489220       -0.02965275980489
S           -0.00850443239428       -6.86585557109998       -1.81097259954307
O            1.22696372930914       -7.33146593161140       -2.37684845864643
O           -1.23116882563273       -7.32383597866332       -2.40991240582795
C           -1.21001994368255       -0.36983259656528       -0.52969095897031
C           -2.40554312698605       -1.05993806811593       -0.74893146614813
C           -3.62374211163186       -0.42301409850562       -0.65899125026615
C           -3.67290175249371        0.92515554881784       -0.32521491091761
N           -4.89865436199392        1.59839353943679       -0.22475124614203
C           -5.20943434391937        2.79796626056032       -0.83203755694787
C           -4.45087460277193        3.57422029808508       -1.69708396167378
C           -5.01523765603600        4.73745227939427       -2.18375260821587
C           -6.30687040451879        5.12274847576924       -1.83079331926846
C           -7.07600100989090        4.34184524360086       -0.99173039014021
C           -6.53053945435965        3.16783998607999       -0.48901137155472
C           -7.03339493056728        2.13235606842419        0.36908006530565
C           -8.24145658997889        1.93805787175153        1.02578727152912
C           -8.39471717480676        0.81234148855058        1.80975688784362
C           -7.35705750164733       -0.10603909202205        1.95512425246764
C           -6.14625926964872        0.06517555177363        1.31235573941625
C           -5.99411224029848        1.18277321101866        0.50399234925822
C           -2.48461720922915        1.60711165629893       -0.09387806003840
C           -1.24921390418499        0.98915281251784       -0.19985172194349
H            0.84424440553462        2.99066313801854        1.66157570832292
H           -0.04147742137367        1.55886690838538        2.19270680407434
H           -0.91387750371995        2.98152379304970        1.62309902477856
H            0.06001291243596        2.54032541233391       -1.99756715586266
H           -0.81582467716845        3.59355756175740       -0.88390763694645
H            0.94251856449738        3.55515747593622       -0.85706020177346
H            2.56718038938470        2.60278596037886        0.29568784210209
H            3.47581246597784        2.17349219959712        2.52163342738577
H            4.47243564070872        3.64071309564730        4.23272491896829
H            6.74649907124574        4.51324016352500        3.98175489597659
H            8.11522886381033        3.91940989923769        2.00979052615997
H            9.06614164899411        2.89616850219398       -0.35797407900530
H            9.34544209068199        1.72521806581327       -2.51798730503703
H            7.51031056482761        0.41869993757157       -3.47740993547136
H            5.34879248395092        0.21185211522730       -2.31123363470906
H            4.53090772418201       -1.10649618647199       -0.40274206612856
H            2.36644268057519       -2.17586579553345       -0.79128835197273
H            0.02593734267869       -2.02887191948655       -3.08267567398305
H            0.02520079737417       -4.45246780815869       -3.69728328225540
H           -0.03660424386000       -3.05410068765884        1.05993436642449
H           -0.06043508231309       -4.87292702730522        2.51629044840271
H           -0.08168303589168       -6.97628423866714        3.78708363694933
H           -0.07146506172419       -9.14447712653718        2.62927548355556
H           -0.03939725052111       -9.22273313923263        0.13924359297539
H           -2.37751991953529       -2.10762704120326       -1.00602244550248
H           -4.53485572451449       -0.96507134498267       -0.85897740479335
H           -3.45734788077477        3.27308515568444       -1.99386777001433
H           -4.44369357604039        5.36039105506112       -2.85618811237101
H           -6.71089817196440        6.04112198054624       -2.23009697820247
H           -8.08304254683999        4.63142982334672       -0.73184931193420
H           -9.04022018443642        2.65727912948005        0.92456638321637
H           -9.32732975965478        0.64051998860359        2.32631465855454
H           -7.50176806045556       -0.97019814322078        2.58690216330153
H           -5.34235272497945       -0.64346690829837        1.44391573341020
H           -2.54434529458194        2.64810586365281        0.18294102270420

          :  Hamiltonian                  GFN2-xTB          :
         :: gradient norm              0.000055982461 Eh/a0 ::
         :: HOMO-LUMO gap              1.458866661799 eV    ::
         :: SCC energy              -149.907351729355 Eh    ::
         :: -> dispersion             -0.137163113701 Eh    ::
         :: repulsion energy           2.597408016805 Eh    ::

    * Orbital Energies and Occupations

         #    Occupation            Energy/Eh            Energy/eV
      -------------------------------------------------------------
         1        2.0000           -0.7799614             -21.2238
       ...           ...                  ...                  ...
       124        2.0000           -0.4173571             -11.3569
       125        2.0000           -0.4164355             -11.3318
       126        2.0000           -0.4155630             -11.3080
       127        2.0000           -0.4147313             -11.2854
       128        2.0000           -0.4145205             -11.2797
       129        2.0000           -0.4096814             -11.1480
       130        2.0000           -0.4036235             -10.9832
       131        2.0000           -0.4035404             -10.9809
       132        2.0000           -0.3769874             -10.2583
       133        2.0000           -0.3769315             -10.2568
       134        2.0000           -0.3747437             -10.1973
       135        2.0000           -0.3621836              -9.8555
       136        2.0000           -0.3512061              -9.5568 (HOMO)
       137                         -0.2975937              -8.0979 (LUMO)
       138                         -0.2732754              -7.4362
       139                         -0.2630122              -7.1569
       140                         -0.2471046              -6.7241
       141                         -0.2435118              -6.6263
       142                         -0.2393075              -6.5119
       143                         -0.2364781              -6.4349
       144                         -0.2358148              -6.4168
       145                         -0.2313763              -6.2961
       146                         -0.2202996              -5.9947
       147                         -0.2202569              -5.9935
       ...                                ...                  ...
       268                          1.2185950              33.1597
      -------------------------------------------------------------
                  HL-Gap            0.0536124 Eh            1.4589 eV

     #   Z          covCN         q      C6AA      α(0)
     1   6 C        3.761    -0.104    22.536     6.767
     2   6 C        3.909     0.023    20.131     6.377
     3   6 C        3.761    -0.104    22.537     6.767
     4   6 C        2.979    -0.011    28.293     8.725
     5   6 C        2.931    -0.050    29.235     8.867
     6   6 C        2.911     0.052    26.842     8.496
     7   7 N        2.803    -0.043    22.077     6.978
     8   6 C        3.077     0.046    26.895     8.503
     9   6 C        2.910    -0.052    29.301     8.876
    10   6 C        2.924    -0.034    28.859     8.810
    11   6 C        2.920    -0.042    29.034     8.836
    12   6 C        2.912    -0.033    28.822     8.803
    13   6 C        3.068    -0.018    28.376     8.735
    14   6 C        3.069    -0.018    28.380     8.735
    15   6 C        2.912    -0.033    28.823     8.804
    16   6 C        2.920    -0.041    29.025     8.835
    17   6 C        2.924    -0.034    28.838     8.807
    18   6 C        2.910    -0.051    29.277     8.872
    19   6 C        3.077     0.046    26.888     8.501
    20   6 C        2.921    -0.045    29.130     8.851
    21   6 C        2.924    -0.059    29.474     8.903
    22   6 C        2.928     0.053    26.801     8.490
    23   7 N        2.755    -0.068    22.548     7.052
    24   6 C        2.927     0.077    26.291     8.409
    25   6 C        2.925    -0.034    28.849     8.808
    26   6 C        2.926    -0.016    28.408     8.741
    27   6 C        2.990    -0.079    29.972     8.981
    28   6 C        3.108     0.006    27.754     8.631
    29   6 C        2.922    -0.037    28.928     8.820
    30   6 C        3.109     0.004    27.791     8.637
    31   6 C        2.919    -0.025    28.628     8.774
    32   6 C        2.919    -0.024    28.592     8.769
    33   6 C        2.924    -0.022    28.546     8.762
    34   6 C        2.926    -0.015    28.397     8.739
    35   6 C        2.991    -0.075    29.867     8.965
    36  16 S        3.927     0.969   107.557    17.455
    37   8 O        0.860    -0.530    24.455     6.630
    38   8 O        0.860    -0.530    24.455     6.630
    39   6 C        2.928     0.053    26.801     8.490
    40   6 C        2.924    -0.059    29.473     8.903
    41   6 C        2.921    -0.045    29.127     8.850
    42   6 C        2.911     0.052    26.842     8.496
    43   7 N        2.803    -0.043    22.075     6.978
    44   6 C        3.077     0.046    26.892     8.502
    45   6 C        2.910    -0.052    29.295     8.875
    46   6 C        2.924    -0.034    28.853     8.809
    47   6 C        2.920    -0.041    29.030     8.836
    48   6 C        2.912    -0.033    28.821     8.803
    49   6 C        3.068    -0.018    28.377     8.735
    50   6 C        3.069    -0.018    28.376     8.735
    51   6 C        2.912    -0.033    28.822     8.803
    52   6 C        2.920    -0.041    29.029     8.835
    53   6 C        2.924    -0.034    28.845     8.808
    54   6 C        2.910    -0.052    29.281     8.873
    55   6 C        3.077     0.046    26.887     8.501
    56   6 C        2.931    -0.050    29.236     8.867
    57   6 C        2.979    -0.011    28.294     8.725
    58   1 H        0.925     0.043     2.411     2.428
    59   1 H        0.925     0.032     2.558     2.501
    60   1 H        0.925     0.043     2.413     2.429
    61   1 H        0.925     0.033     2.545     2.495
    62   1 H        0.925     0.043     2.411     2.428
    63   1 H        0.925     0.043     2.413     2.429
    64   1 H        0.926     0.045     2.387     2.416
    65   1 H        0.926     0.025     2.656     2.548
    66   1 H        0.926     0.027     2.628     2.535
    67   1 H        0.926     0.027     2.630     2.536
    68   1 H        0.926     0.030     2.582     2.513
    69   1 H        0.926     0.030     2.582     2.513
    70   1 H        0.926     0.028     2.622     2.532
    71   1 H        0.926     0.028     2.608     2.526
    72   1 H        0.926     0.026     2.643     2.542
    73   1 H        0.926     0.042     2.419     2.432
    74   1 H        0.926     0.028     2.615     2.529
    75   1 H        0.926     0.063     2.159     2.298
    76   1 H        0.926     0.065     2.140     2.288
    77   1 H        0.926     0.059     2.208     2.324
    78   1 H        0.926     0.053     2.287     2.365
    79   1 H        0.926     0.055     2.262     2.352
    80   1 H        0.926     0.058     2.228     2.334
    81   1 H        0.926     0.060     2.194     2.316
    82   1 H        0.926     0.028     2.613     2.528
    83   1 H        0.926     0.042     2.416     2.431
    84   1 H        0.926     0.026     2.647     2.544
    85   1 H        0.926     0.028     2.620     2.531
    86   1 H        0.926     0.027     2.626     2.534
    87   1 H        0.926     0.030     2.582     2.513
    88   1 H        0.926     0.030     2.580     2.512
    89   1 H        0.926     0.027     2.626     2.534
    90   1 H        0.926     0.027     2.624     2.533
    91   1 H        0.926     0.025     2.659     2.550
    92   1 H        0.926     0.045     2.388     2.416

molecular dipole:
                 x           y           z       tot (Debye)
 q only:       -0.013       0.667       1.742
   full:       -0.014       0.474       1.676       4.426

 projected vibrational frequencies (cm⁻¹)
eigval :       -0.00    -0.00    -0.00    -0.00     0.00     0.00
eigval :       -7.41    11.12    12.76    16.68    17.38    22.06
eigval :       33.37    38.24    41.26    49.57    66.24    76.35
eigval :       90.85    93.55   103.45   108.92   111.13   112.34
eigval :      124.10   125.18   127.20   144.92   146.36   159.61
eigval :      172.68   174.38   185.18   190.75   193.76   198.69
eigval :      233.13   240.51   241.25   271.82   271.90   277.62
eigval :      286.77   291.84   309.07   315.26   327.60   334.87
eigval :      345.44   356.74   359.45   368.14   385.21   391.85
eigval :      395.25   396.94   401.76   409.60   420.81   423.87
eigval :      428.32   434.37   436.29   443.47   453.01   466.95
eigval :      470.57   484.70   500.84   509.54   514.22   517.75
eigval :      518.35   524.84   527.66   530.62   541.33   541.35
eigval :      547.00   559.36   569.17   586.15   588.59   589.10
eigval :      596.52   603.93   626.44   632.23   637.14   640.43
eigval :      673.19   673.77   679.65   681.21   682.49   686.45
eigval :      690.23   701.59   703.23   708.30   709.48   709.71
eigval :      752.93   756.33   763.26   769.49   769.56   778.99
eigval :      780.85   780.89   806.29   822.41   824.76   825.18
eigval :      844.33   869.50   869.65   871.91   872.16   872.88
eigval :      881.09   893.53   893.90   899.50   899.54   901.19
eigval :      901.38   906.72   907.05   911.90   913.75   914.56
eigval :      916.48   917.17   923.37   923.40   926.09   926.44
eigval :      928.95   931.15   943.83   957.91   993.52   997.92
eigval :     1011.20  1012.41  1012.77  1014.69  1027.33  1070.04
eigval :     1070.07  1072.64  1073.54  1073.59  1083.18  1096.34
eigval :     1103.36  1121.48  1121.81  1125.29  1147.88  1151.76
eigval :     1151.96  1152.97  1158.17  1161.01  1167.82  1176.32
eigval :     1177.09  1177.70  1181.54  1181.57  1185.54  1189.95
eigval :     1194.52  1218.80  1225.21  1230.38  1236.72  1237.10
eigval :     1239.11  1244.93  1250.16  1253.13  1263.28  1269.43
eigval :     1273.00  1299.40  1300.77  1304.73  1306.71  1307.05
eigval :     1314.01  1324.71  1325.20  1331.68  1345.39  1357.84
eigval :     1357.99  1363.08  1363.56  1373.48  1391.13  1398.67
eigval :     1403.58  1415.18  1418.37  1421.85  1424.96  1428.88
eigval :     1430.02  1441.87  1445.64  1453.50  1456.70  1477.01
eigval :     1477.31  1482.74  1488.84  1489.04  1489.27  1491.67
eigval :     1501.02  1502.41  1503.92  1559.06  1566.73  1571.15
eigval :     1572.19  1574.71  1578.03  1580.18  1588.93  1589.25
eigval :     1597.02  1597.43  1599.21  1599.30  1602.74  1615.39
eigval :     1615.77  3026.31  3028.51  3041.57  3044.13  3051.26
eigval :     3055.21  3074.41  3074.82  3075.11  3075.96  3080.30
eigval :     3080.34  3081.48  3081.66  3087.04  3087.06  3087.42
eigval :     3088.68  3089.04  3093.01  3093.10  3094.46  3094.51
eigval :     3095.65  3096.22  3096.40  3098.24  3099.58  3099.78
eigval :     3100.12  3102.95  3105.05  3105.41  3108.99  3109.65

   temp. (K)  partition function   enthalpy   heat capacity  entropy
                                   cal/mol     cal/K/mol   cal/K/mol   J/K/mol
 298.15  VIB  0.113E+22            26881.829    170.564    166.542
         ROT  0.181E+09              888.752      2.981     40.763
         INT  0.205E+30            27770.582    173.545    207.305
         TR   0.200E+29             1481.254      4.968     45.719
         TOT                       29251.8356   178.5131   253.0238  1058.6518

       T/K    H(0)-H(T)+PV         H(T)/Eh          T*S/Eh         G(T)/Eh
   ------------------------------------------------------------------------
    298.15    0.466158E-01    0.749157E+00    0.120220E+00    0.628937E+00
   ------------------------------------------------------------------------

         :::::::::::::::::::::::::::::::::::::::::::::::::::::
         ::                  THERMODYNAMIC                  ::
         :::::::::::::::::::::::::::::::::::::::::::::::::::::
         :: total free energy        -146.681006499174 Eh   ::
         ::.................................................::
         :: total energy             -147.309943712550 Eh   ::
         :: zero point energy           0.702541240644 Eh   ::
         :: G(RRHO) w/o ZPVE           -0.073604027268 Eh   ::
         :: G(RRHO) contrib.            0.628937213376 Eh   ::
         :::::::::::::::::::::::::::::::::::::::::::::::::::::

           -------------------------------------------------
          | TOTAL ENERGY             -147.309943712550 Eh   |
          | TOTAL ENTHALPY           -146.560786704708 Eh   |
          | TOTAL FREE ENERGY        -146.681006499174 Eh   |
          | GRADIENT NORM               0.000055966533 Eh/α |
          | HOMO-LUMO GAP               1.458866553798 eV   |
           -------------------------------------------------

 * finished run on 2025/07/17 at 22:56:24.096
