   * xtb version 6.7.1 (edcfbbe) compiled by 'albert@albert-system' on 2024-07-22

   ID    Z sym.   atoms
    1    6 C      1-6, 8-22, 24-35, 39-42, 44-57
    2    7 N      7, 23, 43
    3   16 S      36
    4    8 O      37, 38
    5    1 H      58-92

          program call               : xtb data2507/gas/2Cz-DMAC-BTB/2Cz-DMAC-BTB_gas_T1_crest.xyz --gfn 2 --spinpol --tblite --uhf 2 --ohess vtight --parallel 40 --molden --ceasefiles --namespace data2507/gas/2Cz-DMAC-BTB/2Cz-DMAC-BTB_gas_T1_finalOpt
 * total energy  :  -147.2238454 Eh     change        0.8211029E-07 Eh
 * total energy  :  -147.2238506 Eh     change       -0.5280777E-05 Eh
 * total energy  :  -147.2238529 Eh     change       -0.2238502E-05 Eh
 * total energy  :  -147.2238539 Eh     change       -0.9915394E-06 Eh
 * total energy  :  -147.2238551 Eh     change       -0.1222443E-05 Eh
 * total energy  :  -147.2238564 Eh     change       -0.1274829E-05 Eh
 * total energy  :  -147.2238580 Eh     change       -0.1583984E-05 Eh
 * total energy  :  -147.2238597 Eh     change       -0.1789112E-05 Eh
 * total energy  :  -147.2238605 Eh     change       -0.7921267E-06 Eh
 * total energy  :  -147.2238618 Eh     change       -0.1288134E-05 Eh
 * total energy  :  -147.2238705 Eh     change       -0.2072744E-05 Eh
 * total energy  :  -147.2238717 Eh     change       -0.1187607E-05 Eh
 * total energy  :  -147.2238726 Eh     change       -0.9160383E-06 Eh
 * total energy  :  -147.2238733 Eh     change       -0.7296468E-06 Eh
 * total energy  :  -147.2238735 Eh     change       -0.1709407E-06 Eh
 * total energy  :  -147.2238743 Eh     change       -0.7819794E-06 Eh
 * total energy  :  -147.2238737 Eh     change        0.6012885E-06 Eh
 * total energy  :  -147.2238746 Eh     change       -0.8929624E-06 Eh
 * total energy  :  -147.2238746 Eh     change       -0.3476489E-07 Eh
   *** GEOMETRY OPTIMIZATION CONVERGED AFTER 26 ITERATIONS ***

 final structure:
================
92
 xtb: 6.7.1 (edcfbbe)
C           -0.21460657537266        2.97111527078634        1.46392180200704
C           -0.20379571773818        2.32426851592166        0.06553717043711
C           -0.30580543800015        3.41223293419291       -1.02063479238461
C            1.10199022926562        1.58244158510403       -0.12306554606270
C            2.29217163631666        2.26926818790862       -0.06584396997405
C            3.53140800141710        1.63504252732210       -0.22981390941887
N            4.70565485928757        2.36635987493081       -0.16472333975532
C            5.85565958232191        1.99964347724899        0.51686178780462
C            6.09376491211327        0.89403750931643        1.31903845624484
C            7.33513297499749        0.78617415346386        1.92120111195478
C            8.31561762008879        1.75944818119806        1.74230670244831
C            8.07298211333148        2.88086415325784        0.97240283998239
C            6.83406494902165        3.01093937893059        0.35922645614726
C            6.24380803471835        4.02997578370776       -0.46108587594049
C            6.71201966614254        5.23454822149296       -0.96877620375998
C            5.87911243889161        5.97900958814520       -1.78178426361680
C            4.60372231553527        5.52451871468505       -2.10988262398170
C            4.11539041837000        4.32842856834974       -1.61375188936263
C            4.93087523055391        3.59516277387219       -0.76507002504533
C            3.55469446780800        0.24801216917579       -0.47317919208348
C            2.38474377435494       -0.45155354489365       -0.54530044617624
C            1.13631056139131        0.18507098929910       -0.36328800360596
N           -0.01703096706061       -0.54442899197254       -0.43575475900605
C            0.07354691901850       -1.95227171135776       -0.67153837724586
C           -0.08822529865363       -2.42579625834569       -1.98214196961873
C            0.00195674798172       -3.79549895111953       -2.21689828720414
C            0.24257336152344       -4.63812828203280       -1.16656524649351
C            0.40800947473142       -4.17827268496499        0.16025861545240
C            0.31799439733725       -2.79840966820612        0.38989400542965
C            0.65185737764229       -5.21622996759641        1.12005904979571
C            0.85700589119513       -5.08041745963793        2.50023319274381
C            1.08033395960184       -6.20184805455355        3.26989152248317
C            1.10703879795106       -7.47506770903713        2.70390145835577
C            0.90560433087267       -7.62870545241602        1.33640427752963
C            0.68338111836986       -6.51187108716479        0.57333504566764
S            0.39908023848835       -6.42093689602474       -1.18859847848998
O            1.56442029732415       -6.82434289576872       -1.93664562431542
O           -0.85004171265741       -7.03964241178747       -1.55919957380403
C           -1.25490228612788        0.01761725289665       -0.29471495655579
C           -2.40911135683743       -0.79337237232789       -0.37589861183602
C           -3.65956660036727       -0.26254516468356       -0.23926709722711
C           -3.81568643070549        1.11453035574948        0.00962689414289
N           -5.07401893275795        1.67137729332343        0.16814562954295
C           -6.17930034408906        1.42508327082531       -0.63120508736654
C           -6.28852455546474        0.64713852188162       -1.77378150173283
C           -7.51562194761282        0.60300982003271       -2.41203819725758
C           -8.60813302210554        1.32384510021731       -1.93515392195548
C           -8.49692960197535        2.12792830347100       -0.81696285869669
C           -7.27479900047392        2.18880638168894       -0.16089042484289
C           -6.80466595313135        2.92369290112638        0.97886237537818
C           -7.41270663804920        3.80848247300608        1.85938190825051
C           -6.66700266487302        4.32112037686571        2.90347433681499
C           -5.33906312113963        3.94330609745414        3.08945886483248
C           -4.71193107396575        3.06486465220025        2.22332078782380
C           -5.44256796610754        2.57689095434444        1.15046145459276
C           -2.67001649602683        1.91588422483031        0.10689694664623
C           -1.40164208154620        1.40561667124109       -0.04467293276206
H            0.64221482240913        3.62573326185440        1.59404333233766
H           -0.17694724385199        2.19969055415786        2.23060549899316
H           -1.11535524485274        3.56055723492003        1.60925386819185
H           -0.26286057307980        2.95665877353334       -2.00799038258042
H           -1.24096782909880        3.95788826317738       -0.93537418521008
H            0.50976218086593        4.12410698568627       -0.93147089446380
H            2.29531897012227        3.32589614322185        0.15083393686433
H            5.33537635650814        0.14496702614514        1.48635006007059
H            7.54500103087355       -0.06842827090437        2.54630753817986
H            9.27374862148359        1.63779745326360        2.22469122193239
H            8.82526485581882        3.64526446053873        0.85186553697670
H            7.70984257232047        5.57400951282075       -0.73683061880666
H            6.22348578400075        6.91966204794145       -2.18443250275091
H            3.98533561063703        6.11327146845682       -2.77060604171875
H            3.13842913237232        3.97258112559636       -1.90304444237099
H            4.49613442855518       -0.24642615026033       -0.65128007140886
H            2.40556089812513       -1.50715535125089       -0.76345332105166
H           -0.27463173823243       -1.72959740688147       -2.78381272352443
H           -0.11574276404849       -4.19372346476058       -3.21237060197964
H            0.43566483718723       -2.39247918197968        1.38330233590437
H            0.83997815859716       -4.10228842819884        2.95741631231970
H            1.23804586112301       -6.09394232059763        4.33353893347912
H            1.28347657053392       -8.33871019784818        3.32572525279725
H            0.92130783712837       -8.60281842613209        0.87262615038773
H           -2.29287394381312       -1.85339455788526       -0.53402685884898
H           -4.52802433135687       -0.90073648168848       -0.27093495232672
H           -5.44425643210836        0.10314102726963       -2.16812638209173
H           -7.62585395589944        0.00063867757477       -3.30092103319764
H           -9.55068968329609        1.26020911247932       -2.45767399186515
H           -9.33769989150021        2.70317008076951       -0.46061833184505
H           -8.44912102993349        4.08075681321128        1.73138286104254
H           -7.12064406572524        5.01257550769863        3.59747784057880
H           -4.78896201484253        4.33786868914103        3.93048801465640
H           -3.69292589068995        2.75526830436336        2.39822656509720
H           -2.81070525386031        2.97331173679073        0.26661041850435

 projected vibrational frequencies (cm⁻¹)
eigval :       -0.00    -0.00    -0.00     0.00     0.00     0.00
eigval :        5.36    11.79    13.27    16.97    18.25    23.40
eigval :       35.55    39.42    42.69    57.05    65.64    80.44
eigval :       88.41    98.47   103.31   108.22   112.03   113.44
eigval :      125.43   125.89   130.64   145.51   148.77   155.34
eigval :      173.12   175.80   191.79   194.11   203.08   204.91
eigval :      236.05   240.66   245.12   269.10   271.03   276.87
eigval :      287.83   289.29   307.10   310.43   319.93   333.72
eigval :      337.28   348.76   356.49   364.02   368.86   389.71
eigval :      390.62   393.66   397.55   410.08   415.77   418.53
eigval :      421.70   429.18   431.10   437.46   439.57   463.17
eigval :      464.42   489.86   497.01   506.85   514.72   514.91
eigval :      522.00   526.70   532.00   533.80   534.25   534.86
eigval :      547.05   550.81   566.20   579.73   584.38   585.32
eigval :      590.71   595.61   615.07   617.12   626.46   630.82
eigval :      658.42   665.11   669.57   669.80   674.23   674.52
eigval :      678.69   681.95   692.34   704.22   704.90   706.63
eigval :      749.10   754.30   758.13   759.52   766.96   767.05
eigval :      767.84   775.69   775.95   801.39   815.06   818.41
eigval :      833.98   840.62   854.92   866.04   866.45   869.53
eigval :      869.79   885.30   887.32   890.23   894.62   895.23
eigval :      895.42   898.31   899.06   899.20   909.06   909.28
eigval :      912.09   913.77   914.01   920.35   920.44   922.56
eigval :      924.13   924.97   934.34   958.30   975.74   981.42
eigval :      996.70  1009.91  1010.23  1013.41  1014.40  1064.93
eigval :     1069.10  1069.12  1069.72  1069.97  1074.93  1078.75
eigval :     1079.45  1103.08  1111.84  1116.45  1142.72  1145.09
eigval :     1145.48  1148.42  1149.34  1151.38  1155.41  1167.58
eigval :     1173.90  1174.83  1177.61  1177.67  1180.99  1184.79
eigval :     1192.51  1212.88  1219.60  1222.67  1225.52  1228.46
eigval :     1229.16  1229.34  1234.23  1236.77  1246.78  1259.02
eigval :     1278.75  1281.05  1284.35  1286.04  1295.31  1306.85
eigval :     1323.95  1329.80  1330.92  1341.70  1344.09  1346.01
eigval :     1349.83  1352.64  1359.50  1362.03  1363.50  1365.83
eigval :     1370.22  1379.09  1387.11  1401.12  1413.36  1413.79
eigval :     1414.04  1414.47  1419.56  1426.86  1444.90  1449.09
eigval :     1450.36  1455.98  1457.89  1461.84  1466.08  1472.94
eigval :     1482.80  1483.28  1485.89  1489.64  1499.18  1499.87
eigval :     1508.18  1515.82  1535.73  1554.85  1555.28  1555.57
eigval :     1561.81  1579.28  1579.55  1579.90  1581.97  1582.32
eigval :     1590.68  3030.23  3031.84  3043.83  3046.03  3053.53
eigval :     3056.84  3071.31  3081.33  3081.45  3082.28  3083.13
eigval :     3083.36  3086.45  3086.52  3088.13  3088.62  3088.78
eigval :     3091.96  3093.55  3093.62  3095.78  3095.87  3096.69
eigval :     3099.84  3099.95  3100.98  3101.16  3101.58  3101.70
eigval :     3102.46  3104.31  3104.60  3105.89  3115.91  3116.68

   temp. (K)  partition function   enthalpy   heat capacity  entropy
                                   cal/mol     cal/K/mol   cal/K/mol   J/K/mol
 298.15  VIB  0.101E+22            27051.963    172.626    167.303
         ROT  0.180E+09              888.752      2.981     40.753
         INT  0.182E+30            27940.716    175.607    208.055
         TR   0.200E+29             1481.254      4.968     45.719
         TOT                       29421.9694   180.5753   253.7741  1061.7908

       T/K    H(0)-H(T)+PV         H(T)/Eh          T*S/Eh         G(T)/Eh
   ------------------------------------------------------------------------
    298.15    0.468869E-01    0.744504E+00    0.120576E+00    0.623928E+00
   ------------------------------------------------------------------------

         :::::::::::::::::::::::::::::::::::::::::::::::::::::
         ::                  THERMODYNAMIC                  ::
         :::::::::::::::::::::::::::::::::::::::::::::::::::::
         :: total free energy        -146.599947155194 Eh   ::
         ::.................................................::
         :: total energy             -147.223874685072 Eh   ::
         :: zero point energy           0.697616894728 Eh   ::
         :: G(RRHO) w/o ZPVE           -0.073689364850 Eh   ::
         :: G(RRHO) contrib.            0.623927529879 Eh   ::
         :::::::::::::::::::::::::::::::::::::::::::::::::::::

           -------------------------------------------------
          | TOTAL ENERGY             -147.223874685072 Eh   |
          | TOTAL ENTHALPY           -146.479370897554 Eh   |
          | TOTAL FREE ENERGY        -146.599947155194 Eh   |
          | GRADIENT NORM               0.000074314917 Eh/α |
           -------------------------------------------------

 * finished run on 2025/07/17 at 23:10:45.666
