   * xtb version 6.7.1 (edcfbbe) compiled by 'albert@albert-system' on 2024-07-22

   ID    Z sym.   atoms
    1    6 C      1-6, 8-22, 24-35, 39-42, 44-57
    2    7 N      7, 23, 43
    3   16 S      36
    4    8 O      37, 38
    5    1 H      58-92

          program call               : xtb data2507/gas/2Cz-DMAC-BTB/2Cz-DMAC-BTB_gas_S0_finalOpt.xtbopt.xyz --gfn 2 --spinpol --tblite --uhf 2 --ohess vtight --parallel 40 --molden --ceasefiles --namespace data2507/gas/2Cz-DMAC-BTB/2Cz-DMAC-BTB_gas_T1_preOpt
 * total energy  :  -147.2187313 Eh     change       -0.3910520E-07 Eh
 * total energy  :  -147.2221121 Eh     change       -0.3380830E-02 Eh
 * total energy  :  -147.2232246 Eh     change       -0.1112455E-02 Eh
 * total energy  :  -147.2233433 Eh     change       -0.1186865E-03 Eh
 * total energy  :  -147.2234369 Eh     change       -0.9358325E-04 Eh
 * total energy  :  -147.2234710 Eh     change       -0.3416174E-04 Eh
 * total energy  :  -147.2235041 Eh     change       -0.3307098E-04 Eh
 * total energy  :  -147.2235295 Eh     change       -0.2534758E-04 Eh
 * total energy  :  -147.2235293 Eh     change        0.1606766E-06 Eh
 * total energy  :  -147.2235444 Eh     change       -0.1506845E-04 Eh
 * total energy  :  -147.2238493 Eh     change       -0.1625928E-05 Eh
 * total energy  :  -147.2238509 Eh     change       -0.1618158E-05 Eh
 * total energy  :  -147.2238529 Eh     change       -0.1990403E-05 Eh
 * total energy  :  -147.2238555 Eh     change       -0.2633139E-05 Eh
 * total energy  :  -147.2238581 Eh     change       -0.2619709E-05 Eh
 * total energy  :  -147.2238598 Eh     change       -0.1667986E-05 Eh
 * total energy  :  -147.2238601 Eh     change       -0.3380887E-06 Eh
 * total energy  :  -147.2238608 Eh     change       -0.7070312E-06 Eh
 * total energy  :  -147.2238609 Eh     change       -0.4825429E-07 Eh
   *** GEOMETRY OPTIMIZATION CONVERGED AFTER 46 ITERATIONS ***

 final structure:
================
92
 xtb: 6.7.1 (edcfbbe)
C           -0.44257011653648        2.97182187434058        1.44277073167869
C           -0.39405893433921        2.30309810633034        0.05555281470488
C           -0.58193120596061        3.36152888085544       -1.04825529092897
C            0.96047513055817        1.65483417857244       -0.13315653268860
C            2.09761351840470        2.42760910280883       -0.09226381838240
C            3.37809713808617        1.88544608870158       -0.26708407469474
N            4.49667173414801        2.70043458487598       -0.21350707223153
C            5.67503248821585        2.41995976774246        0.46033272252023
C            5.99932090796963        1.33494476351404        1.26038389082785
C            7.24902511905446        1.31926757064536        1.85463283949726
C            8.15361840128923        2.36241688585603        1.66984373359555
C            7.82403760805770        3.46252024777975        0.90148852553946
C            6.57507566234581        3.50055193696620        0.29614199335321
C            5.90599588373991        4.47248946746034       -0.52094018787515
C            6.28054250958258        5.70780229994825       -1.03245575689510
C            5.38977447980750        6.38758371990218       -1.84078317400354
C            4.14953767000642        5.83957612706370       -2.16065831308175
C            3.75410396582438        4.61136081897219       -1.66043080950900
C            4.62686523381827        3.94162568359341       -0.81620362605136
C            3.49963889534935        0.50427472798613       -0.51282994270765
C            2.38337259000950       -0.27951462342652       -0.56923151698146
C            1.09421014007215        0.26212810787191       -0.36476316543868
N           -0.00357807062538       -0.55167558669764       -0.41246505000156
C            0.18412584388053       -1.94877429506307       -0.64837116158696
C           -0.06115530999480       -2.45040679933820       -1.93630502774059
C            0.12196267810231       -3.80999220273351       -2.17390206755640
C            0.53341532427825       -4.61733143843147       -1.14910676243200
C            0.78790698398726       -4.12900910200653        0.15378344073813
C            0.60145760280081       -2.75956721010980        0.38666467733287
C            1.21441187798690       -5.13064030905984        1.08770748816323
C            1.54691739772370       -4.96079654144911        2.43911484311887
C            1.94355716466115       -6.04938607584540        3.18567812061308
C            2.02182735762302       -7.32269929164597        2.62455864935934
C            1.69615991797025       -7.50985624648686        1.28547996555039
C            1.30196027227776       -6.42563194143916        0.54521266689677
S            0.83540296202647       -6.38099818959935       -1.17923583861845
O            1.94930890767380       -6.69648302364149       -2.03957672155661
O           -0.38890797907621       -7.10507114520428       -1.41877617739982
C           -1.27722908699252       -0.07980601741209       -0.25433923231908
C           -2.36941132793397       -0.97577809735103       -0.28980963246889
C           -3.65365310094476       -0.53457490467030       -0.14722616527937
C           -3.90816028391361        0.83389249405782        0.06351581363918
N           -5.20257339740610        1.30162586048861        0.21948728300112
C           -6.29223495765451        0.95275175377999       -0.56299541296298
C           -6.35218454091937        0.13451986564767       -1.68079677480489
C           -7.57681098034840       -0.01689732512343       -2.30723311787701
C           -8.71530304909938        0.63806595092343       -1.84314007767155
C           -8.65539047531978        1.48159510845138       -0.75034628366740
C           -7.43688259022082        1.64968584852620       -0.10639768089407
C           -7.01383931970335        2.45005869428075        1.00748687039374
C           -7.67847773391043        3.31487094773508        1.86664444988296
C           -6.96527795271056        3.91027148363776        2.88933051275077
C           -5.61266818463695        3.63386440487004        3.07574924237154
C           -4.92932266652034        2.77722975920950        2.23057502871634
C           -5.62935636996072        2.20691798275741        1.17809026177421
C           -2.82305300859622        1.71835497257278        0.12789605849577
C           -1.52246813151318        1.29803457408725       -0.02810686835786
H            0.36354102610656        3.69102872877508        1.55439193419836
H           -0.34161689536836        2.21895140079655        2.22206845278848
H           -1.38375105527483        3.49481457141834        1.58602759598848
H           -0.51555771153384        2.89246353409035       -2.02797649089297
H           -1.55233920092844        3.84174725404993       -0.96312777145579
H            0.18243872737423        4.13022699174745       -0.97952688491795
H            2.02507961292601        3.48291941793980        0.11848116321940
H            5.29944658917735        0.53174691736467        1.43165266453731
H            7.52557530365285        0.48257649423910        2.47803435476259
H            9.12111704940668        2.31211943740080        2.14621555729453
H            8.51714791759561        4.28024999358065        0.77623036861638
H            7.25189557257615        6.12057363831891       -0.80710544278538
H            5.66108137723764        7.35066751680208       -2.24625150880594
H            3.48532197004708        6.38005355427310       -2.81814966853484
H            2.80452802793550        4.18351825140901       -1.94335795149459
H            4.47219909644920        0.08057121465127       -0.70567986809370
H            2.47959097743964       -1.32982428569750       -0.79238764951466
H           -0.38059365644411       -1.78153685394956       -2.71908257481932
H           -0.05671003034598       -4.22815794261640       -3.15198162733982
H            0.77823528684603       -2.33422761153841        1.36311765252488
H            1.49294828421013       -3.98200048378037        2.89200388279606
H            2.19957081470925       -5.91516349379588        4.22697706406384
H            2.33453407430267       -8.16035497663266        3.22805762572663
H            1.74868131999627       -8.48471406985437        0.82599374670157
H           -2.17810921781642       -2.02908795536619       -0.41616473348278
H           -4.47264093003612       -1.23588792274297       -0.14470156095702
H           -5.47340292689808       -0.35946096481494       -2.06544037146877
H           -7.64889894000151       -0.65254469525245       -3.17663897157175
H           -9.65401935787435        0.49126688822561       -2.35573233503222
H           -9.53320020311792        2.00562768406211       -0.40447671863575
H           -8.73248478144594        3.50852056154841        1.73915645719015
H           -7.46322747456227        4.58784977916165        3.56644066648331
H           -5.08736446126142        4.09133508632608        3.90061502880293
H           -3.88985593171622        2.54619547429815        2.40647510814121
H           -3.03834820703548        2.76623171392806        0.26553464769354

 projected vibrational frequencies (cm⁻¹)
eigval :       -0.00    -0.00    -0.00     0.00     0.00     0.00
eigval :        7.58    11.85    13.48    17.20    18.73    23.34
eigval :       35.92    39.46    42.84    57.42    66.75    80.96
eigval :       88.23    98.84   103.48   107.51   112.42   115.13
eigval :      125.66   125.77   130.43   145.55   148.87   156.15
eigval :      172.79   175.96   191.74   193.73   203.07   205.11
eigval :      236.71   240.60   244.86   269.13   270.91   277.56
eigval :      288.11   289.77   307.53   310.60   319.82   334.09
eigval :      337.27   348.98   356.45   364.37   368.99   389.63
eigval :      390.53   393.31   397.96   410.52   415.85   418.69
eigval :      422.12   429.29   431.69   437.43   440.04   463.56
eigval :      464.67   489.98   496.94   506.72   514.74   514.96
eigval :      521.92   526.83   531.55   533.93   534.40   535.00
eigval :      547.25   551.25   566.22   579.47   584.53   585.38
eigval :      590.55   595.60   614.79   617.39   626.66   630.82
eigval :      657.72   665.34   669.71   669.87   674.11   674.66
eigval :      678.91   681.99   692.39   704.35   704.94   706.86
eigval :      749.42   754.12   758.27   759.35   767.18   767.30
eigval :      768.13   776.00   776.24   801.05   815.35   818.94
eigval :      835.75   840.86   855.04   866.33   866.73   869.75
eigval :      870.02   885.70   887.60   890.44   894.87   895.33
eigval :      895.44   898.53   899.41   899.47   909.28   909.53
eigval :      912.28   914.10   914.32   920.68   920.76   922.96
eigval :      924.37   925.30   934.42   958.44   975.80   981.41
eigval :      996.46  1009.83  1010.15  1013.60  1013.82  1065.08
eigval :     1069.04  1069.05  1069.79  1069.92  1075.13  1078.35
eigval :     1079.42  1102.82  1111.93  1116.47  1143.09  1145.06
eigval :     1145.76  1147.91  1149.05  1151.67  1155.77  1167.85
eigval :     1174.23  1174.97  1178.10  1178.15  1181.07  1185.00
eigval :     1192.88  1212.56  1219.36  1223.07  1225.27  1228.69
eigval :     1229.47  1229.67  1234.63  1236.78  1246.58  1259.62
eigval :     1278.55  1281.22  1284.67  1286.49  1295.40  1304.61
eigval :     1323.91  1329.98  1331.43  1340.70  1344.55  1346.36
eigval :     1350.02  1353.15  1359.40  1361.79  1363.43  1365.98
eigval :     1369.61  1378.73  1387.39  1401.41  1413.77  1414.47
eigval :     1414.63  1414.99  1420.22  1427.03  1445.10  1448.32
eigval :     1449.85  1456.02  1457.64  1461.80  1466.35  1472.63
eigval :     1482.98  1483.22  1486.39  1489.87  1499.47  1500.14
eigval :     1506.81  1515.23  1534.61  1554.38  1555.69  1556.03
eigval :     1561.98  1579.60  1579.69  1579.83  1582.03  1582.34
eigval :     1591.03  3030.28  3031.85  3043.95  3046.17  3053.82
eigval :     3057.38  3071.47  3081.61  3081.73  3082.45  3083.40
eigval :     3083.62  3086.70  3086.71  3087.83  3088.76  3089.02
eigval :     3092.04  3093.82  3093.87  3096.00  3096.16  3096.41
eigval :     3100.41  3100.43  3101.53  3101.71  3102.01  3102.28
eigval :     3102.56  3104.32  3104.67  3105.79  3116.16  3117.04

   temp. (K)  partition function   enthalpy   heat capacity  entropy
                                   cal/mol     cal/K/mol   cal/K/mol   J/K/mol
 298.15  VIB  0.640E+21            27035.773    172.628    166.807
         ROT  0.180E+09              888.752      2.981     40.753
         INT  0.115E+30            27924.525    175.609    207.559
         TR   0.200E+29             1481.254      4.968     45.719
         TOT                       29405.7789   180.5774   253.2780  1059.7151

       T/K    H(0)-H(T)+PV         H(T)/Eh          T*S/Eh         G(T)/Eh
   ------------------------------------------------------------------------
    298.15    0.468611E-01    0.744561E+00    0.120341E+00    0.624221E+00
   ------------------------------------------------------------------------

         :::::::::::::::::::::::::::::::::::::::::::::::::::::
         ::                  THERMODYNAMIC                  ::
         :::::::::::::::::::::::::::::::::::::::::::::::::::::
         :: total free energy        -146.599640299385 Eh   ::
         ::.................................................::
         :: total energy             -147.223860960749 Eh   ::
         :: zero point energy           0.697700113391 Eh   ::
         :: G(RRHO) w/o ZPVE           -0.073479452028 Eh   ::
         :: G(RRHO) contrib.            0.624220661364 Eh   ::
         :::::::::::::::::::::::::::::::::::::::::::::::::::::

           -------------------------------------------------
          | TOTAL ENERGY             -147.223860960749 Eh   |
          | TOTAL ENTHALPY           -146.479299755871 Eh   |
          | TOTAL FREE ENERGY        -146.599640299385 Eh   |
          | GRADIENT NORM               0.000140490278 Eh/α |
           -------------------------------------------------

 * finished run on 2025/07/17 at 23:02:18.478
