   * xtb version 6.7.1 (edcfbbe) compiled by 'albert@albert-system' on 2024-07-22

   ID    Z sym.   atoms
    1    6 C      1-4, 6-16, 18, 20, 22-32
    2    7 N      5, 17, 21
    3    8 O      19
    4    1 H      33-49

          program call               : xtb data2507/gas/3PCzPFP/3PCzPFP.xyz --gfn 2 --ohess vtight --parallel 40 --molden --ceasefiles --namespace data2507/gas/3PCzPFP/3PCzPFP_gas_S0_preOpt
          :  Hamiltonian                  GFN2-xTB          :
 * total energy  :   -81.5024772 Eh     change       -0.2545363E-08 Eh
 * total energy  :   -81.5137936 Eh     change       -0.1131639E-01 Eh
 * total energy  :   -81.5163192 Eh     change       -0.2525614E-02 Eh
 * total energy  :   -81.5167043 Eh     change       -0.3850770E-03 Eh
 * total energy  :   -81.5169368 Eh     change       -0.2325573E-03 Eh
 * total energy  :   -81.5170185 Eh     change       -0.8168282E-04 Eh
 * total energy  :   -81.5171211 Eh     change       -0.1025289E-03 Eh
 * total energy  :   -81.5172205 Eh     change       -0.9939737E-04 Eh
 * total energy  :   -81.5172995 Eh     change       -0.7908451E-04 Eh
 * total energy  :   -81.5173577 Eh     change       -0.5813027E-04 Eh
 * total energy  :   -81.5177715 Eh     change       -0.1540859E-05 Eh
 * total energy  :   -81.5177733 Eh     change       -0.1814431E-05 Eh
 * total energy  :   -81.5177753 Eh     change       -0.2066070E-05 Eh
 * total energy  :   -81.5177773 Eh     change       -0.2000669E-05 Eh
 * total energy  :   -81.5177789 Eh     change       -0.1589934E-05 Eh
 * total energy  :   -81.5177802 Eh     change       -0.1220536E-05 Eh
 * total energy  :   -81.5177812 Eh     change       -0.1035532E-05 Eh
 * total energy  :   -81.5177822 Eh     change       -0.9860380E-06 Eh
 * total energy  :   -81.5177822 Eh     change       -0.5711087E-08 Eh
   *** GEOMETRY OPTIMIZATION CONVERGED AFTER 44 ITERATIONS ***

 final structure:
================
49
 xtb: 6.7.1 (edcfbbe)
C           -5.67474241532355        3.41994294655776        0.16695014384611
C           -5.98142494545850        2.28002930683657        0.89138191428991
C           -5.15362355789044        1.17408965163525        0.83543343949506
C           -4.01238614465417        1.20074656110278        0.03944795702406
N           -3.17341691946340        0.07840928332750       -0.02661047657860
C           -3.57617876034398       -1.21704856255335       -0.28918449307325
C           -4.84006019755297       -1.70681326387775       -0.58543217670822
C           -4.96376451949604       -3.05944218395641       -0.83875079692245
C           -3.86082966591516       -3.91024902316821       -0.80777560613988
C           -2.59739765232464       -3.42499636186608       -0.53669102150655
C           -2.44785228161549       -2.06849033309408       -0.27998866325382
C           -1.31272399151123       -1.23711752967868        0.00823762958428
C            0.04022147880595       -1.49592623346354        0.15832848255465
C            0.90108800362815       -0.44527521289592        0.44951017713339
C            2.34272356810883       -0.68577565277636        0.59221369832419
C            2.81363637128978       -1.82333657342742        1.26190875747287
N            4.08809434083587       -2.13203790201499        1.43245295101546
C            4.95506358937372       -1.28485021934975        0.92348980235505
O            6.29606230189996       -1.45976352647651        1.00518929056031
C            6.85377776739004       -0.40191437845189        0.37389609359900
N            8.15374099857957       -0.24410478589552        0.25825463136672
C            8.54317480033983        0.84356753512100       -0.39055014447916
C            7.67773936970935        1.78858093352429       -0.93324195601107
C            6.30815884272440        1.61896609864413       -0.80880025215386
C            5.87373664964501        0.48843694073615       -0.13414410884196
C            4.61696203848457       -0.09660956377018        0.23106338620260
C            3.27591928669260        0.20497783655376        0.06427584269327
C            0.38930619575813        0.84994090430984        0.61106143407338
C           -0.95489872987093        1.12734595208240        0.47583233327009
C           -1.80732864743080        0.08069940473158        0.15193806261432
C           -3.70768507992967        2.34511627681339       -0.69157671493162
C           -4.53595212997091        3.44985268082885       -0.62069120780935
H           -6.32157384679842        4.28272658423700        0.21601594925698
H           -6.86608401910719        2.25407960272415        1.51014581239173
H           -5.37713315042922        0.29135439890505        1.41570096093856
H           -5.69808582938057       -1.05312535233692       -0.62916812543824
H           -5.93738988825575       -3.46567385043114       -1.06981056732495
H           -4.00023762129644       -4.96188579319825       -1.00875568435255
H           -1.73986053402621       -4.08058542769862       -0.52831525929911
H            0.42150115020434       -2.49719338884315        0.02854132396529
H            2.11650231558930       -2.52175693305953        1.70325336958052
H            9.61419910379834        0.95977546088072       -0.47832707280530
H            8.07853493150657        2.64744345280087       -1.44799368622565
H            5.60859702814182        2.33261566031488       -1.21848207601431
H            2.96248807303011        1.08731671432853       -0.47418560421874
H            1.06602440361548        1.64893488827155        0.87620638526219
H           -1.33006066976449        2.12774141537336        0.63030671931350
H           -2.83125586077769        2.35601800365079       -1.32228750036428
H           -4.29530555057037        4.33526755800483       -1.19027635372524

          :  Hamiltonian                  GFN2-xTB          :
         :: gradient norm              0.000054028557 Eh/a0 ::
         :: HOMO-LUMO gap              2.376611006467 eV    ::
         :: SCC energy               -82.956093667895 Eh    ::
         :: -> dispersion             -0.064137428009 Eh    ::
         :: repulsion energy           1.438311485236 Eh    ::

    * Orbital Energies and Occupations

         #    Occupation            Energy/Eh            Energy/eV
      -------------------------------------------------------------
         1        2.0000           -0.7488816             -20.3781
       ...           ...                  ...                  ...
        63        2.0000           -0.4361422             -11.8680
        64        2.0000           -0.4288997             -11.6710
        65        2.0000           -0.4254908             -11.5782
        66        2.0000           -0.4237336             -11.5304
        67        2.0000           -0.4196651             -11.4197
        68        2.0000           -0.4188022             -11.3962
        69        2.0000           -0.4151639             -11.2972
        70        2.0000           -0.4083112             -11.1107
        71        2.0000           -0.4008852             -10.9086
        72        2.0000           -0.3843209             -10.4579
        73        2.0000           -0.3825345             -10.4093
        74        2.0000           -0.3802152             -10.3462
        75        2.0000           -0.3659023              -9.9567 (HOMO)
        76                         -0.2785635              -7.5801 (LUMO)
        77                         -0.2603007              -7.0831
        78                         -0.2515890              -6.8461
        79                         -0.2417596              -6.5786
        80                         -0.2379525              -6.4750
        81                         -0.2366570              -6.4398
        82                         -0.2221997              -6.0464
        83                         -0.2143969              -5.8340
        84                         -0.1925676              -5.2400
        85                         -0.1854616              -5.0467
        86                         -0.1256597              -3.4194
       ...                                ...                  ...
       145                          0.7448826              20.2693
      -------------------------------------------------------------
                  HL-Gap            0.0873388 Eh            2.3766 eV

     #   Z          covCN         q      C6AA      α(0)
     1   6 C        2.919    -0.032    28.809     8.802
     2   6 C        2.920    -0.027    28.686     8.783
     3   6 C        2.922    -0.042    29.038     8.837
     4   6 C        2.913     0.064    26.556     8.450
     5   7 N        2.803    -0.042    22.043     6.973
     6   6 C        3.078     0.047    26.861     8.497
     7   6 C        2.910    -0.050    29.244     8.867
     8   6 C        2.924    -0.032    28.807     8.802
     9   6 C        2.920    -0.040    28.987     8.829
    10   6 C        2.912    -0.032    28.797     8.799
    11   6 C        3.068    -0.017    28.353     8.731
    12   6 C        3.066    -0.016    28.332     8.728
    13   6 C        2.918    -0.038    28.945     8.822
    14   6 C        2.977    -0.003    28.091     8.694
    15   6 C        2.976    -0.005    28.131     8.700
    16   6 C        2.942     0.053    26.822     8.494
    17   7 N        1.830    -0.235    26.991     7.699
    18   6 C        3.135     0.214    23.296     7.901
    19   8 O        1.715    -0.200    17.336     5.622
    20   6 C        3.133     0.218    23.231     7.890
    21   7 N        1.831    -0.233    26.953     7.693
    22   6 C        2.938     0.058    26.706     8.475
    23   6 C        2.919    -0.048    29.204     8.862
    24   6 C        2.919    -0.016    28.415     8.741
    25   6 C        3.057    -0.032    28.743     8.792
    26   6 C        3.051    -0.034    28.794     8.800
    27   6 C        2.923    -0.024    28.601     8.770
    28   6 C        2.928    -0.038    28.939     8.822
    29   6 C        2.908    -0.051    29.260     8.870
    30   6 C        3.077     0.047    26.866     8.498
    31   6 C        2.922    -0.042    29.049     8.839
    32   6 C        2.920    -0.028    28.692     8.784
    33   1 H        0.926     0.037     2.495     2.470
    34   1 H        0.926     0.038     2.480     2.463
    35   1 H        0.926     0.042     2.426     2.436
    36   1 H        0.926     0.029     2.601     2.522
    37   1 H        0.926     0.031     2.571     2.507
    38   1 H        0.926     0.031     2.578     2.511
    39   1 H        0.926     0.033     2.542     2.493
    40   1 H        0.926     0.036     2.503     2.474
    41   1 H        0.926     0.054     2.266     2.354
    42   1 H        0.926     0.054     2.276     2.359
    43   1 H        0.926     0.045     2.384     2.415
    44   1 H        0.926     0.043     2.404     2.425
    45   1 H        0.926     0.043     2.407     2.426
    46   1 H        0.926     0.032     2.565     2.504
    47   1 H        0.926     0.031     2.570     2.507
    48   1 H        0.926     0.040     2.446     2.446
    49   1 H        0.926     0.037     2.488     2.467

molecular dipole:
                 x           y           z       tot (Debye)
 q only:       -1.477       1.287      -0.540
   full:       -1.801       1.873      -0.836       6.938

 projected vibrational frequencies (cm⁻¹)
eigval :       -0.00    -0.00    -0.00     0.00     0.00     0.00
eigval :       20.68    23.53    35.17    57.28    63.36    68.28
eigval :       93.68   112.18   124.33   134.11   168.52   176.92
eigval :      204.90   225.99   255.71   261.90   280.40   290.21
eigval :      330.12   364.74   380.40   388.47   397.11   405.17
eigval :      416.08   428.40   437.55   446.40   469.14   484.69
eigval :      523.69   535.56   540.74   547.12   574.57   576.55
eigval :      590.82   594.95   607.98   616.27   628.44   631.21
eigval :      667.93   681.14   682.31   708.58   724.96   727.59
eigval :      737.89   763.71   773.93   776.34   797.99   818.92
eigval :      828.78   855.32   866.38   870.39   876.29   881.73
eigval :      883.10   900.03   902.84   905.26   906.21   914.31
eigval :      914.88   918.86   922.97   930.19   933.62   934.58
eigval :      998.37  1013.47  1033.84  1071.52  1076.74  1080.64
eigval :     1087.86  1118.10  1123.24  1132.96  1156.25  1177.72
eigval :     1178.79  1181.12  1184.53  1186.73  1201.44  1218.41
eigval :     1241.43  1245.37  1253.91  1267.36  1273.57  1274.95
eigval :     1284.62  1308.12  1318.01  1320.69  1334.16  1353.14
eigval :     1360.62  1361.72  1367.45  1386.42  1420.53  1431.69
eigval :     1436.66  1444.16  1466.86  1482.48  1484.81  1495.88
eigval :     1553.16  1565.98  1575.45  1578.74  1583.24  1584.70
eigval :     1596.15  1597.57  1612.33  1617.28  3073.30  3074.71
eigval :     3077.84  3078.36  3079.15  3079.98  3081.55  3082.14
eigval :     3083.76  3090.20  3090.90  3092.25  3093.74  3094.67
eigval :     3097.94  3100.13  3102.51

   temp. (K)  partition function   enthalpy   heat capacity  entropy
                                   cal/mol     cal/K/mol   cal/K/mol   J/K/mol
 298.15  VIB  0.768E+09            12883.869     86.928     77.549
         ROT  0.301E+08              888.752      2.981     37.201
         INT  0.231E+17            13772.621     89.909    114.750
         TR   0.807E+28             1481.254      4.968     43.914
         TOT                       15253.8752    94.8767   158.6641   663.8506

       T/K    H(0)-H(T)+PV         H(T)/Eh          T*S/Eh         G(T)/Eh
   ------------------------------------------------------------------------
    298.15    0.243086E-01    0.390397E+00    0.753864E-01    0.315011E+00
   ------------------------------------------------------------------------

         :::::::::::::::::::::::::::::::::::::::::::::::::::::
         ::                  THERMODYNAMIC                  ::
         :::::::::::::::::::::::::::::::::::::::::::::::::::::
         :: total free energy         -81.202771229240 Eh   ::
         ::.................................................::
         :: total energy              -81.517782182660 Eh   ::
         :: zero point energy           0.366088789224 Eh   ::
         :: G(RRHO) w/o ZPVE           -0.051077835804 Eh   ::
         :: G(RRHO) contrib.            0.315010953420 Eh   ::
         :::::::::::::::::::::::::::::::::::::::::::::::::::::

           -------------------------------------------------
          | TOTAL ENERGY              -81.517782182660 Eh   |
          | TOTAL ENTHALPY            -81.127384795947 Eh   |
          | TOTAL FREE ENERGY         -81.202771229240 Eh   |
          | GRADIENT NORM               0.000054027765 Eh/α |
          | HOMO-LUMO GAP               2.376610757065 eV   |
           -------------------------------------------------

 * finished run on 2025/09/09 at 09:05:07.055
