   * xtb version 6.7.1 (edcfbbe) compiled by 'albert@albert-system' on 2024-07-22

   ID    Z sym.   atoms
    1    6 C      1-4, 6-16, 18, 20, 22-32
    2    7 N      5, 17, 21
    3    8 O      19
    4    1 H      33-49

          program call               : xtb data2507/gas/3PCzPFP/3PCzPFP_gas_S0_finalOpt.xtbopt.xyz --gfn 2 --spinpol --tblite --uhf 2 --ohess vtight --parallel 40 --molden --ceasefiles --namespace data2507/gas/3PCzPFP/3PCzPFP_gas_T1_preOpt
 * total energy  :   -81.4144866 Eh     change       -0.3111562E-07 Eh
 * total energy  :   -81.4174103 Eh     change       -0.2923767E-02 Eh
 * total energy  :   -81.4185193 Eh     change       -0.1108998E-02 Eh
 * total energy  :   -81.4187618 Eh     change       -0.2424916E-03 Eh
 * total energy  :   -81.4189289 Eh     change       -0.1671099E-03 Eh
 * total energy  :   -81.4189768 Eh     change       -0.4787794E-04 Eh
 * total energy  :   -81.4190024 Eh     change       -0.2555382E-04 Eh
 * total energy  :   -81.4190152 Eh     change       -0.1280792E-04 Eh
 * total energy  :   -81.4190282 Eh     change       -0.1301909E-04 Eh
 * total energy  :   -81.4190343 Eh     change       -0.6127006E-05 Eh
 * total energy  :   -81.4190621 Eh     change       -0.2466733E-06 Eh
 * total energy  :   -81.4190624 Eh     change       -0.3420788E-06 Eh
 * total energy  :   -81.4190627 Eh     change       -0.2639981E-06 Eh
 * total energy  :   -81.4190629 Eh     change       -0.2012947E-06 Eh
 * total energy  :   -81.4190631 Eh     change       -0.1823831E-06 Eh
 * total energy  :   -81.4190632 Eh     change       -0.1845037E-06 Eh
 * total energy  :   -81.4190634 Eh     change       -0.1748272E-06 Eh
 * total energy  :   -81.4190635 Eh     change       -0.1242334E-06 Eh
 * total energy  :   -81.4190636 Eh     change       -0.7644771E-07 Eh
   *** GEOMETRY OPTIMIZATION CONVERGED AFTER 34 ITERATIONS ***

 final structure:
================
49
 xtb: 6.7.1 (edcfbbe)
C           -6.97302936600208        2.42073434663214        0.76271015025109
C           -6.80373772409520        1.26076661642697        1.50077750398868
C           -5.71667847831418        0.43878355877983        1.26867737069811
C           -4.79217919260811        0.77443283386745        0.28377784748902
N           -3.68880500080527       -0.05774811000872        0.04210568008628
C           -3.74181390816989       -1.42196597520384       -0.18313584841325
C           -4.84305503458738       -2.26022269604955       -0.26622473335692
C           -4.61429885584148       -3.59926084137914       -0.52909215087949
C           -3.32641052630584       -4.09335425142348       -0.71454396674855
C           -2.22693979655854       -3.25676012554172       -0.65649995884609
C           -2.43204417145050       -1.91035900386030       -0.39338052870627
C           -1.55215889832520       -0.77712516328250       -0.28434824658646
C           -0.18156036804492       -0.62725014317036       -0.38133454894380
C            0.37956742605247        0.63709837952259       -0.19956378256756
C            1.82395348096576        0.82677202680658       -0.28268122345922
C            2.31977346958871        1.98300876565214       -0.93913581341564
N            3.63409938111376        2.23940718077172       -1.04774674410754
C            4.47620058913324        1.36782793088386       -0.59791149456691
O            5.81217817903584        1.55797564649453       -0.56148784747882
C            6.33373468202638        0.44078413715312        0.01659371327326
N            7.60030125499363        0.27520412895007        0.22621126811745
C            7.99068027383575       -0.86455802817853        0.83239165738997
C            7.08123664675261       -1.81969493123332        1.27053147221253
C            5.72775903173055       -1.65915921029969        1.05749677528460
C            5.30461480175626       -0.47902475732746        0.39680129062917
C            4.10514111237953        0.10880587033270       -0.00203522115468
C            2.71768523336767       -0.12190328825352        0.17421570940468
C           -0.45551128293604        1.73420832193104        0.07627249589980
C           -1.82228331594309        1.60517504505425        0.18044917238746
C           -2.37693975838240        0.34473630553658       -0.01858218816559
C           -4.96470129597019        1.93809161919879       -0.46023196576846
C           -6.05111856316722        2.75707990558592       -0.21493269034468
H           -7.82150009703249        3.06116959596440        0.94908333315245
H           -7.51754825819798        0.99793899196906        2.26702653651575
H           -5.56769405069794       -0.45410095810767        1.85722240045945
H           -5.84656676098213       -1.88238960610990       -0.14283765385729
H           -5.45443393062634       -4.27407947474034       -0.59577382300415
H           -3.18858521349525       -5.14496956133520       -0.91575241552185
H           -1.23011947058824       -3.63800359980581       -0.81650760741759
H            0.44764070250724       -1.47547006891577       -0.60237257044264
H            1.66715564752671        2.65109119169216       -1.47379267546410
H            9.05472654182758       -0.98479372562983        0.94887110266543
H            7.45579813408898       -2.70449414128459        1.76209358860579
H            5.00767389057693       -2.40470137305578        1.35465041679699
H            2.38636154769509       -1.00244820448665        0.70097531390966
H           -0.00109429204367        2.69952275365008        0.23928636984025
H           -2.44164213719371        2.45531083087301        0.42288922204724
H           -4.25596107428758        2.18370650430329       -1.23689778553273
H           -6.18206571700608        3.65803734052065       -0.79527510393068

 projected vibrational frequencies (cm⁻¹)
eigval :       -0.00    -0.00    -0.00     0.00     0.00     0.00
eigval :       17.12    27.36    33.95    56.08    62.50    64.81
eigval :       89.31   105.89   127.14   136.55   161.43   186.29
eigval :      190.25   222.88   245.76   251.04   260.53   279.31
eigval :      319.42   344.05   361.65   379.27   385.48   394.63
eigval :      404.88   413.22   425.29   431.60   462.10   475.39
eigval :      485.94   510.66   532.81   533.83   540.13   564.37
eigval :      580.97   587.65   592.86   603.36   613.36   617.96
eigval :      640.54   650.64   659.18   665.10   670.74   672.77
eigval :      684.39   707.11   716.93   741.61   754.07   762.67
eigval :      763.73   775.22   801.01   825.54   838.02   866.98
eigval :      868.63   870.57   871.40   882.07   900.73   905.59
eigval :      912.04   916.16   922.15   924.12   933.55   934.10
eigval :      975.06   997.29  1019.34  1056.76  1069.13  1070.54
eigval :     1077.18  1079.69  1117.99  1119.22  1120.75  1146.62
eigval :     1149.14  1160.50  1176.87  1180.46  1181.64  1198.14
eigval :     1199.16  1213.17  1231.22  1235.28  1244.75  1260.26
eigval :     1268.36  1272.53  1280.72  1298.76  1306.41  1317.73
eigval :     1328.40  1349.62  1354.81  1362.55  1382.57  1415.73
eigval :     1424.79  1434.58  1437.90  1454.00  1472.76  1475.54
eigval :     1478.65  1513.98  1538.83  1547.07  1563.80  1575.90
eigval :     1579.10  1587.30  1589.77  1595.42  3082.37  3082.48
eigval :     3083.25  3084.58  3086.49  3087.50  3089.35  3092.70
eigval :     3092.76  3094.05  3096.20  3097.18  3099.08  3101.02
eigval :     3102.48  3105.78  3110.18

   temp. (K)  partition function   enthalpy   heat capacity  entropy
                                   cal/mol     cal/K/mol   cal/K/mol   J/K/mol
 298.15  VIB  0.151E+10            13362.690     89.971     80.308
         ROT  0.292E+08              888.752      2.981     37.142
         INT  0.440E+17            14251.443     92.952    117.450
         TR   0.807E+28             1481.254      4.968     43.914
         TOT                       15732.6965    97.9205   161.3642   675.1480

       T/K    H(0)-H(T)+PV         H(T)/Eh          T*S/Eh         G(T)/Eh
   ------------------------------------------------------------------------
    298.15    0.250716E-01    0.385459E+00    0.766694E-01    0.308789E+00
   ------------------------------------------------------------------------

         :::::::::::::::::::::::::::::::::::::::::::::::::::::
         ::                  THERMODYNAMIC                  ::
         :::::::::::::::::::::::::::::::::::::::::::::::::::::
         :: total free energy         -81.110274324724 Eh   ::
         ::.................................................::
         :: total energy              -81.419063589228 Eh   ::
         :: zero point energy           0.360386975272 Eh   ::
         :: G(RRHO) w/o ZPVE           -0.051597710768 Eh   ::
         :: G(RRHO) contrib.            0.308789264504 Eh   ::
         :::::::::::::::::::::::::::::::::::::::::::::::::::::

           -------------------------------------------------
          | TOTAL ENERGY              -81.419063589228 Eh   |
          | TOTAL ENTHALPY            -81.033604966260 Eh   |
          | TOTAL FREE ENERGY         -81.110274324724 Eh   |
          | GRADIENT NORM               0.000077924182 Eh/α |
           -------------------------------------------------

 * finished run on 2025/09/09 at 09:06:18.507
