   * xtb version 6.7.1 (edcfbbe) compiled by 'albert@albert-system' on 2024-07-22

   ID    Z sym.   atoms
    1    6 C      1-4, 6-16, 18, 20, 22-32
    2    7 N      5, 17, 21
    3    8 O      19
    4    1 H      33-49

          program call               : xtb data2507/gas/3PCzPFP/3PCzPFP_gas_S0_crest.xyz --gfn 2 --ohess vtight --parallel 40 --molden --ceasefiles --namespace data2507/gas/3PCzPFP/3PCzPFP_gas_S0_finalOpt
          :  Hamiltonian                  GFN2-xTB          :
 * total energy  :   -81.5178632 Eh     change       -0.2872184E-08 Eh
 * total energy  :   -81.5178639 Eh     change       -0.6470311E-06 Eh
 * total energy  :   -81.5178647 Eh     change       -0.8110967E-06 Eh
 * total energy  :   -81.5178662 Eh     change       -0.1529410E-05 Eh
 * total energy  :   -81.5178673 Eh     change       -0.1066332E-05 Eh
 * total energy  :   -81.5178679 Eh     change       -0.6081709E-06 Eh
 * total energy  :   -81.5178685 Eh     change       -0.5680750E-06 Eh
 * total energy  :   -81.5178691 Eh     change       -0.6616004E-06 Eh
 * total energy  :   -81.5178697 Eh     change       -0.5965046E-06 Eh
 * total energy  :   -81.5178702 Eh     change       -0.5008302E-06 Eh
 * total energy  :   -81.5178725 Eh     change       -0.3856910E-06 Eh
 * total energy  :   -81.5178727 Eh     change       -0.1736444E-06 Eh
 * total energy  :   -81.5178728 Eh     change       -0.1228298E-06 Eh
 * total energy  :   -81.5178730 Eh     change       -0.1301660E-06 Eh
 * total energy  :   -81.5178731 Eh     change       -0.1454273E-06 Eh
 * total energy  :   -81.5178733 Eh     change       -0.1560876E-06 Eh
 * total energy  :   -81.5178734 Eh     change       -0.1484715E-06 Eh
 * total energy  :   -81.5178736 Eh     change       -0.1441643E-06 Eh
 * total energy  :   -81.5178736 Eh     change       -0.1446381E-08 Eh
   *** GEOMETRY OPTIMIZATION CONVERGED AFTER 22 ITERATIONS ***

 final structure:
================
49
 xtb: 6.7.1 (edcfbbe)
C           -6.97546394022441        2.40494880243220        0.78703083792521
C           -6.79297119335671        1.24466560605830        1.52096442059969
C           -5.70314240733319        0.42950153297824        1.27743050408502
C           -4.79037125488862        0.76963700855109        0.28358503813914
N           -3.68527371625506       -0.05693076985023        0.03003146583942
C           -3.72891070794231       -1.41976458260689       -0.19072933058812
C           -4.82409939753512       -2.26837085677790       -0.26563783082187
C           -4.58770678751644       -3.60409644068979       -0.52800069039526
C           -3.29657119001824       -4.09109050365991       -0.72070449189185
C           -2.20506033802944       -3.24776663668087       -0.67005607783389
C           -2.41730786370719       -1.90063776837765       -0.40798316483936
C           -1.54516929813816       -0.76436126205163       -0.30409378611521
C           -0.17141468479972       -0.60865036444033       -0.39881036691718
C            0.38018625123580        0.65504246942456       -0.23052839572034
C            1.83247223654213        0.84815457108835       -0.33134761211263
C            2.36028599672200        1.97226908485580       -0.98090854137048
N            3.64887626351074        2.23581292259311       -1.11847507054789
C            4.47213141471324        1.35398596265584       -0.59605050874567
O            5.82009277803925        1.48048665192404       -0.64493372237916
C            6.32395607700236        0.39760137829251       -0.01063116527000
N            7.61427289317537        0.19100363740982        0.13272461868702
C            7.94860381509206       -0.91601500587006        0.77958897885025
C            7.03686406092287       -1.83314641728687        1.29349983212544
C            5.67760548642312       -1.61189095652054        1.14017374123264
C            5.30050959893712       -0.46014597538461        0.46688654884546
C            4.07469487857173        0.17367799674324        0.07831638363771
C            2.72004729080375       -0.07962063534830        0.21157963145783
C           -0.45352297209461        1.74688346539982        0.05051209248149
C           -1.82175972317016        1.61226788439382        0.15754683231123
C           -2.37164446174172        0.35261427506617       -0.03854152063874
C           -4.97731562738503        1.93306662376010       -0.45667373146433
C           -6.06467721806984        2.74711930188038       -0.19864718886545
H           -7.82537480105133        3.04095005766011        0.98282418202486
H           -7.49841082062617        0.97645626845733        2.29337907445832
H           -5.54504972117374       -0.46455106384506        1.86198373705593
H           -5.82954494090544       -1.89759500142399       -0.13531018858724
H           -5.42328715353731       -4.28557966446277       -0.58900787455177
H           -3.15397272230565       -5.14237404547873       -0.92163093776009
H           -1.20599518428130       -3.62182682919759       -0.83585501029315
H            0.45718097307423       -1.45768913762480       -0.62167088149451
H            1.70026243616344        2.69875276446902       -1.43386882539195
H            9.01236592782572       -1.07252124706002        0.89014173180616
H            7.39400888692000       -2.71088729746318        1.80853127555490
H            4.94317081127370       -2.30281471285105        1.52708642189898
H            2.36180080784314       -0.95347440695207        0.73565858948556
H           -0.00530432745372        2.71536968808077        0.21419265203462
H           -2.44189816737665        2.46178551999259        0.40025428906993
H           -4.27682205004650        2.18462139079440       -1.23897963683441
H           -6.20552164882863        3.64882227844243       -0.77591223737646

          :  Hamiltonian                  GFN2-xTB          :
         :: gradient norm              0.000026092185 Eh/a0 ::
         :: HOMO-LUMO gap              2.387471307921 eV    ::
         :: SCC energy               -82.956175122261 Eh    ::
         :: -> dispersion             -0.064136011082 Eh    ::
         :: repulsion energy           1.438301560733 Eh    ::

    * Orbital Energies and Occupations

         #    Occupation            Energy/Eh            Energy/eV
      -------------------------------------------------------------
         1        2.0000           -0.7488435             -20.3771
       ...           ...                  ...                  ...
        63        2.0000           -0.4359476             -11.8627
        64        2.0000           -0.4293486             -11.6832
        65        2.0000           -0.4249695             -11.5640
        66        2.0000           -0.4245757             -11.5533
        67        2.0000           -0.4199934             -11.4286
        68        2.0000           -0.4188248             -11.3968
        69        2.0000           -0.4153519             -11.3023
        70        2.0000           -0.4082931             -11.1102
        71        2.0000           -0.4011559             -10.9160
        72        2.0000           -0.3846839             -10.4678
        73        2.0000           -0.3825541             -10.4098
        74        2.0000           -0.3802671             -10.3476
        75        2.0000           -0.3662279              -9.9656 (HOMO)
        76                         -0.2784900              -7.5781 (LUMO)
        77                         -0.2603114              -7.0834
        78                         -0.2519926              -6.8571
        79                         -0.2417776              -6.5791
        80                         -0.2376904              -6.4679
        81                         -0.2367826              -6.4432
        82                         -0.2221895              -6.0461
        83                         -0.2146383              -5.8406
        84                         -0.1930887              -5.2542
        85                         -0.1855668              -5.0495
        86                         -0.1256220              -3.4183
       ...                                ...                  ...
       145                          0.7454752              20.2854
      -------------------------------------------------------------
                  HL-Gap            0.0877380 Eh            2.3875 eV

     #   Z          covCN         q      C6AA      α(0)
     1   6 C        2.919    -0.032    28.805     8.801
     2   6 C        2.920    -0.028    28.688     8.783
     3   6 C        2.922    -0.042    29.040     8.837
     4   6 C        2.913     0.064    26.561     8.451
     5   7 N        2.803    -0.041    22.039     6.972
     6   6 C        3.078     0.047    26.860     8.497
     7   6 C        2.910    -0.050    29.240     8.867
     8   6 C        2.924    -0.032    28.810     8.802
     9   6 C        2.920    -0.040    28.997     8.830
    10   6 C        2.912    -0.032    28.805     8.801
    11   6 C        3.068    -0.017    28.360     8.732
    12   6 C        3.066    -0.017    28.356     8.732
    13   6 C        2.918    -0.037    28.921     8.819
    14   6 C        2.977    -0.003    28.088     8.693
    15   6 C        2.976    -0.005    28.132     8.700
    16   6 C        2.942     0.052    26.825     8.494
    17   7 N        1.830    -0.235    27.001     7.700
    18   6 C        3.135     0.214    23.295     7.900
    19   8 O        1.715    -0.200    17.338     5.622
    20   6 C        3.133     0.218    23.231     7.890
    21   7 N        1.831    -0.233    26.954     7.693
    22   6 C        2.938     0.058    26.706     8.475
    23   6 C        2.919    -0.048    29.202     8.862
    24   6 C        2.919    -0.016    28.413     8.741
    25   6 C        3.057    -0.032    28.741     8.792
    26   6 C        3.051    -0.034    28.791     8.800
    27   6 C        2.923    -0.024    28.597     8.770
    28   6 C        2.928    -0.039    28.961     8.826
    29   6 C        2.908    -0.050    29.237     8.866
    30   6 C        3.077     0.047    26.864     8.498
    31   6 C        2.922    -0.042    29.043     8.838
    32   6 C        2.920    -0.027    28.686     8.783
    33   1 H        0.926     0.037     2.492     2.468
    34   1 H        0.926     0.037     2.482     2.464
    35   1 H        0.926     0.041     2.434     2.440
    36   1 H        0.926     0.029     2.599     2.521
    37   1 H        0.926     0.031     2.573     2.508
    38   1 H        0.926     0.030     2.590     2.517
    39   1 H        0.926     0.031     2.571     2.508
    40   1 H        0.926     0.033     2.538     2.491
    41   1 H        0.926     0.054     2.273     2.358
    42   1 H        0.926     0.054     2.276     2.359
    43   1 H        0.926     0.045     2.383     2.414
    44   1 H        0.926     0.044     2.399     2.422
    45   1 H        0.926     0.044     2.398     2.422
    46   1 H        0.926     0.034     2.526     2.485
    47   1 H        0.926     0.032     2.554     2.499
    48   1 H        0.926     0.041     2.432     2.439
    49   1 H        0.926     0.038     2.477     2.461

molecular dipole:
                 x           y           z       tot (Debye)
 q only:       -1.606      -0.631       0.613
   full:       -1.974      -1.085       0.914       6.178

 projected vibrational frequencies (cm⁻¹)
eigval :       -0.00    -0.00    -0.00    -0.00     0.00     0.00
eigval :       17.24    28.67    35.31    56.27    62.06    65.68
eigval :       94.65   107.96   130.39   135.15   167.88   187.71
eigval :      200.34   226.16   255.91   261.58   282.87   286.65
eigval :      328.51   363.34   380.32   387.60   397.53   405.99
eigval :      415.84   427.33   435.36   444.51   473.70   482.40
eigval :      528.45   535.81   539.29   546.60   574.05   576.20
eigval :      590.87   594.97   608.76   614.07   629.27   632.33
eigval :      667.97   681.59   682.41   708.46   724.69   728.78
eigval :      737.95   763.77   775.65   776.28   798.07   819.50
eigval :      825.33   855.57   866.45   870.22   876.33   881.49
eigval :      883.06   899.71   902.31   905.33   905.98   914.96
eigval :      915.56   918.42   922.79   930.01   933.74   934.55
eigval :      998.40  1013.38  1034.05  1071.45  1076.24  1080.57
eigval :     1087.84  1118.10  1122.97  1132.88  1156.72  1177.89
eigval :     1179.99  1181.13  1184.21  1187.10  1201.15  1219.91
eigval :     1239.89  1246.09  1253.97  1267.31  1272.86  1275.08
eigval :     1290.91  1306.87  1317.98  1319.31  1335.38  1351.40
eigval :     1360.04  1362.29  1367.88  1378.75  1420.23  1432.45
eigval :     1436.32  1450.31  1471.56  1482.54  1484.60  1490.12
eigval :     1553.08  1566.24  1575.29  1578.83  1583.33  1584.66
eigval :     1596.07  1597.63  1612.47  1617.08  3073.14  3074.69
eigval :     3077.95  3078.56  3080.23  3080.81  3082.00  3082.77
eigval :     3084.33  3087.29  3090.21  3091.35  3094.49  3095.98
eigval :     3097.23  3100.27  3102.63

   temp. (K)  partition function   enthalpy   heat capacity  entropy
                                   cal/mol     cal/K/mol   cal/K/mol   J/K/mol
 298.15  VIB  0.780E+09            12880.644     86.905     77.562
         ROT  0.291E+08              888.752      2.981     37.136
         INT  0.227E+17            13769.396     89.886    114.698
         TR   0.807E+28             1481.254      4.968     43.914
         TOT                       15250.6499    94.8542   158.6126   663.6351

       T/K    H(0)-H(T)+PV         H(T)/Eh          T*S/Eh         G(T)/Eh
   ------------------------------------------------------------------------
    298.15    0.243035E-01    0.390403E+00    0.753620E-01    0.315041E+00
   ------------------------------------------------------------------------

         :::::::::::::::::::::::::::::::::::::::::::::::::::::
         ::                  THERMODYNAMIC                  ::
         :::::::::::::::::::::::::::::::::::::::::::::::::::::
         :: total free energy         -81.202832275213 Eh   ::
         ::.................................................::
         :: total energy              -81.517873561527 Eh   ::
         :: zero point energy           0.366099788163 Eh   ::
         :: G(RRHO) w/o ZPVE           -0.051058501848 Eh   ::
         :: G(RRHO) contrib.            0.315041286315 Eh   ::
         :::::::::::::::::::::::::::::::::::::::::::::::::::::

           -------------------------------------------------
          | TOTAL ENERGY              -81.517873561527 Eh   |
          | TOTAL ENTHALPY            -81.127470315729 Eh   |
          | TOTAL FREE ENERGY         -81.202832275213 Eh   |
          | GRADIENT NORM               0.000026092538 Eh/α |
          | HOMO-LUMO GAP               2.387471534073 eV   |
           -------------------------------------------------

 * finished run on 2025/09/09 at 09:06:14.005
