   * xtb version 6.7.1 (edcfbbe) compiled by 'albert@albert-system' on 2024-07-22

   ID    Z sym.   atoms
    1    6 C      1-4, 6-16, 18, 20, 22-32
    2    7 N      5, 17, 21
    3    8 O      19
    4    1 H      33-49

          program call               : xtb data2507/gas/3PCzPFP/3PCzPFP_gas_T1_crest.xyz --gfn 2 --spinpol --tblite --uhf 2 --ohess vtight --parallel 40 --molden --ceasefiles --namespace data2507/gas/3PCzPFP/3PCzPFP_gas_T1_finalOpt
 * total energy  :   -81.4187770 Eh     change       -0.6637038E-09 Eh
 * total energy  :   -81.4189180 Eh     change       -0.1410652E-03 Eh
 * total energy  :   -81.4190406 Eh     change       -0.1225524E-03 Eh
 * total energy  :   -81.4190586 Eh     change       -0.1797488E-04 Eh
 * total energy  :   -81.4190776 Eh     change       -0.1899444E-04 Eh
 * total energy  :   -81.4190819 Eh     change       -0.4344195E-05 Eh
 * total energy  :   -81.4190870 Eh     change       -0.5114993E-05 Eh
 * total energy  :   -81.4190892 Eh     change       -0.2187099E-05 Eh
 * total energy  :   -81.4190914 Eh     change       -0.2204594E-05 Eh
 * total energy  :   -81.4190926 Eh     change       -0.1152509E-05 Eh
 * total energy  :   -81.4190955 Eh     change       -0.5566900E-06 Eh
 * total energy  :   -81.4190959 Eh     change       -0.4625719E-06 Eh
 * total energy  :   -81.4190964 Eh     change       -0.4659073E-06 Eh
 * total energy  :   -81.4190968 Eh     change       -0.4270332E-06 Eh
 * total energy  :   -81.4190971 Eh     change       -0.3226223E-06 Eh
 * total energy  :   -81.4190974 Eh     change       -0.2436200E-06 Eh
 * total energy  :   -81.4190975 Eh     change       -0.1457925E-06 Eh
 * total energy  :   -81.4190977 Eh     change       -0.1991590E-06 Eh
 * total energy  :   -81.4190977 Eh     change       -0.1810633E-08 Eh
   *** GEOMETRY OPTIMIZATION CONVERGED AFTER 22 ITERATIONS ***

 final structure:
================
49
 xtb: 6.7.1 (edcfbbe)
C           -6.25728803556869        3.46076864874364       -0.23337327319659
C           -6.33345082457127        2.60035793246078        0.84962102373692
C           -5.47931252339553        1.51720767446554        0.94132215380793
C           -4.54367930060844        1.28567216533935       -0.06293908200609
N           -3.67782092188092        0.18525856239197        0.02333160754172
C           -4.06014660050547       -1.12438676776241        0.25521645518833
C           -5.33031250440204       -1.65830765295438        0.41035760135975
C           -5.43457587364333       -3.02363381447735        0.60872585598829
C           -4.30835529352290       -3.84085446258031        0.64291669557014
C           -3.04148530393418       -3.31639456793934        0.46393402708061
C           -2.91273753235119       -1.94986015308386        0.26383946186051
C           -1.78731169704092       -1.08592363701521        0.02445191546715
C           -0.42656781258324       -1.30604376549928       -0.07344168676918
C            0.42551956188594       -0.22192735857548       -0.28852966043005
C            1.86677448786896       -0.43040842393341       -0.37723238973505
C            2.34407746315640       -1.57318017051325       -1.07098124841185
N            3.65408978107260       -1.84719883590521       -1.18798798758552
C            4.51025033285403       -1.00471462499932       -0.71035902130767
O            5.84306958824576       -1.21683036015950       -0.68170103713915
C            6.38268005016310       -0.12690827351566       -0.06903388855189
N            7.65208845566599        0.01242082723088        0.14285680004522
C            8.06095402481031        1.12659114982141        0.78341106146482
C            7.16727087987212        2.08165826260353        1.25267068803105
C            5.81097587292478        1.94855807978061        1.03785791953766
C            5.36863504986928        0.79612503871945        0.34213417227791
C            4.15957947612628        0.23997921380164       -0.07318843476106
C            2.77631929619238        0.48666472452614        0.11186288958157
C           -0.11431518533014        1.07062149615097       -0.40990798171430
C           -1.46751262623398        1.30988811795435       -0.32192607224561
C           -2.31214245555875        0.22310177767213       -0.11925274447591
C           -4.46979310015102        2.14854288482828       -1.15268942960854
C           -5.32338994920208        3.23321366778974       -1.23081770955891
H           -6.92427146453507        4.30665293904443       -0.29986756362327
H           -7.05668554407860        2.77734033101389        1.63151382239181
H           -5.51899698151293        0.85719726227705        1.79491134139273
H           -6.21048073274113       -1.03512087885791        0.36575208158404
H           -6.41197778524367       -3.46438088902583        0.73558187864516
H           -4.43073503433623       -4.90144816038415        0.80252024788960
H           -2.17001911490798       -3.95271880900100        0.47509234860490
H           -0.02174143340805       -2.29931322904259        0.04379529970951
H            1.68161107396693       -2.21252493727620       -1.62801210449944
H            9.12692121171446        1.22654693996465        0.90165592118043
H            7.55620554280920        2.94501252390772        1.77050799414858
H            5.10301496121602        2.69566447348206        1.35927813543494
H            2.46015755340950        1.35382509201478        0.66938255517450
H            0.55658036460380        1.89756129598440       -0.58542032913514
H           -1.85791004827869        2.31336419838383       -0.39868396099071
H           -3.75625871078653        1.95340192893903       -1.93924599466765
H           -5.26397670611507        3.89906393360870       -2.07865329698206

 projected vibrational frequencies (cm⁻¹)
eigval :       -0.00    -0.00    -0.00    -0.00    -0.00     0.00
eigval :       20.66    23.00    34.24    57.44    62.97    68.87
eigval :       86.67   113.45   120.81   134.14   160.98   174.25
eigval :      194.50   228.83   240.76   246.82   265.49   278.21
eigval :      325.93   344.73   360.28   379.66   384.11   393.52
eigval :      409.62   411.82   426.96   435.76   464.38   476.51
eigval :      483.55   505.97   519.77   538.59   545.12   567.60
eigval :      580.39   588.41   590.89   603.88   614.17   616.17
eigval :      640.34   650.29   658.80   665.06   671.07   672.58
eigval :      684.55   706.87   717.04   745.37   749.21   763.06
eigval :      763.70   775.35   802.92   825.68   838.05   868.51
eigval :      869.26   870.82   871.82   882.30   901.43   906.44
eigval :      910.48   915.75   922.26   923.81   933.55   934.08
eigval :      976.12   997.11  1020.04  1054.05  1068.12  1070.31
eigval :     1076.96  1079.67  1117.73  1118.04  1120.08  1144.39
eigval :     1151.85  1161.14  1176.68  1180.47  1181.70  1194.81
eigval :     1199.32  1210.80  1228.45  1239.04  1244.57  1260.50
eigval :     1268.21  1273.24  1285.29  1297.74  1306.45  1317.74
eigval :     1329.06  1347.99  1356.10  1362.65  1382.48  1418.16
eigval :     1423.72  1434.33  1437.91  1446.02  1474.81  1476.76
eigval :     1478.44  1514.42  1539.40  1546.28  1562.62  1575.76
eigval :     1578.73  1587.01  1589.87  1594.85  3082.36  3082.49
eigval :     3083.15  3084.41  3085.70  3087.85  3088.87  3092.57
eigval :     3092.70  3094.32  3096.17  3097.23  3099.39  3101.38
eigval :     3102.40  3105.64  3111.17

   temp. (K)  partition function   enthalpy   heat capacity  entropy
                                   cal/mol     cal/K/mol   cal/K/mol   J/K/mol
 298.15  VIB  0.141E+10            13362.290     90.015     80.269
         ROT  0.302E+08              888.752      2.981     37.210
         INT  0.428E+17            14251.042     92.996    117.479
         TR   0.807E+28             1481.254      4.968     43.914
         TOT                       15732.2963    97.9645   161.3931   675.2688

       T/K    H(0)-H(T)+PV         H(T)/Eh          T*S/Eh         G(T)/Eh
   ------------------------------------------------------------------------
    298.15    0.250710E-01    0.385446E+00    0.766831E-01    0.308763E+00
   ------------------------------------------------------------------------

         :::::::::::::::::::::::::::::::::::::::::::::::::::::
         ::                  THERMODYNAMIC                  ::
         :::::::::::::::::::::::::::::::::::::::::::::::::::::
         :: total free energy         -81.110335178164 Eh   ::
         ::.................................................::
         :: total energy              -81.419097699675 Eh   ::
         :: zero point energy           0.360374590846 Eh   ::
         :: G(RRHO) w/o ZPVE           -0.051612069335 Eh   ::
         :: G(RRHO) contrib.            0.308762521512 Eh   ::
         :::::::::::::::::::::::::::::::::::::::::::::::::::::

           -------------------------------------------------
          | TOTAL ENERGY              -81.419097699675 Eh   |
          | TOTAL ENTHALPY            -81.033652098810 Eh   |
          | TOTAL FREE ENERGY         -81.110335178164 Eh   |
          | GRADIENT NORM               0.000067225200 Eh/α |
           -------------------------------------------------

 * finished run on 2025/09/09 at 09:08:14.071
