   * xtb version 6.7.1 (edcfbbe) compiled by 'albert@albert-system' on 2024-07-22

   ID    Z sym.   atoms
    1    6 C      1-9, 11-14, 16-19, 21-45
    2    7 N      10, 15, 20
    3    1 H      46-80

          program call               : xtb data2507/gas/DMAC-Cz/DMAC-Cz_gas_T1_crest.xyz --gfn 2 --spinpol --tblite --uhf 2 --ohess vtight --parallel 40 --molden --ceasefiles --namespace data2507/gas/DMAC-Cz/DMAC-Cz_gas_T1_finalOpt
 * total energy  :  -116.5610519 Eh     change        0.3998200E-07 Eh
 * total energy  :  -116.5610768 Eh     change       -0.2488202E-04 Eh
 * total energy  :  -116.5610871 Eh     change       -0.1030592E-04 Eh
 * total energy  :  -116.5610887 Eh     change       -0.1636973E-05 Eh
 * total energy  :  -116.5610902 Eh     change       -0.1448443E-05 Eh
 * total energy  :  -116.5610912 Eh     change       -0.1040235E-05 Eh
 * total energy  :  -116.5610924 Eh     change       -0.1163876E-05 Eh
 * total energy  :  -116.5610936 Eh     change       -0.1213178E-05 Eh
 * total energy  :  -116.5610949 Eh     change       -0.1288287E-05 Eh
 * total energy  :  -116.5610959 Eh     change       -0.1036954E-05 Eh
 * total energy  :  -116.5611023 Eh     change       -0.6050037E-06 Eh
 * total energy  :  -116.5611030 Eh     change       -0.7099662E-06 Eh
 * total energy  :  -116.5611038 Eh     change       -0.8063684E-06 Eh
 * total energy  :  -116.5611045 Eh     change       -0.6690390E-06 Eh
 * total energy  :  -116.5611047 Eh     change       -0.1964061E-06 Eh
 * total energy  :  -116.5611051 Eh     change       -0.3887392E-06 Eh
 * total energy  :  -116.5611049 Eh     change        0.2379594E-06 Eh
 * total energy  :  -116.5611054 Eh     change       -0.5326029E-06 Eh
 * total energy  :  -116.5611055 Eh     change       -0.6725328E-07 Eh
   *** GEOMETRY OPTIMIZATION CONVERGED AFTER 26 ITERATIONS ***

 final structure:
================
80
 xtb: 6.7.1 (edcfbbe)
C           -7.56258976766592        1.53451726475973        0.60724688884724
C           -6.12949991609285        1.38418525197355        1.15159955658241
C           -5.96922260739937        2.18422725582200        2.45818928264376
C           -5.86841119994790       -0.07700628633671        1.44960403860014
C           -6.65609170519044       -0.73553302830349        2.38417518534259
C           -6.43319042498379       -2.05487300812547        2.73152628243073
C           -5.37302695628598       -2.73817704367532        2.15621655574321
C           -4.57714512161586       -2.11123521432899        1.22442394738307
C           -4.82982127596637       -0.78916303332633        0.83089455396229
N           -4.02907699102602       -0.19694666485999       -0.12573450333222
C           -3.02424394030279       -0.97175967104160       -0.76418037867935
C           -3.41648998902729       -2.01795894996366       -1.59810702768031
C           -2.44546396281656       -2.79649935358886       -2.25852971201602
C           -1.12280930849352       -2.50282150574457       -2.02748219716883
N            0.00382359541116       -3.10315797665111       -2.53185457563279
C            1.12882782428454       -2.49074560418275       -2.03929863486524
C            2.45225327100939       -2.76973154746754       -2.28423674574950
C            3.42127031513673       -1.98309589056950       -1.63121008083335
C            3.02638373173556       -0.94375437845488       -0.78910998287069
N            4.02989173618067       -0.16561723082578       -0.15337284868907
C            4.84684093092996       -0.76154264669378        0.78744228528206
C            4.60857366399552       -2.08931069927121        1.17112378861464
C            5.42164060126975       -2.72020973528326        2.08518623248086
C            6.48516831091499       -2.03549273245416        2.65275614221674
C            6.69335677176868       -0.71074805564073        2.31690962973848
C            5.88791853301122       -0.04804897906085        1.40059280671747
C            6.13302346578731        1.41855136825098        1.11630830674847
C            7.55618618638966        1.58682271941918        0.55146891433387
C            5.98703050285251        2.20134903950583        2.43497050085160
C            5.14882191421412        1.96948089284018        0.10624646739446
C            5.22951104377792        3.30414382936408       -0.26687519430060
C            4.38909429975254        3.85204061825663       -1.21813356942354
C            3.45560475489079        3.04185615421627       -1.84561231107451
C            3.35458399755300        1.71386038905839       -1.49769465813932
C            4.17047753349207        1.16449266568920       -0.49779345722911
C            1.68886889361038       -0.64359462499379       -0.54361591208182
C            0.70600585916934       -1.43769249337998       -1.16738324003070
C           -0.70249031968021       -1.44503050069942       -1.16058482878901
C           -1.68746076477978       -0.65844649802503       -0.53053984951443
C           -4.18697693596202        1.12699025640341       -0.48573494344186
C           -3.38881573831040        1.67054775560793       -1.50285679473264
C           -3.50787207704113        2.99248083097786       -1.86795650233645
C           -4.44175936520540        3.80176837797031       -1.24015734814993
C           -5.26411297979656        3.25904442850631       -0.27037246985134
C           -5.16523857330401        1.93050437710294        0.11998505411879
H           -8.28970561575408        1.16185942832567        1.32326964223270
H           -7.66820137884942        0.96879229944176       -0.31653212683779
H           -7.79144443173300        2.57600454322366        0.39957039217645
H           -6.66060696580709        1.83005459264022        3.21753982539792
H           -4.95531243451782        2.07235352639690        2.83761707775154
H           -6.15890048822500        3.24081407365585        2.29141059636993
H           -7.46792025863143       -0.20732251332400        2.86093690936376
H           -7.06879270347206       -2.53878099364797        3.45729921855308
H           -5.16297453497218       -3.75854341852372        2.43934987234230
H           -3.74285247489056       -2.63925140182840        0.79166121486836
H           -4.46557931278671       -2.21017344705048       -1.75611920633800
H           -2.74381716521237       -3.58280840858710       -2.93474886005694
H            0.00524740653300       -3.89227678107231       -3.15671084730661
H            2.75210078257265       -3.55157681775049       -2.96496707394921
H            4.47073648109036       -2.16393266951995       -1.79973803798552
H            3.77183091557360       -2.61881814983935        0.74505094863360
H            5.22230584296650       -3.74477438509927        2.36077265707498
H            7.13438732933532       -2.52251155358472        3.36423763300648
H            7.50784287295059       -0.18165257381794        2.78810375523949
H            7.77362015923720        2.63257403767507        0.35310418307676
H            7.65164675029016        1.03328209727010       -0.38076537600809
H            8.29723004656077        1.21112235078060        1.25145473097646
H            4.97991573535944        2.07730121338414        2.82846511553682
H            6.16656318103024        3.26126112193371        2.27853611836912
H            6.69255377971790        1.84309566356784        3.17922912527199
H            5.97098535735924        3.93995436706662        0.19279463251002
H            4.47486419212866        4.89554525691813       -1.48013887477259
H            2.81129956284288        3.44384664510398       -2.61283761978670
H            2.64049345942291        1.08319825132348       -2.00206244207989
H            1.41950921415987        0.15158561481958        0.13288004657886
H           -1.42010934507059        0.14251965020248        0.13987476899659
H           -2.67431002489512        1.04018174468017       -2.00699083692582
H           -2.87727433886145        3.39015661589850       -2.64870935267273
H           -4.54165036129484        4.84053075225219       -1.51569993731513
H           -6.00570280739995        3.89397312340803        0.19034451149368

 projected vibrational frequencies (cm⁻¹)
eigval :       -0.00    -0.00    -0.00     0.00     0.00     0.00
eigval :       10.87    12.28    13.34    19.47    31.13    39.86
eigval :       57.12    59.99    88.55    92.34    93.80   103.10
eigval :      117.34   124.12   127.57   130.42   130.55   168.63
eigval :      173.38   191.73   191.79   203.23   217.32   217.96
eigval :      219.94   224.27   238.66   242.30   247.12   302.04
eigval :      305.00   327.13   328.38   331.81   340.57   342.72
eigval :      349.53   350.13   353.63   375.06   380.94   383.62
eigval :      394.99   396.62   411.17   414.94   415.51   447.86
eigval :      452.04   475.55   483.93   491.39   505.56   506.12
eigval :      514.24   514.64   527.37   536.54   542.25   543.21
eigval :      543.64   556.99   582.14   584.59   587.95   605.11
eigval :      611.81   623.47   626.21   652.99   654.52   660.81
eigval :      665.77   682.68   683.91   697.26   697.50   710.98
eigval :      727.81   737.35   739.69   748.91   758.95   772.78
eigval :      773.17   773.57   775.17   790.17   791.34   798.41
eigval :      825.00   825.27   839.54   841.62   865.65   866.02
eigval :      866.39   866.74   908.68   910.48   911.26   911.61
eigval :      911.87   912.05   917.72   917.96   918.09   918.29
eigval :      919.87   934.62   936.53   957.40   957.41   978.38
eigval :     1008.12  1013.56  1013.59  1035.86  1072.29  1074.52
eigval :     1076.44  1077.59  1088.69  1103.55  1112.83  1114.37
eigval :     1114.91  1129.86  1137.97  1139.15  1141.84  1150.49
eigval :     1153.84  1153.96  1159.34  1180.92  1182.44  1183.18
eigval :     1184.30  1184.50  1189.31  1192.28  1216.03  1228.55
eigval :     1229.81  1239.04  1242.62  1244.74  1251.24  1251.84
eigval :     1264.34  1282.23  1294.89  1295.18  1297.25  1300.03
eigval :     1316.78  1317.83  1332.73  1333.09  1337.15  1337.50
eigval :     1363.09  1376.33  1397.44  1399.79  1401.22  1401.30
eigval :     1417.06  1418.33  1418.39  1423.42  1423.93  1428.17
eigval :     1439.40  1448.58  1457.59  1458.10  1464.00  1472.56
eigval :     1488.08  1488.12  1489.14  1489.16  1495.12  1498.38
eigval :     1499.00  1500.39  1502.07  1502.15  1520.38  1521.71
eigval :     1525.83  1529.06  1536.68  1540.66  1561.59  1562.85
eigval :     1570.71  3028.16  3028.22  3029.87  3029.93  3040.81
eigval :     3040.84  3043.21  3043.29  3048.94  3048.95  3052.66
eigval :     3052.94  3079.99  3080.08  3080.12  3080.15  3080.27
eigval :     3081.31  3085.60  3085.70  3085.78  3086.05  3094.59
eigval :     3095.41  3095.97  3096.09  3097.06  3098.30  3100.28
eigval :     3101.25  3110.86  3111.62  3111.78  3112.38  3467.54

   temp. (K)  partition function   enthalpy   heat capacity  entropy
                                   cal/mol     cal/K/mol   cal/K/mol   J/K/mol
 298.15  VIB  0.175E+17            22116.757    144.226    134.743
         ROT  0.722E+08              888.752      2.981     38.942
         INT  0.126E+25            23005.509    147.206    173.685
         TR   0.136E+29             1481.254      4.968     44.946
         TOT                       24486.7632   152.1746   218.6309   914.7518

       T/K    H(0)-H(T)+PV         H(T)/Eh          T*S/Eh         G(T)/Eh
   ------------------------------------------------------------------------
    298.15    0.390221E-01    0.673458E+00    0.103879E+00    0.569579E+00
   ------------------------------------------------------------------------

         :::::::::::::::::::::::::::::::::::::::::::::::::::::
         ::                  THERMODYNAMIC                  ::
         :::::::::::::::::::::::::::::::::::::::::::::::::::::
         :: total free energy        -115.991526415320 Eh   ::
         ::.................................................::
         :: total energy             -116.561105536376 Eh   ::
         :: zero point energy           0.634435590958 Eh   ::
         :: G(RRHO) w/o ZPVE           -0.064856469902 Eh   ::
         :: G(RRHO) contrib.            0.569579121055 Eh   ::
         :::::::::::::::::::::::::::::::::::::::::::::::::::::

           -------------------------------------------------
          | TOTAL ENERGY             -116.561105536376 Eh   |
          | TOTAL ENTHALPY           -115.887647804376 Eh   |
          | TOTAL FREE ENERGY        -115.991526415320 Eh   |
          | GRADIENT NORM               0.000118878765 Eh/α |
           -------------------------------------------------

 * finished run on 2025/09/13 at 16:13:16.684
