   * xtb version 6.7.1 (edcfbbe) compiled by 'albert@albert-system' on 2024-07-22

   ID    Z sym.   atoms
    1    6 C      1-9, 11-14, 16-19, 21-45
    2    7 N      10, 15, 20
    3    1 H      46-80

          program call               : xtb data2507/gas/DMAC-Cz/DMAC-Cz_gas_S0_finalOpt.xtbopt.xyz --gfn 2 --spinpol --tblite --uhf 2 --ohess vtight --parallel 40 --molden --ceasefiles --namespace data2507/gas/DMAC-Cz/DMAC-Cz_gas_T1_preOpt
 * total energy  :  -116.5550770 Eh     change       -0.7747202E-07 Eh
 * total energy  :  -116.5577258 Eh     change       -0.2648779E-02 Eh
 * total energy  :  -116.5583565 Eh     change       -0.6306392E-03 Eh
 * total energy  :  -116.5584414 Eh     change       -0.8490515E-04 Eh
 * total energy  :  -116.5585319 Eh     change       -0.9053172E-04 Eh
 * total energy  :  -116.5586140 Eh     change       -0.8210375E-04 Eh
 * total energy  :  -116.5587124 Eh     change       -0.9840664E-04 Eh
 * total energy  :  -116.5588258 Eh     change       -0.1134275E-03 Eh
 * total energy  :  -116.5589520 Eh     change       -0.1261233E-03 Eh
 * total energy  :  -116.5590335 Eh     change       -0.8157090E-04 Eh
 * total energy  :  -116.5610224 Eh     change       -0.2308485E-05 Eh
 * total energy  :  -116.5610247 Eh     change       -0.2290676E-05 Eh
 * total energy  :  -116.5610269 Eh     change       -0.2210351E-05 Eh
 * total energy  :  -116.5610290 Eh     change       -0.2115289E-05 Eh
 * total energy  :  -116.5610310 Eh     change       -0.2001148E-05 Eh
 * total energy  :  -116.5610329 Eh     change       -0.1857945E-05 Eh
 * total energy  :  -116.5610345 Eh     change       -0.1627839E-05 Eh
 * total energy  :  -116.5610345 Eh     change        0.4732202E-07 Eh
 * total energy  :  -116.5610345 Eh     change       -0.4772595E-07 Eh
   *** GEOMETRY OPTIMIZATION CONVERGED AFTER 123 ITERATIONS ***

 final structure:
================
80
 xtb: 6.7.1 (edcfbbe)
C           -5.94752633948136        0.85899405909098        3.17684267830874
C           -6.12749731911747        0.70919140376028        1.65426918154414
C           -7.57693439516887        1.04299685709310        1.25386423795583
C           -5.19969437780317        1.67934646520415        0.95378909239172
C           -5.33277499578170        3.04126750189678        1.18676355294080
C           -4.54092925052012        3.97580910742243        0.54554713600868
C           -3.60143314611316        3.54900882302018       -0.38017341371647
C           -3.44893283612531        2.20467407537459       -0.63359579671794
C           -4.21927724762169        1.24980872604540        0.04590282570627
N           -4.03247615860838       -0.09192217020889       -0.21881936339344
C           -3.02794975715637       -0.48286309317617       -1.14490319104928
C           -3.42243174966884       -1.04086290705270       -2.35995684782626
C           -2.45276925990924       -1.43917522096781       -3.30143582415487
C           -1.12975542916789       -1.28685704576685       -2.96180261848820
N           -0.00419008249384       -1.61200879032168       -3.67711272140093
C            1.12184401843723       -1.30450691811893       -2.95527354961577
C            2.44442844812441       -1.47782848543015       -3.28668852563349
C            3.41424921155172       -1.09467583519693       -2.33953311813563
C            3.02121300981114       -0.52980365751847       -1.12671046726020
N            4.02728374185279       -0.15419923137511       -0.19629244707158
C            4.78121845168336       -1.14022053028290        0.40833103710943
C            4.47561697216270       -2.48844176101640        0.17199072743083
C            5.22175971726864       -3.49483776279802        0.74198135456791
C            6.28391926985510       -3.18042059102270        1.57582993967084
C            6.55987529406191       -1.85374060905096        1.84972796901183
C            5.82308417313831       -0.81800251528069        1.29136129501441
C            6.14212854448314        0.61298210059112        1.66886063290752
C            7.59280042441471        0.92554449808241        1.25583528837269
C            5.97798447540911        0.76404283540884        3.19307495101080
C            5.22318702590758        1.59752152480058        0.97680344014436
C            5.37596047607889        2.95674071543684        1.21328998242533
C            4.59421670558052        3.90411631385873        0.57851480648213
C            3.64538919276973        3.49309482461930       -0.34491578278396
C            3.47369800074712        2.15184525423659       -0.60213314883557
C            4.23324899765237        1.18421188152601        0.07151166448924
C            1.68568880315378       -0.33096399666057       -0.78789389572797
C            0.70088099815926       -0.74220089932030       -1.70847563687914
C           -0.70760291240705       -0.73135503751955       -1.71265808206725
C           -1.69138140194470       -0.30471279816608       -0.79800507634630
C           -4.80012580461787       -1.06580157863692        0.38813491456085
C           -4.51817761002845       -2.41872112376803        0.14972139656820
C           -5.27785385555608       -3.41292960887953        0.72327845102809
C           -6.33010890793577       -3.08144065848904        1.56290906122397
C           -6.58327497747974       -1.75048832871039        1.83792548550283
C           -5.83293821712315       -0.72676174964383        1.27543694834262
H           -4.92270445941121        0.61820694536849        3.45300602805727
H           -6.61377021839879        0.19013126246848        3.71424724638752
H           -6.15851353993702        1.87652330761559        3.49355704580273
H           -7.83101538970318        2.06239317197222        1.53035318539182
H           -7.69616041814815        0.93910065665709        0.17704248618227
H           -8.27761035412083        0.37227983882354        1.74322937602635
H           -6.07721181922588        3.39006924040118        1.88643896314922
H           -4.66775151208709        5.02721019365169        0.75389287447445
H           -2.99300658308500        4.26563926413954       -0.91086170162644
H           -2.73029476998013        1.87696025565015       -1.36734152251744
H           -4.47198052544579       -1.14436818898529       -2.58403136451711
H           -2.75221272322847       -1.83805660092314       -4.25840468471303
H           -0.00489193360654       -2.04172126802804       -4.58729636132775
H            2.74336205011619       -1.88168916543092       -4.24171758001028
H            4.46342402639265       -1.21433730879902       -2.55719051634343
H            3.63944157168604       -2.73561131756727       -0.46190058561291
H            4.97117851587849       -4.52565163019812        0.54187121366361
H            6.88028765243816       -3.96116247606285        2.02267600757459
H            7.37340491835508       -1.62482176824817        2.52139883221114
H            7.86442655522146        1.94076487575454        1.53107140308800
H            7.70084647179656        0.82115647223652        0.17787191997866
H            8.28758744872552        0.24369954953145        1.73821173816664
H            6.63871861668207        0.08467467123152        3.72402465279633
H            4.95211328998251        0.53862318282273        3.47814642594035
H            6.20736428850009        1.77782123955045        3.50892952473515
H            6.12848141242703        3.29314658015093        1.91037183339504
H            4.73621875056999        4.95299724319522        0.78968204401342
H            3.04475161877555        4.21964765219852       -0.87095327425057
H            2.74802566674057        1.83656569177828       -1.33439180770813
H            1.41797407335139        0.08753878604417        0.16900740676779
H           -1.42312970529298        0.10996194119169        0.16040892171234
H           -3.68964979137328       -2.67942488527999       -0.48876703660663
H           -5.04540809561319       -4.44764026041637        0.52136253988012
H           -6.93656113054783       -3.85244093148787        2.01310215366180
H           -7.38928867024137       -1.50845042087755        2.51404379939058

 projected vibrational frequencies (cm⁻¹)
eigval :       -0.00    -0.00     0.00     0.00     0.00     0.00
eigval :       10.83    12.11    13.38    19.48    30.34    39.42
eigval :       56.28    59.55    89.20    92.18    93.34   102.61
eigval :      116.46   122.83   126.66   130.46   130.57   168.12
eigval :      172.71   192.00   192.08   202.17   216.99   217.55
eigval :      219.15   222.67   237.98   241.21   245.69   301.95
eigval :      304.75   327.22   328.17   332.33   340.57   342.44
eigval :      348.23   349.49   353.01   375.49   380.78   381.23
eigval :      394.71   396.90   410.75   414.75   414.82   446.88
eigval :      451.38   475.09   483.52   489.03   505.46   505.94
eigval :      514.12   514.51   525.94   535.84   541.62   543.01
eigval :      543.25   556.75   582.13   584.66   587.83   604.97
eigval :      611.59   622.68   626.09   652.94   653.26   660.87
eigval :      665.32   682.42   683.78   697.17   697.35   710.93
eigval :      727.44   735.51   738.52   747.81   757.81   772.39
eigval :      772.68   773.18   774.52   788.79   790.30   797.33
eigval :      824.92   825.16   838.54   841.03   865.34   865.64
eigval :      865.94   866.42   908.68   910.46   911.23   911.53
eigval :      911.91   912.04   917.52   917.75   917.94   918.13
eigval :      919.70   934.19   936.37   957.42   957.43   977.47
eigval :     1005.76  1013.59  1013.62  1036.20  1070.04  1074.46
eigval :     1076.05  1076.74  1087.82  1102.15  1112.28  1113.51
eigval :     1114.09  1130.02  1137.64  1138.89  1144.12  1149.71
eigval :     1153.75  1153.81  1160.22  1180.46  1182.37  1182.82
eigval :     1183.89  1184.15  1188.77  1192.01  1215.57  1228.32
eigval :     1229.13  1238.67  1242.05  1244.10  1251.01  1251.88
eigval :     1263.85  1281.38  1294.94  1295.20  1296.92  1300.54
eigval :     1317.69  1318.78  1333.07  1333.42  1337.41  1337.68
eigval :     1363.26  1376.38  1396.28  1399.13  1401.15  1401.21
eigval :     1415.16  1418.88  1419.03  1423.69  1424.01  1428.41
eigval :     1439.37  1446.89  1457.66  1458.10  1463.67  1471.60
eigval :     1488.10  1488.14  1489.06  1489.08  1493.32  1496.24
eigval :     1498.92  1499.11  1502.14  1502.18  1520.34  1521.38
eigval :     1524.89  1526.92  1536.30  1538.83  1561.53  1562.45
eigval :     1570.14  3028.46  3028.51  3030.38  3030.44  3040.87
eigval :     3040.88  3043.33  3043.40  3049.79  3049.83  3053.19
eigval :     3053.45  3080.21  3080.25  3080.28  3080.38  3080.42
eigval :     3081.36  3085.84  3085.94  3085.95  3086.11  3095.39
eigval :     3096.51  3096.61  3096.79  3097.00  3098.44  3100.95
eigval :     3101.30  3111.01  3111.31  3112.54  3112.75  3468.85

   temp. (K)  partition function   enthalpy   heat capacity  entropy
                                   cal/mol     cal/K/mol   cal/K/mol   J/K/mol
 298.15  VIB  0.198E+17            22145.193    144.280    134.970
         ROT  0.725E+08              888.752      2.981     38.949
         INT  0.143E+25            23033.945    147.261    173.918
         TR   0.136E+29             1481.254      4.968     44.946
         TOT                       24515.1990   152.2295   218.8647   915.7301

       T/K    H(0)-H(T)+PV         H(T)/Eh          T*S/Eh         G(T)/Eh
   ------------------------------------------------------------------------
    298.15    0.390675E-01    0.673353E+00    0.103990E+00    0.569363E+00
   ------------------------------------------------------------------------

         :::::::::::::::::::::::::::::::::::::::::::::::::::::
         ::                  THERMODYNAMIC                  ::
         :::::::::::::::::::::::::::::::::::::::::::::::::::::
         :: total free energy        -115.991671278798 Eh   ::
         ::.................................................::
         :: total energy             -116.561034517922 Eh   ::
         :: zero point energy           0.634285487053 Eh   ::
         :: G(RRHO) w/o ZPVE           -0.064922247929 Eh   ::
         :: G(RRHO) contrib.            0.569363239124 Eh   ::
         :::::::::::::::::::::::::::::::::::::::::::::::::::::

           -------------------------------------------------
          | TOTAL ENERGY             -116.561034517922 Eh   |
          | TOTAL ENTHALPY           -115.887681574484 Eh   |
          | TOTAL FREE ENERGY        -115.991671278798 Eh   |
          | GRADIENT NORM               0.000091943127 Eh/α |
           -------------------------------------------------

 * finished run on 2025/09/13 at 16:05:49.514
