   * xtb version 6.7.1 (edcfbbe) compiled by 'albert@albert-system' on 2024-07-22

   ID    Z sym.   atoms
    1    6 C      1-9, 11-14, 16-19, 21-45
    2    7 N      10, 15, 20
    3    1 H      46-80

          program call               : xtb data2507/gas/DMAC-Cz/DMAC-Cz.xyz --gfn 2 --ohess vtight --parallel 40 --molden --ceasefiles --namespace data2507/gas/DMAC-Cz/DMAC-Cz_gas_S0_preOpt
          :  Hamiltonian                  GFN2-xTB          :
 * total energy  :  -116.6327185 Eh     change       -0.3271111E-08 Eh
 * total energy  :  -116.6520668 Eh     change       -0.1934835E-01 Eh
 * total energy  :  -116.6588469 Eh     change       -0.6780107E-02 Eh
 * total energy  :  -116.6600890 Eh     change       -0.1242071E-02 Eh
 * total energy  :  -116.6606433 Eh     change       -0.5542894E-03 Eh
 * total energy  :  -116.6607606 Eh     change       -0.1172804E-03 Eh
 * total energy  :  -116.6607868 Eh     change       -0.2624753E-04 Eh
 * total energy  :  -116.6608016 Eh     change       -0.1478470E-04 Eh
 * total energy  :  -116.6607974 Eh     change        0.4234393E-05 Eh
 * total energy  :  -116.6608066 Eh     change       -0.9196446E-05 Eh
 * total energy  :  -116.6608173 Eh     change       -0.6809678E-06 Eh
 * total energy  :  -116.6608179 Eh     change       -0.5493855E-06 Eh
 * total energy  :  -116.6608183 Eh     change       -0.4847092E-06 Eh
 * total energy  :  -116.6608189 Eh     change       -0.5769099E-06 Eh
 * total energy  :  -116.6608199 Eh     change       -0.9555170E-06 Eh
 * total energy  :  -116.6608214 Eh     change       -0.1560584E-05 Eh
 * total energy  :  -116.6608231 Eh     change       -0.1711574E-05 Eh
 * total energy  :  -116.6608232 Eh     change       -0.1007298E-06 Eh
 * total energy  :  -116.6608233 Eh     change       -0.8735611E-07 Eh
   *** GEOMETRY OPTIMIZATION CONVERGED AFTER 23 ITERATIONS ***

 final structure:
================
80
 xtb: 6.7.1 (edcfbbe)
C           -5.87633255056415       -0.00021124642744        3.06587169894582
C           -6.12342086415729       -0.00010478452287        1.54620229980240
C           -7.63469500928109       -0.00008419266408        1.25235568970693
C           -5.51325735556024        1.25708521003643        0.95540738829984
C           -5.95967797613387        2.50009876257134        1.38168162257366
C           -5.44053338099633        3.67908421043593        0.87918735672300
C           -4.44378086193845        3.62515460520673       -0.07813073167366
C           -3.98108466205224        2.40368729588661       -0.51960292292989
C           -4.50518621199056        1.21038937742997       -0.01359848922318
N           -4.01949113246740        0.00003748633331       -0.47681179051207
C           -3.01129317876727        0.00010695086898       -1.48253824296081
C           -3.39561594191090        0.00018330335621       -2.82754317842340
C           -2.45831653870706        0.00024897804492       -3.84055269145140
C           -1.11836523172339        0.00023715968055       -3.48175694917214
N           -0.00000708175048        0.00028487219421       -4.27506761252029
C            1.11835289283407        0.00024283290191       -3.48175951886342
C            2.45830336515832        0.00026289612374       -3.84055836939416
C            3.39560507481217        0.00020044460381       -2.82755100972529
C            3.01128545868075        0.00012050570977       -1.48254516742813
N            4.01948607553678        0.00004425681443       -0.47682137305515
C            4.50514811721366       -1.21037746950833       -0.01375589322405
C            3.98101006787711       -2.40360009276715       -0.51989986164253
C            4.44367580711648       -3.62513330871810       -0.07857783913071
C            5.44043365721190       -3.67920579210848        0.87872653086534
C            5.95961425217125       -2.50029514119048        1.38135899944305
C            5.51322552234135       -1.25721800017574        0.95523700900135
C            6.12342848147250       -0.00011643304688        1.54617960552571
C            7.63469978320615       -0.00013775214959        1.25231762228360
C            5.87635561698422       -0.00019201802641        3.06585151559230
C            5.51329059507348        1.25707871891659        0.95536912593011
C            5.95974729322500        2.50008840537211        1.38161688694650
C            5.44062804629316        3.67907820677739        0.87910667394301
C            4.44386332444786        3.62515715347432       -0.07819925933119
C            3.98113227661690        2.40369376995113       -0.51964612868960
C            4.50521118836475        1.21039159511234       -0.01362847835535
C            1.67530907182249        0.00010590703728       -1.11857153320871
C            0.71811147618981        0.00016616479775       -2.12371000660240
C           -0.71812065836430        0.00016094534913       -2.12370836429095
C           -1.67531594243666        0.00009644884903       -1.11856772028484
C           -4.50517862005205       -1.21037967781834       -0.01376194473916
C           -3.98106922964258       -2.40360652408597       -0.51992537437943
C           -4.44376576443769       -3.62513582298512       -0.07862443542443
C           -5.44052597101119       -3.67919977263136        0.87867801935957
C           -5.95967510601748       -2.50028479101157        1.38133276047076
C           -5.51325398838189       -1.25721150484947        0.95523339796826
H           -4.80645278896315       -0.00022729227088        3.26603203982244
H           -6.31187032085060       -0.88080756982409        3.53005735970856
H           -6.31186684783096        0.88032216182138        3.53017993596691
H           -8.11240012650583        0.88022226425169        1.67351554906606
H           -7.80204406516670       -0.00001157485669        0.17678309771664
H           -8.11239981165882       -0.88044776923107        1.67339635077747
H           -6.73668217727174        2.55743546302161        2.12917653021126
H           -5.81135965910714        4.62897337100924        1.23328381395981
H           -4.02348679588280        4.53376738103597       -0.48338168965515
H           -3.20244033479605        2.36707680467666       -1.26621369342194
H           -4.44934093330794        0.00017037764030       -3.06262152693882
H           -2.75943421545213        0.00029844979621       -4.87723782215293
H           -0.00000822392050        0.00033812901015       -5.28044569161367
H            2.75941866395185        0.00032166669399       -4.87724418787663
H            4.44932953294971        0.00020825295085       -3.06263175721925
H            3.20236116816200       -2.36687910084384       -1.26650044466173
H            4.02335205274939       -4.53368560846880       -0.48393366358257
H            5.81123430991465       -4.62914772654647        1.23270790438291
H            6.73662172390132       -2.55774322840726        2.12884191538957
H            8.11243513488765        0.88014876338694        1.67348495417009
H            7.80203779978833       -0.00005502231478        0.17674324943202
H            8.11238276399020       -0.88052150833369        1.67334092412771
H            6.31190104095096       -0.88077738999402        3.53005074004126
H            4.80647787006834       -0.00020713445182        3.26602283422036
H            6.31189190678454        0.88035211529748        3.53013759531199
H            6.73676018210290        2.55741847634325        2.12910321076672
H            5.81148054338807        4.62896406070372        1.23318423553543
H            4.02358518048635        4.53377360795645       -0.48345859069045
H            3.20247802819339        2.36708942638078       -1.26624706402334
H            1.39445007513675        0.00004462460131       -0.07668776320160
H           -1.39445457917843        0.00004251720407       -0.07668458771198
H           -3.20241803851471       -2.36689164665334       -1.26652406509361
H           -4.02346222752476       -4.53369179155157       -0.48399309463137
H           -5.81134937239704       -4.62913839672760        1.23264408752215
H           -6.73668264538306       -2.55772629245526        2.12881599760055

          :  Hamiltonian                  GFN2-xTB          :
         :: gradient norm              0.000059019601 Eh/a0 ::
         :: HOMO-LUMO gap              2.175045124330 eV    ::
         :: SCC energy              -118.778797198669 Eh    ::
         :: -> dispersion             -0.111288090045 Eh    ::
         :: repulsion energy           2.117973867515 Eh    ::

    * Orbital Energies and Occupations

         #    Occupation            Energy/Eh            Energy/eV
      -------------------------------------------------------------
         1        2.0000           -0.6906478             -18.7935
       ...           ...                  ...                  ...
        97        2.0000           -0.4028473             -10.9620
        98        2.0000           -0.4006707             -10.9028
        99        2.0000           -0.4006357             -10.9019
       100        2.0000           -0.3964702             -10.7885
       101        2.0000           -0.3961714             -10.7804
       102        2.0000           -0.3918444             -10.6626
       103        2.0000           -0.3910910             -10.6421
       104        2.0000           -0.3903981             -10.6233
       105        2.0000           -0.3858678             -10.5000
       106        2.0000           -0.3858617             -10.4998
       107        2.0000           -0.3780306             -10.2867
       108        2.0000           -0.3391683              -9.2292
       109        2.0000           -0.3386478              -9.2151 (HOMO)
       110                         -0.2587163              -7.0400 (LUMO)
       111                         -0.2364566              -6.4343
       112                         -0.2169531              -5.9036
       113                         -0.2169454              -5.9034
       114                         -0.2120785              -5.7709
       115                         -0.2120768              -5.7709
       116                         -0.2112257              -5.7477
       117                         -0.2110741              -5.7436
       118                         -0.2087298              -5.6798
       119                         -0.2004002              -5.4532
       120                         -0.1824249              -4.9640
       ...                                ...                  ...
       215                          0.7325702              19.9342
      -------------------------------------------------------------
                  HL-Gap            0.0799315 Eh            2.1750 eV

     #   Z          covCN         q      C6AA      α(0)
     1   6 C        3.761    -0.102    22.501     6.762
     2   6 C        3.909     0.021    20.159     6.382
     3   6 C        3.761    -0.102    22.501     6.762
     4   6 C        2.979    -0.015    28.385     8.739
     5   6 C        2.928    -0.037    28.910     8.818
     6   6 C        2.917    -0.046    29.140     8.852
     7   6 C        2.920    -0.034    28.836     8.806
     8   6 C        2.924    -0.060    29.480     8.904
     9   6 C        2.928     0.058    26.697     8.473
    10   7 N        2.755    -0.071    22.616     7.063
    11   6 C        2.928     0.059    26.676     8.470
    12   6 C        2.926    -0.040    28.996     8.831
    13   6 C        2.909    -0.053    29.328     8.880
    14   6 C        3.073     0.054    26.714     8.474
    15   7 N        2.755    -0.117    23.544     7.207
    16   6 C        3.073     0.054    26.714     8.474
    17   6 C        2.909    -0.053    29.328     8.880
    18   6 C        2.926    -0.040    28.996     8.831
    19   6 C        2.928     0.059    26.676     8.470
    20   7 N        2.755    -0.071    22.616     7.063
    21   6 C        2.928     0.058    26.697     8.473
    22   6 C        2.924    -0.060    29.480     8.904
    23   6 C        2.920    -0.034    28.836     8.806
    24   6 C        2.917    -0.046    29.140     8.852
    25   6 C        2.928    -0.037    28.910     8.818
    26   6 C        2.979    -0.015    28.385     8.739
    27   6 C        3.909     0.021    20.159     6.382
    28   6 C        3.761    -0.102    22.501     6.762
    29   6 C        3.761    -0.102    22.501     6.762
    30   6 C        2.979    -0.015    28.385     8.739
    31   6 C        2.928    -0.037    28.910     8.818
    32   6 C        2.917    -0.046    29.140     8.852
    33   6 C        2.920    -0.034    28.836     8.806
    34   6 C        2.924    -0.060    29.480     8.904
    35   6 C        2.928     0.058    26.697     8.473
    36   6 C        2.914    -0.040    29.005     8.831
    37   6 C        3.072    -0.014    28.278     8.719
    38   6 C        3.072    -0.014    28.278     8.719
    39   6 C        2.914    -0.040    29.005     8.831
    40   6 C        2.928     0.058    26.697     8.473
    41   6 C        2.924    -0.060    29.480     8.904
    42   6 C        2.920    -0.034    28.836     8.806
    43   6 C        2.917    -0.046    29.140     8.852
    44   6 C        2.928    -0.037    28.910     8.818
    45   6 C        2.979    -0.015    28.385     8.739
    46   1 H        0.925     0.031     2.575     2.509
    47   1 H        0.925     0.038     2.474     2.460
    48   1 H        0.925     0.038     2.474     2.460
    49   1 H        0.925     0.038     2.474     2.460
    50   1 H        0.925     0.030     2.584     2.514
    51   1 H        0.925     0.038     2.474     2.460
    52   1 H        0.926     0.028     2.617     2.530
    53   1 H        0.926     0.024     2.677     2.558
    54   1 H        0.926     0.025     2.662     2.552
    55   1 H        0.926     0.022     2.700     2.569
    56   1 H        0.926     0.043     2.412     2.429
    57   1 H        0.926     0.034     2.535     2.490
    58   1 H        0.860     0.161     1.326     1.804
    59   1 H        0.926     0.034     2.535     2.490
    60   1 H        0.926     0.043     2.412     2.429
    61   1 H        0.926     0.022     2.700     2.569
    62   1 H        0.926     0.025     2.662     2.552
    63   1 H        0.926     0.024     2.677     2.558
    64   1 H        0.926     0.028     2.617     2.530
    65   1 H        0.925     0.038     2.474     2.460
    66   1 H        0.925     0.030     2.584     2.514
    67   1 H        0.925     0.038     2.474     2.460
    68   1 H        0.925     0.038     2.474     2.460
    69   1 H        0.925     0.031     2.575     2.509
    70   1 H        0.925     0.038     2.474     2.460
    71   1 H        0.926     0.028     2.617     2.530
    72   1 H        0.926     0.024     2.677     2.558
    73   1 H        0.926     0.025     2.662     2.552
    74   1 H        0.926     0.022     2.700     2.569
    75   1 H        0.926     0.045     2.383     2.414
    76   1 H        0.926     0.045     2.383     2.414
    77   1 H        0.926     0.022     2.700     2.569
    78   1 H        0.926     0.025     2.662     2.552
    79   1 H        0.926     0.024     2.677     2.558
    80   1 H        0.926     0.028     2.617     2.530

molecular dipole:
                 x           y           z       tot (Debye)
 q only:       -0.000       0.000      -1.050
   full:       -0.000       0.000      -1.368       3.478

 projected vibrational frequencies (cm⁻¹)
eigval :       -0.00    -0.00    -0.00     0.00     0.00     0.00
eigval :        4.49     6.80    13.69    21.81    27.28    35.55
eigval :       46.71    52.19    92.82    93.49    95.32   101.46
eigval :      103.67   119.22   123.53   129.50   129.54   165.84
eigval :      175.22   190.54   190.70   197.21   215.43   220.31
eigval :      220.61   234.09   236.18   237.99   253.63   304.14
eigval :      305.12   330.84   331.04   339.50   344.82   345.46
eigval :      352.08   360.30   369.13   380.83   382.71   395.52
eigval :      396.01   398.41   411.51   418.07   432.05   451.51
eigval :      452.23   466.17   475.70   482.97   499.99   515.57
eigval :      515.65   516.44   536.00   543.65   547.46   547.47
eigval :      550.36   556.67   586.18   587.23   598.47   615.38
eigval :      621.19   632.99   656.71   664.34   669.26   682.64
eigval :      682.86   693.32   693.33   694.37   711.97   717.49
eigval :      732.89   775.69   776.03   777.20   777.42   803.50
eigval :      813.14   814.73   826.68   826.71   854.28   859.30
eigval :      863.74   863.99   864.26   864.49   872.23   874.59
eigval :      904.04   904.41   912.17   912.21   913.05   913.08
eigval :      917.23   917.36   920.18   920.18   920.21   920.21
eigval :      934.00   938.41   940.05   956.91   956.91   989.10
eigval :     1014.24  1014.24  1023.20  1077.55  1077.57  1083.13
eigval :     1084.47  1112.33  1112.52  1119.35  1119.37  1135.03
eigval :     1140.70  1140.73  1144.19  1158.35  1159.24  1160.52
eigval :     1160.55  1170.65  1184.30  1187.06  1187.46  1187.66
eigval :     1187.81  1190.68  1203.69  1226.31  1235.66  1246.99
eigval :     1249.53  1249.68  1251.99  1268.32  1268.34  1287.18
eigval :     1295.01  1295.03  1296.13  1326.82  1326.86  1327.14
eigval :     1329.89  1336.11  1336.58  1346.97  1347.72  1348.27
eigval :     1378.56  1402.36  1402.38  1419.66  1420.54  1420.94
eigval :     1429.62  1437.64  1438.20  1445.47  1445.96  1480.41
eigval :     1482.03  1482.83  1483.26  1490.51  1490.55  1491.27
eigval :     1491.27  1497.44  1499.37  1500.91  1500.94  1505.82
eigval :     1505.95  1568.03  1575.28  1575.35  1579.55  1590.56
eigval :     1590.67  1593.45  1593.75  1602.80  1603.69  1604.42
eigval :     1618.53  3026.08  3026.13  3028.52  3028.53  3038.19
eigval :     3038.20  3040.97  3041.01  3047.13  3047.13  3050.91
eigval :     3051.00  3075.50  3075.54  3075.62  3075.68  3080.39
eigval :     3080.45  3080.56  3080.61  3083.11  3083.50  3091.42
eigval :     3091.50  3091.59  3092.02  3097.20  3097.51  3097.75
eigval :     3097.81  3098.08  3098.57  3099.17  3101.11  3490.03

   temp. (K)  partition function   enthalpy   heat capacity  entropy
                                   cal/mol     cal/K/mol   cal/K/mol   J/K/mol
 298.15  VIB  0.991E+17            21896.451    141.245    135.165
         ROT  0.366E+08              888.752      2.981     37.590
         INT  0.363E+25            22785.203    144.226    172.754
         TR   0.136E+29             1481.254      4.968     44.946
         TOT                       24266.4568   149.1939   217.7009   910.8604

       T/K    H(0)-H(T)+PV         H(T)/Eh          T*S/Eh         G(T)/Eh
   ------------------------------------------------------------------------
    298.15    0.386711E-01    0.679520E+00    0.103437E+00    0.576083E+00
   ------------------------------------------------------------------------

         :::::::::::::::::::::::::::::::::::::::::::::::::::::
         ::                  THERMODYNAMIC                  ::
         :::::::::::::::::::::::::::::::::::::::::::::::::::::
         :: total free energy        -116.084740182942 Eh   ::
         ::.................................................::
         :: total energy             -116.660823331153 Eh   ::
         :: zero point energy           0.640848793241 Eh   ::
         :: G(RRHO) w/o ZPVE           -0.064765645030 Eh   ::
         :: G(RRHO) contrib.            0.576083148211 Eh   ::
         :::::::::::::::::::::::::::::::::::::::::::::::::::::

           -------------------------------------------------
          | TOTAL ENERGY             -116.660823331153 Eh   |
          | TOTAL ENTHALPY           -115.981303477442 Eh   |
          | TOTAL FREE ENERGY        -116.084740182942 Eh   |
          | GRADIENT NORM               0.000058974281 Eh/α |
          | HOMO-LUMO GAP               2.175045857245 eV   |
           -------------------------------------------------

 * finished run on 2025/09/13 at 15:59:43.289
