   * xtb version 6.7.1 (edcfbbe) compiled by 'albert@albert-system' on 2024-07-22

   ID    Z sym.   atoms
    1    6 C      1-9, 11-14, 16-19, 21-45
    2    7 N      10, 15, 20
    3    1 H      46-80

          program call               : xtb data2507/gas/DMAC-Cz/DMAC-Cz_gas_S0_crest.xyz --gfn 2 --ohess vtight --parallel 40 --molden --ceasefiles --namespace data2507/gas/DMAC-Cz/DMAC-Cz_gas_S0_finalOpt
          :  Hamiltonian                  GFN2-xTB          :
 * total energy  :  -116.6608041 Eh     change       -0.3135199E-08 Eh
 * total energy  :  -116.6608047 Eh     change       -0.6935580E-06 Eh
 * total energy  :  -116.6608056 Eh     change       -0.8564667E-06 Eh
 * total energy  :  -116.6608074 Eh     change       -0.1838775E-05 Eh
 * total energy  :  -116.6608090 Eh     change       -0.1512077E-05 Eh
 * total energy  :  -116.6608101 Eh     change       -0.1131901E-05 Eh
 * total energy  :  -116.6608111 Eh     change       -0.1025822E-05 Eh
 * total energy  :  -116.6608120 Eh     change       -0.9242333E-06 Eh
 * total energy  :  -116.6608128 Eh     change       -0.7986835E-06 Eh
 * total energy  :  -116.6608135 Eh     change       -0.6934610E-06 Eh
 * total energy  :  -116.6608152 Eh     change       -0.4938286E-06 Eh
 * total energy  :  -116.6608159 Eh     change       -0.6488517E-06 Eh
 * total energy  :  -116.6608164 Eh     change       -0.5623170E-06 Eh
 * total energy  :  -116.6608168 Eh     change       -0.3339164E-06 Eh
 * total energy  :  -116.6608170 Eh     change       -0.2377192E-06 Eh
 * total energy  :  -116.6608173 Eh     change       -0.2970612E-06 Eh
 * total energy  :  -116.6608177 Eh     change       -0.4132282E-06 Eh
 * total energy  :  -116.6608181 Eh     change       -0.3924792E-06 Eh
 * total energy  :  -116.6608181 Eh     change       -0.5243308E-08 Eh
   *** GEOMETRY OPTIMIZATION CONVERGED AFTER 22 ITERATIONS ***

 final structure:
================
80
 xtb: 6.7.1 (edcfbbe)
C           -5.96520499951804        0.71315543224376        3.22847083002751
C           -6.16914618511743        0.44785117908758        1.72568827678474
C           -7.66908575552552        0.47249831767685        1.37917899101122
C           -5.47177602144912        1.54199934049648        0.93934649381388
C           -5.85569802656879        2.86366656770214        1.11812960963946
C           -5.26149695091228        3.90160312401336        0.42420369771471
C           -4.25334872852008        3.62047895722061       -0.47991830729791
C           -3.85162494239930        2.31635528913738       -0.67698553824338
C           -4.44807171681632        1.26568838341328        0.02661274814657
N           -4.02031837783770       -0.03275260555355       -0.19056382362317
C           -3.01132610529120       -0.27323195247809       -1.16612737640334
C           -3.39740153938948       -0.57878300314505       -2.47551210678070
C           -2.46172529720569       -0.81910777995013       -3.46091878489815
C           -1.12141395627560       -0.74485049376410       -3.11148903015050
N           -0.00465023573128       -0.93251955474648       -3.88437138923239
C            1.11502637002178       -0.75451892383438       -3.11342944308921
C            2.45404345288199       -0.84089351617249       -3.46503207167112
C            3.39347576730460       -0.60928428992533       -2.48108440047354
C            3.01220403634028       -0.29834388298154       -1.17160229321487
N            4.02473497287069       -0.06604246580701       -0.19753536664076
C            4.53287241244859       -1.14045299279258        0.51155459268002
C            4.00783886103228       -2.41852142505988        0.29815036771255
C            4.49287691502819       -3.50892406209397        0.98860053678721
C            5.51296611493645       -3.34401813286616        1.90791132989154
C            6.03187072508660       -2.08039947177348        2.12249914617693
C            5.56313930921182       -0.96552491367319        1.44175955885473
C            6.17470733200503        0.39432441289049        1.72215616512288
C            7.67772136176420        0.33598397325255        1.39342295227362
C            5.96761152077375        0.73070680980059        3.21019904900727
C            5.53647276828452        1.48590900392937        0.88374199169300
C            5.97901690429868        2.79495720814269        1.01275533747901
C            5.43669166431251        3.83000365219544        0.27345308034263
C            4.42024312347018        3.55922323744392       -0.62453205680412
C            3.96099447977754        2.26769808822456       -0.77286397172701
C            4.50805029253313        1.21958406258755       -0.02661700690783
C            1.67709931796650       -0.21231303105105       -0.81456249162327
C            0.71747118021185       -0.44121137692447       -1.79113249867642
C           -0.71893141206939       -0.43534287213733       -1.78981328098118
C           -1.67487250601987       -0.20013116720964       -0.81112055976500
C           -4.58257860535128       -1.11003843475556        0.47192541148772
C           -4.10661100916627       -2.40018883821990        0.21950054069395
C           -4.64831808714919       -3.49413248766000        0.86041842726542
C           -5.67635675246503       -3.32075475598669        1.76926140913462
C           -6.14338091306733       -2.04487877329009        2.02623718349210
C           -5.61661873604898       -0.92612679443936        1.39616422059464
H           -4.90302304550575        0.69637370251107        3.46549894772401
H           -6.46205366421424       -0.04493845229870        3.82765486725507
H           -6.36383135076115        1.68419054288786        3.50915388194510
H           -8.10575096090959        1.43986088700705        1.61175079914619
H           -7.80605213566592        0.28077623751357        0.31644888640515
H           -8.20919019606929       -0.28759456072462        1.93694406381511
H           -6.64331079466550        3.09755240800499        1.81865984427589
H           -5.58489481043233        4.91835300468339        0.58793266143269
H           -3.77714432182278        4.41556528251588       -1.03444055915663
H           -3.06560259926096        2.10270110767112       -1.38514800013224
H           -4.45147200303408       -0.62530700696457       -2.70441512965769
H           -2.76407930864751       -1.05506556182258       -4.47001466488678
H           -0.00657504766778       -1.16180503715711       -4.86324682240985
H            2.75260409084298       -1.08017978696419       -4.47447294418064
H            4.44671366548457       -0.66539710002401       -2.71163422103601
H            3.21066645045802       -2.55221460918994       -0.41721216970955
H            4.07181624528386       -4.48674554720482        0.80688624344535
H            5.90198893127553       -4.18968685251897        2.45443851758515
H            6.82709133783769       -1.96644608855117        2.84390547161841
H            8.15683276779734        1.29013128611386        1.59494605982064
H            7.81671235949091        0.09775705406517        0.34040496839342
H            8.17567978571660       -0.42664794273945        1.98586337251997
H            6.42410921846317       -0.02294308496841        3.84597661049995
H            4.90340158997411        0.77081792623681        3.43504023538141
H            6.40629429787134        1.69407123575385        3.45532189478227
H            6.77203433276459        3.02101616831708        1.70974920745187
H            5.80540207547506        4.83675348603613        0.39870316961875
H            3.98205697610921        4.35266220303522       -1.21180541143748
H            3.16737130214836        2.06189123563537       -1.47489343210793
H            1.39872027685810        0.02872695453258        0.19975360576760
H           -1.39264828599477        0.03770246032746        0.20289505230402
H           -3.30217776045449       -2.54052404393398       -0.48639205826520
H           -4.26486994445681       -4.48134421094444        0.64867551131648
H           -6.11033570788401       -4.16916505379506        2.27625704198554
H           -6.94366482466956       -1.92414099401163        2.74090311216332

          :  Hamiltonian                  GFN2-xTB          :
         :: gradient norm              0.000050913496 Eh/a0 ::
         :: HOMO-LUMO gap              2.176884131859 eV    ::
         :: SCC energy              -118.778731933593 Eh    ::
         :: -> dispersion             -0.111330817341 Eh    ::
         :: repulsion energy           2.117913827409 Eh    ::

    * Orbital Energies and Occupations

         #    Occupation            Energy/Eh            Energy/eV
      -------------------------------------------------------------
         1        2.0000           -0.6906359             -18.7932
       ...           ...                  ...                  ...
        97        2.0000           -0.4028441             -10.9619
        98        2.0000           -0.4007015             -10.9036
        99        2.0000           -0.4006435             -10.9021
       100        2.0000           -0.3965528             -10.7908
       101        2.0000           -0.3961881             -10.7808
       102        2.0000           -0.3918553             -10.6629
       103        2.0000           -0.3911108             -10.6427
       104        2.0000           -0.3903461             -10.6219
       105        2.0000           -0.3859027             -10.5009
       106        2.0000           -0.3858713             -10.5001
       107        2.0000           -0.3780060             -10.2861
       108        2.0000           -0.3391951              -9.2300
       109        2.0000           -0.3386779              -9.2159 (HOMO)
       110                         -0.2586789              -7.0390 (LUMO)
       111                         -0.2364264              -6.4335
       112                         -0.2169964              -5.9048
       113                         -0.2169524              -5.9036
       114                         -0.2121413              -5.7727
       115                         -0.2120850              -5.7711
       116                         -0.2112321              -5.7479
       117                         -0.2111197              -5.7449
       118                         -0.2086586              -5.6779
       119                         -0.2004053              -5.4533
       120                         -0.1824527              -4.9648
       ...                                ...                  ...
       215                          0.7323631              19.9286
      -------------------------------------------------------------
                  HL-Gap            0.0799990 Eh            2.1769 eV

     #   Z          covCN         q      C6AA      α(0)
     1   6 C        3.761    -0.102    22.503     6.762
     2   6 C        3.909     0.021    20.159     6.382
     3   6 C        3.761    -0.102    22.499     6.762
     4   6 C        2.979    -0.015    28.385     8.739
     5   6 C        2.928    -0.037    28.910     8.818
     6   6 C        2.917    -0.046    29.139     8.852
     7   6 C        2.920    -0.034    28.835     8.806
     8   6 C        2.924    -0.060    29.480     8.904
     9   6 C        2.928     0.058    26.697     8.474
    10   7 N        2.755    -0.071    22.616     7.063
    11   6 C        2.928     0.059    26.677     8.470
    12   6 C        2.927    -0.040    28.996     8.831
    13   6 C        2.909    -0.053    29.328     8.880
    14   6 C        3.074     0.054    26.714     8.474
    15   7 N        2.755    -0.117    23.544     7.206
    16   6 C        3.074     0.054    26.714     8.474
    17   6 C        2.909    -0.053    29.327     8.880
    18   6 C        2.927    -0.040    28.996     8.831
    19   6 C        2.928     0.059    26.677     8.470
    20   7 N        2.755    -0.071    22.617     7.063
    21   6 C        2.928     0.058    26.697     8.473
    22   6 C        2.924    -0.060    29.479     8.904
    23   6 C        2.920    -0.034    28.836     8.806
    24   6 C        2.917    -0.046    29.140     8.852
    25   6 C        2.928    -0.037    28.910     8.818
    26   6 C        2.979    -0.015    28.385     8.739
    27   6 C        3.909     0.021    20.159     6.382
    28   6 C        3.761    -0.102    22.499     6.762
    29   6 C        3.761    -0.102    22.503     6.762
    30   6 C        2.979    -0.015    28.385     8.739
    31   6 C        2.928    -0.037    28.910     8.818
    32   6 C        2.917    -0.046    29.139     8.852
    33   6 C        2.920    -0.034    28.836     8.806
    34   6 C        2.924    -0.060    29.480     8.904
    35   6 C        2.929     0.058    26.697     8.473
    36   6 C        2.914    -0.041    29.007     8.832
    37   6 C        3.072    -0.014    28.279     8.719
    38   6 C        3.072    -0.014    28.280     8.719
    39   6 C        2.914    -0.041    29.008     8.832
    40   6 C        2.929     0.058    26.697     8.474
    41   6 C        2.924    -0.059    29.479     8.904
    42   6 C        2.920    -0.034    28.837     8.806
    43   6 C        2.917    -0.046    29.139     8.852
    44   6 C        2.928    -0.037    28.910     8.818
    45   6 C        2.979    -0.015    28.385     8.739
    46   1 H        0.925     0.031     2.573     2.509
    47   1 H        0.925     0.038     2.474     2.460
    48   1 H        0.925     0.038     2.474     2.460
    49   1 H        0.925     0.038     2.474     2.460
    50   1 H        0.925     0.030     2.585     2.514
    51   1 H        0.925     0.038     2.474     2.460
    52   1 H        0.926     0.028     2.616     2.529
    53   1 H        0.926     0.024     2.676     2.558
    54   1 H        0.926     0.025     2.661     2.551
    55   1 H        0.926     0.022     2.698     2.568
    56   1 H        0.926     0.043     2.415     2.430
    57   1 H        0.926     0.034     2.535     2.490
    58   1 H        0.860     0.161     1.326     1.804
    59   1 H        0.926     0.034     2.535     2.490
    60   1 H        0.926     0.043     2.415     2.430
    61   1 H        0.926     0.022     2.699     2.569
    62   1 H        0.926     0.025     2.663     2.552
    63   1 H        0.926     0.024     2.677     2.559
    64   1 H        0.926     0.028     2.617     2.530
    65   1 H        0.925     0.038     2.474     2.460
    66   1 H        0.925     0.030     2.585     2.514
    67   1 H        0.925     0.038     2.474     2.460
    68   1 H        0.925     0.038     2.474     2.460
    69   1 H        0.925     0.031     2.574     2.509
    70   1 H        0.925     0.038     2.474     2.460
    71   1 H        0.926     0.028     2.617     2.530
    72   1 H        0.926     0.024     2.676     2.558
    73   1 H        0.926     0.025     2.662     2.551
    74   1 H        0.926     0.022     2.699     2.569
    75   1 H        0.926     0.045     2.381     2.413
    76   1 H        0.926     0.045     2.381     2.413
    77   1 H        0.926     0.022     2.698     2.569
    78   1 H        0.926     0.025     2.663     2.552
    79   1 H        0.926     0.024     2.677     2.558
    80   1 H        0.926     0.028     2.616     2.529

molecular dipole:
                 x           y           z       tot (Debye)
 q only:       -0.005      -0.240      -1.021
   full:       -0.006      -0.314      -1.336       3.487

 projected vibrational frequencies (cm⁻¹)
eigval :       -0.00     0.00     0.00     0.00     0.00     0.00
eigval :        4.61     5.05    13.80    21.86    27.51    35.68
eigval :       46.61    52.52    93.00    93.65    95.13   101.51
eigval :      103.70   119.11   122.54   129.60   129.67   166.15
eigval :      174.98   190.63   190.80   197.30   215.25   220.33
eigval :      220.42   233.86   236.62   237.90   254.23   304.12
eigval :      305.13   330.83   330.88   339.34   344.80   345.41
eigval :      351.66   360.19   370.07   380.83   382.80   395.13
eigval :      396.15   398.68   411.62   418.12   432.04   451.54
eigval :      451.63   466.30   476.03   483.15   500.40   515.63
eigval :      515.65   516.41   536.06   543.75   547.46   547.47
eigval :      550.49   556.90   586.21   587.25   598.58   615.42
eigval :      621.12   633.03   656.66   664.33   669.34   682.65
eigval :      682.69   693.37   693.40   694.34   711.99   717.51
eigval :      732.86   775.73   776.07   777.23   777.46   803.33
eigval :      813.21   814.78   826.71   826.72   854.30   859.18
eigval :      863.84   864.12   864.39   864.63   872.54   874.92
eigval :      903.99   904.38   912.21   912.25   913.09   913.12
eigval :      917.19   917.34   920.20   920.21   920.24   920.25
eigval :      933.98   938.39   940.04   956.92   956.92   988.97
eigval :     1014.23  1014.23  1023.09  1077.54  1077.55  1083.07
eigval :     1084.44  1112.47  1112.66  1119.36  1119.41  1135.21
eigval :     1140.72  1140.75  1144.33  1158.19  1159.32  1160.51
eigval :     1160.52  1170.64  1184.24  1187.06  1187.48  1187.66
eigval :     1187.86  1190.57  1203.42  1226.22  1235.54  1246.83
eigval :     1249.55  1249.72  1251.88  1268.40  1268.44  1287.16
eigval :     1295.05  1295.06  1296.33  1326.52  1326.82  1327.43
eigval :     1330.19  1336.11  1336.58  1346.73  1347.47  1348.44
eigval :     1378.37  1402.38  1402.39  1419.72  1420.54  1420.96
eigval :     1429.64  1437.61  1438.17  1445.42  1445.93  1480.56
eigval :     1482.05  1482.81  1483.41  1490.53  1490.57  1491.28
eigval :     1491.28  1497.33  1499.26  1500.88  1500.90  1505.80
eigval :     1505.93  1567.96  1575.35  1575.37  1579.52  1590.54
eigval :     1590.66  1593.46  1593.77  1602.78  1603.68  1604.48
eigval :     1618.40  3025.88  3025.94  3028.47  3028.52  3038.14
eigval :     3038.15  3040.88  3040.92  3047.10  3047.12  3050.88
eigval :     3050.96  3075.50  3075.55  3075.64  3075.73  3080.36
eigval :     3080.43  3080.51  3080.59  3083.13  3083.53  3091.37
eigval :     3091.49  3091.63  3092.06  3097.09  3097.51  3097.66
eigval :     3097.85  3098.03  3098.59  3099.14  3101.01  3490.02

   temp. (K)  partition function   enthalpy   heat capacity  entropy
                                   cal/mol     cal/K/mol   cal/K/mol   J/K/mol
 298.15  VIB  0.126E+18            21897.032    141.249    135.418
         ROT  0.734E+08              888.752      2.981     38.974
         INT  0.928E+25            22785.785    144.230    174.391
         TR   0.136E+29             1481.254      4.968     44.946
         TOT                       24267.0386   149.1978   219.3375   917.7080

       T/K    H(0)-H(T)+PV         H(T)/Eh          T*S/Eh         G(T)/Eh
   ------------------------------------------------------------------------
    298.15    0.386720E-01    0.679521E+00    0.104214E+00    0.575307E+00
   ------------------------------------------------------------------------

         :::::::::::::::::::::::::::::::::::::::::::::::::::::
         ::                  THERMODYNAMIC                  ::
         :::::::::::::::::::::::::::::::::::::::::::::::::::::
         :: total free energy        -116.085511093245 Eh   ::
         ::.................................................::
         :: total energy             -116.660818106183 Eh   ::
         :: zero point energy           0.640849338993 Eh   ::
         :: G(RRHO) w/o ZPVE           -0.065542326054 Eh   ::
         :: G(RRHO) contrib.            0.575307012938 Eh   ::
         :::::::::::::::::::::::::::::::::::::::::::::::::::::

           -------------------------------------------------
          | TOTAL ENERGY             -116.660818106183 Eh   |
          | TOTAL ENTHALPY           -115.981296779666 Eh   |
          | TOTAL FREE ENERGY        -116.085511093245 Eh   |
          | GRADIENT NORM               0.000050916960 Eh/α |
          | HOMO-LUMO GAP               2.176883759632 eV   |
           -------------------------------------------------

 * finished run on 2025/09/13 at 16:05:27.261
