   * xtb version 6.7.1 (edcfbbe) compiled by 'albert@albert-system' on 2024-07-22

   ID    Z sym.   atoms
    1   17 Cl     1, 19, 35
    2    6 C      2, 4, 6-18, 20, 22-34
    3    7 N      3, 5, 21
    4    1 H      36-51

          program call               : xtb data2507/toluene/2,4-CzPyCl3/2,4-CzPyCl3_toluene_S0_crest.xyz --gfn 2 --gbsa toluene --ohess vtight --parallel 40 --molden --ceasefiles --namespace data2507/toluene/2,4-CzPyCl3/2,4-CzPyCl3_toluene_S0_finalOpt
      * Solvation model:               GBSA
        Solvent                        toluene
        Solvent mass                       9.2140E+01 g/mol
          :  Hamiltonian                  GFN2-xTB          :
 * total energy  :   -92.8040858 Eh     change       -0.2237073E-08 Eh
 * total energy  :   -92.8041175 Eh     change       -0.3173445E-04 Eh
 * total energy  :   -92.8041268 Eh     change       -0.9327630E-05 Eh
 * total energy  :   -92.8041291 Eh     change       -0.2285037E-05 Eh
 * total energy  :   -92.8041286 Eh     change        0.5231262E-06 Eh
 * total energy  :   -92.8041305 Eh     change       -0.1915907E-05 Eh
 * total energy  :   -92.8041314 Eh     change       -0.8459999E-06 Eh
 * total energy  :   -92.8041321 Eh     change       -0.7532025E-06 Eh
 * total energy  :   -92.8041326 Eh     change       -0.5141317E-06 Eh
 * total energy  :   -92.8041330 Eh     change       -0.3478653E-06 Eh
 * total energy  :   -92.8041339 Eh     change       -0.3317528E-06 Eh
 * total energy  :   -92.8041342 Eh     change       -0.3559034E-06 Eh
 * total energy  :   -92.8041345 Eh     change       -0.2935417E-06 Eh
 * total energy  :   -92.8041348 Eh     change       -0.2106163E-06 Eh
 * total energy  :   -92.8041349 Eh     change       -0.1941348E-06 Eh
 * total energy  :   -92.8041352 Eh     change       -0.2148044E-06 Eh
 * total energy  :   -92.8041354 Eh     change       -0.1931098E-06 Eh
 * total energy  :   -92.8041355 Eh     change       -0.1268329E-06 Eh
 * total energy  :   -92.8041356 Eh     change       -0.8120446E-07 Eh
   *** GEOMETRY OPTIMIZATION CONVERGED AFTER 21 ITERATIONS ***

 final structure:
================
51
 xtb: 6.7.1 (edcfbbe)
Cl          -0.26402631831874        3.88345990861406        1.84848160147095
C           -0.16663753351647        2.32256147191306        1.14644161730823
N           -1.30844305441597        1.74372932382928        0.86009538547985
C           -1.33537028183800        0.53623488036555        0.30206828487382
N           -2.57748007105978        0.00136732614291        0.04947572953347
C           -2.98718373077870       -1.30861801714330        0.28268229928125
C           -2.33315140190357       -2.33591125199982        0.94322148061619
C           -2.99296827811670       -3.54530577558282        1.07563853159475
C           -4.28120540012889       -3.72603853457963        0.58221756956304
C           -4.95745721240350       -2.68841275185210       -0.03115944978608
C           -4.31305110713354       -1.46725261631733       -0.17354764355973
C           -4.73272942778894       -0.18731498160766       -0.68407275307829
C           -5.91228552956477        0.26480522076309       -1.26057647277467
C           -5.99537127414592        1.59106003703382       -1.63983919589253
C           -4.92113253315630        2.45711521524416       -1.45576388387461
C           -3.73512244648125        2.02592754978350       -0.88717045187392
C           -3.65304096587548        0.70007661329521       -0.49887541594634
C           -0.14020813736017       -0.10898320087108       -0.06034499480142
Cl          -0.14748517129250       -1.52212298201349       -1.05664553015560
C            1.08565072835767        0.47504016013155        0.27876088851949
N            2.28384399584222       -0.14392302572626       -0.04262690965586
C            2.67795520625965       -1.40620268949512        0.37715743632007
C            2.03536442987739       -2.28697655362017        1.23107159977018
C            2.66852056966044       -3.48298061090180        1.51728001979506
C            3.91661521509814       -3.78765893247323        0.98050945865359
C            4.57366931505979       -2.89697291421024        0.15316891790175
C            3.95461474560947       -1.69174142287950       -0.15144081831834
C            4.34095767483181       -0.54942966966602       -0.93770488863608
C            5.45632833356705       -0.25609586423697       -1.71124673296412
C            5.49899073773618        0.95334595816100       -2.37799789487834
C            4.44091582584559        1.85493853806958       -2.29777153537960
C            3.31788935814486        1.58284180733368       -1.53705324643489
C            3.28803363984767        0.38536174127301       -0.84123570873842
C            1.06943684845110        1.72075928527679        0.92945575414967
Cl           2.53357593232194        2.46223119842938        1.44933676997603
H           -1.34721378591592       -2.20201506893286        1.35936970918825
H           -2.49773724051754       -4.36116166464509        1.58061113942481
H           -4.76292014041954       -4.68495326552273        0.70065835604837
H           -5.96969814032474       -2.81636034586601       -0.38221300789201
H           -6.74248176654018       -0.40870215726647       -1.40742295676328
H           -6.90496708767444        1.96472403225422       -2.08578037223903
H           -5.01391088059873        3.48866351042891       -1.76099102670697
H           -2.90713829340589        2.70023291480049       -0.73879429328251
H            1.07737627252504       -2.04641753280792        1.66671618377103
H            2.18634957960214       -4.19084805176350        2.17483952453984
H            4.37937631291911       -4.73183629509223        1.22580356773103
H            5.54972442608724       -3.12652907714587       -0.24579950015395
H            6.26763261185864       -0.96320514684145       -1.79119792535199
H            6.35935734447285        1.20265107312320       -2.98087962691939
H            4.49405492477166        2.78507172673698       -2.84372920071764
H            2.49439138352841        2.27978676125750       -1.49397697003540

          :  Hamiltonian                  GFN2-xTB          :
         :: gradient norm              0.000036134128 Eh/a0 ::
         :: HOMO-LUMO gap              2.351287079002 eV    ::
         :: SCC energy               -94.261460070797 Eh    ::
         :: -> dispersion             -0.081577246225 Eh    ::
         :: -> Gsolv                  -0.035680251977 Eh    ::
         :: repulsion energy           1.457324509172 Eh    ::

    * Orbital Energies and Occupations

         #    Occupation            Energy/Eh            Energy/eV
      -------------------------------------------------------------
         1        2.0000           -1.0844078             -29.5082
       ...           ...                  ...                  ...
        72        2.0000           -0.4321884             -11.7604
        73        2.0000           -0.4307088             -11.7202
        74        2.0000           -0.4289316             -11.6718
        75        2.0000           -0.4282361             -11.6529
        76        2.0000           -0.4276620             -11.6373
        77        2.0000           -0.4217204             -11.4756
        78        2.0000           -0.4196733             -11.4199
        79        2.0000           -0.4151188             -11.2960
        80        2.0000           -0.4142685             -11.2728
        81        2.0000           -0.3897673             -10.6061
        82        2.0000           -0.3888667             -10.5816
        83        2.0000           -0.3809498             -10.3662
        84        2.0000           -0.3806783             -10.3588 (HOMO)
        85                         -0.2942700              -8.0075 (LUMO)
        86                         -0.2845194              -7.7422
        87                         -0.2552668              -6.9462
        88                         -0.2534322              -6.8962
        89                         -0.2325810              -6.3289
        90                         -0.2315199              -6.3000
        91                         -0.2118011              -5.7634
        92                         -0.2035637              -5.5393
        93                         -0.1967403              -5.3536
        94                         -0.1956523              -5.3240
        95                         -0.1831093              -4.9827
       ...                                ...                  ...
       171                          0.7341237              19.9765
      -------------------------------------------------------------
                  HL-Gap            0.0864083 Eh            2.3513 eV

     #   Z          covCN         q      C6AA      α(0)
     1  17 Cl       1.015    -0.108   102.541    15.492
     2   6 C        2.887     0.163    24.481     8.112
     3   7 N        1.918    -0.242    27.157     7.727
     4   6 C        2.908     0.145    24.841     8.173
     5   7 N        2.804    -0.030    21.830     6.939
     6   6 C        3.058     0.047    26.899     8.505
     7   6 C        2.911    -0.045    29.110     8.847
     8   6 C        2.924    -0.031    28.775     8.797
     9   6 C        2.920    -0.037    28.912     8.817
    10   6 C        2.913    -0.031    28.775     8.796
    11   6 C        3.063    -0.010    28.198     8.708
    12   6 C        3.063    -0.011    28.218     8.711
    13   6 C        2.913    -0.031    28.784     8.798
    14   6 C        2.920    -0.036    28.904     8.816
    15   6 C        2.925    -0.030    28.750     8.793
    16   6 C        2.910    -0.044    29.102     8.846
    17   6 C        3.061     0.050    26.809     8.491
    18   6 C        2.882     0.045    26.985     8.516
    19  17 Cl       0.953    -0.126   103.086    15.533
    20   6 C        2.978     0.067    26.492     8.443
    21   7 N        2.802    -0.033    21.873     6.946
    22   6 C        3.066     0.049    26.845     8.496
    23   6 C        2.910    -0.046    29.136     8.851
    24   6 C        2.924    -0.031    28.774     8.797
    25   6 C        2.920    -0.038    28.942     8.822
    26   6 C        2.913    -0.031    28.782     8.797
    27   6 C        3.065    -0.012    28.247     8.715
    28   6 C        3.066    -0.012    28.248     8.715
    29   6 C        2.913    -0.032    28.786     8.798
    30   6 C        2.920    -0.038    28.941     8.822
    31   6 C        2.925    -0.031    28.772     8.796
    32   6 C        2.910    -0.046    29.153     8.854
    33   6 C        3.065     0.049    26.846     8.496
    34   6 C        2.915     0.049    26.909     8.506
    35  17 Cl       0.968    -0.120   102.902    15.519
    36   1 H        0.926     0.027     2.630     2.536
    37   1 H        0.926     0.041     2.434     2.439
    38   1 H        0.926     0.042     2.426     2.436
    39   1 H        0.926     0.046     2.376     2.410
    40   1 H        0.926     0.045     2.380     2.413
    41   1 H        0.926     0.042     2.417     2.431
    42   1 H        0.926     0.043     2.413     2.429
    43   1 H        0.926     0.040     2.445     2.445
    44   1 H        0.926     0.023     2.686     2.563
    45   1 H        0.926     0.040     2.451     2.448
    46   1 H        0.926     0.040     2.453     2.449
    47   1 H        0.926     0.043     2.415     2.430
    48   1 H        0.926     0.043     2.415     2.430
    49   1 H        0.926     0.039     2.457     2.451
    50   1 H        0.926     0.039     2.460     2.453
    51   1 H        0.926     0.026     2.637     2.539

molecular dipole:
                 x           y           z       tot (Debye)
 q only:       -0.476      -0.968      -0.504
   full:       -0.028      -0.924      -0.461       2.627

 projected vibrational frequencies (cm⁻¹)
eigval :       -0.00    -0.00    -0.00     0.00     0.00     0.00
eigval :       19.53    21.94    27.14    42.15    44.22    50.28
eigval :       86.75    93.33   103.46   113.73   134.23   140.76
eigval :      151.27   153.59   167.71   175.54   183.02   198.01
eigval :      216.53   269.76   270.51   273.36   285.60   288.60
eigval :      315.38   326.06   345.94   377.54   394.14   397.36
eigval :      418.70   421.10   433.21   437.44   487.86   495.91
eigval :      513.81   516.10   519.86   525.91   539.00   540.21
eigval :      541.34   578.05   587.05   588.42   604.76   617.67
eigval :      640.30   653.78   671.65   672.87   674.52   694.94
eigval :      706.10   709.48   750.46   754.83   767.89   770.58
eigval :      771.65   780.28   782.80   814.34   865.82   871.26
eigval :      872.45   875.47   892.66   898.20   900.62   903.02
eigval :      904.25   905.28   919.94   922.02   922.75   927.85
eigval :      941.78  1011.87  1012.71  1045.53  1062.28  1066.71
eigval :     1067.86  1072.77  1074.38  1128.01  1146.48  1148.83
eigval :     1151.67  1175.24  1175.92  1178.07  1178.72  1201.69
eigval :     1222.62  1226.64  1232.28  1240.55  1261.10  1277.49
eigval :     1283.07  1291.11  1294.91  1300.92  1312.56  1351.55
eigval :     1353.66  1355.87  1357.45  1403.60  1404.43  1420.92
eigval :     1423.75  1425.44  1454.52  1459.56  1469.61  1470.93
eigval :     1481.78  1483.28  1506.05  1575.62  1576.76  1589.98
eigval :     1590.76  1597.31  1598.77  1607.37  1609.67  3077.38
eigval :     3078.53  3079.86  3081.75  3081.93  3083.02  3087.82
eigval :     3088.42  3090.37  3091.34  3095.99  3097.16  3097.78
eigval :     3099.97  3102.40  3108.68

   temp. (K)  partition function   enthalpy   heat capacity  entropy
                                   cal/mol     cal/K/mol   cal/K/mol   J/K/mol
 298.15  VIB  0.207E+12            15709.216     99.782     95.939
         ROT  0.318E+08              888.752      2.981     37.308
         INT  0.657E+19            16597.968    102.763    133.247
         TR   0.112E+29             1481.254      4.968     44.571
         TOT                       18079.2222   107.7310   177.8179   743.9900

       T/K    H(0)-H(T)+PV         H(T)/Eh          T*S/Eh         G(T)/Eh
   ------------------------------------------------------------------------
    298.15    0.288111E-01    0.388822E+00    0.844870E-01    0.304335E+00
   ------------------------------------------------------------------------

         :::::::::::::::::::::::::::::::::::::::::::::::::::::
         ::                  THERMODYNAMIC                  ::
         :::::::::::::::::::::::::::::::::::::::::::::::::::::
         :: total free energy         -92.499800179424 Eh   ::
         ::.................................................::
         :: total energy              -92.804135560013 Eh   ::
         :: zero point energy           0.360011319983 Eh   ::
         :: G(RRHO) w/o ZPVE           -0.055675939394 Eh   ::
         :: G(RRHO) contrib.            0.304335380589 Eh   ::
         :::::::::::::::::::::::::::::::::::::::::::::::::::::

           -------------------------------------------------
          | TOTAL ENERGY              -92.804135560013 Eh   |
          | TOTAL ENTHALPY            -92.415313165518 Eh   |
          | TOTAL FREE ENERGY         -92.499800179424 Eh   |
          | GRADIENT NORM               0.000036041669 Eh/α |
          | HOMO-LUMO GAP               2.351288886695 eV   |
           -------------------------------------------------

 * finished run on 2025/08/25 at 02:33:32.488
