   * xtb version 6.7.1 (edcfbbe) compiled by 'albert@albert-system' on 2024-07-22

   ID    Z sym.   atoms
    1   17 Cl     1, 19, 35
    2    6 C      2, 4, 6-18, 20, 22-34
    3    7 N      3, 5, 21
    4    1 H      36-51

          program call               : xtb data2507/toluene/2,4-CzPyCl3/2,4-CzPyCl3.xyz --gfn 2 --gbsa toluene --ohess vtight --parallel 40 --molden --ceasefiles --namespace data2507/toluene/2,4-CzPyCl3/2,4-CzPyCl3_toluene_S0_preOpt
      * Solvation model:               GBSA
        Solvent                        toluene
        Solvent mass                       9.2140E+01 g/mol
          :  Hamiltonian                  GFN2-xTB          :
 * total energy  :   -92.7855023 Eh     change       -0.4527735E-08 Eh
 * total energy  :   -92.7993872 Eh     change       -0.1388491E-01 Eh
 * total energy  :   -92.8024490 Eh     change       -0.3061838E-02 Eh
 * total energy  :   -92.8028498 Eh     change       -0.4007826E-03 Eh
 * total energy  :   -92.8031504 Eh     change       -0.3005295E-03 Eh
 * total energy  :   -92.8032916 Eh     change       -0.1412541E-03 Eh
 * total energy  :   -92.8034560 Eh     change       -0.1643867E-03 Eh
 * total energy  :   -92.8035670 Eh     change       -0.1110431E-03 Eh
 * total energy  :   -92.8036546 Eh     change       -0.8752240E-04 Eh
 * total energy  :   -92.8037242 Eh     change       -0.6966223E-04 Eh
 * total energy  :   -92.8041665 Eh     change       -0.2141738E-05 Eh
 * total energy  :   -92.8041680 Eh     change       -0.1568213E-05 Eh
 * total energy  :   -92.8041693 Eh     change       -0.1267921E-05 Eh
 * total energy  :   -92.8041703 Eh     change       -0.1012035E-05 Eh
 * total energy  :   -92.8041709 Eh     change       -0.6286653E-06 Eh
 * total energy  :   -92.8041713 Eh     change       -0.4064746E-06 Eh
 * total energy  :   -92.8041717 Eh     change       -0.3128295E-06 Eh
 * total energy  :   -92.8041719 Eh     change       -0.2840362E-06 Eh
 * total energy  :   -92.8041719 Eh     change       -0.2898915E-08 Eh
   *** GEOMETRY OPTIMIZATION CONVERGED AFTER 44 ITERATIONS ***

 final structure:
================
51
 xtb: 6.7.1 (edcfbbe)
Cl          -0.42462667514721       -3.23598653413513        3.52063167627915
C           -0.22227169106871       -2.06064318341643        2.28919897011896
N           -1.32232125640690       -1.56562474762552        1.77388775189882
C           -1.26680210683601       -0.65272154409446        0.80782826295666
N           -2.46984886696330       -0.17604968708060        0.34010143556040
C           -3.58649093852664       -0.96183211968020        0.05604451010579
C           -3.74887451912335       -2.33189164668050        0.16627739553530
C           -4.95811834298850       -2.87047279180301       -0.23792322587606
C           -5.97652939947110       -2.06866935835458       -0.74576106591167
C           -5.81314084241951       -0.70160097964568       -0.86447223414968
C           -4.60847204863281       -0.14040459746671       -0.46197337414392
C           -4.10936137276201        1.21061676343318       -0.43914746676208
C           -4.67446671620933        2.43587118212290       -0.76510761186395
C           -3.93349675914426        3.58347042748131       -0.55471307831058
C           -2.65927582178786        3.51876367377827        0.00031185530503
C           -2.07783415646775        2.30717671202085        0.33132796705899
C           -2.79608453292621        1.15080267996721        0.07382600128017
C           -0.03061354747978       -0.26029567353850        0.26585582659592
Cl           0.05656872998299        0.68380379954060       -1.17999545409308
C            1.15270083930558       -0.74962629718960        0.83055699129173
N            2.39126311638509       -0.37633092889502        0.33225876478147
C            3.35469837039344       -1.23614190394758       -0.17670308519569
C            3.29371533367821       -2.60614179323419       -0.37266502824182
C            4.39398812463899       -3.22227691034182       -0.94155443752640
C            5.51925790822192       -2.49403449450307       -1.31870245224351
C            5.56932658497721       -1.12328604759942       -1.15249405509804
C            4.47734449324027       -0.48294886469785       -0.58140575819551
C            4.17707761296969        0.89528806417103       -0.29391617438375
C            4.88672940491486        2.07962084937422       -0.44327733627415
C            4.29644237376493        3.26062998170138       -0.03550779287514
C            3.02511233514918        3.26943437382089        0.53219200850791
C            2.30251170145473        2.10137249428216        0.69620362038041
C            2.87961883703932        0.92034860598575        0.26028408015337
C            1.05133613864510       -1.65738376399117        1.89909892028658
Cl           2.46085334221239       -2.23425886087858        2.70143084324521
H           -2.96418143708989       -2.95356563432310        0.56647140409437
H           -5.11346979606224       -3.93591491061768       -0.15639128228780
H           -6.90645974326222       -2.52529256220523       -1.04995582675909
H           -6.60037868030086       -0.08048105429922       -1.26314405268300
H           -5.67616730894921        2.48697712494447       -1.16288756140458
H           -4.35301423397109        4.54659561577164       -0.80379785539765
H           -2.11336778209745        4.43174738252008        0.18563926278927
H           -1.10219663607979        2.27498861216422        0.79007002916559
H            2.41896849752838       -3.17615477239538       -0.09762493587621
H            4.37602977246456       -4.29044013494872       -1.09880328301297
H            6.35892420544508       -3.01154767126347       -1.75800468392795
H            6.43408518952485       -0.55754303780526       -1.46359598293404
H            5.87990389080256        2.07229758627428       -0.86535131193336
H            4.82998966181044        4.19259965057676       -0.14734782815948
H            2.59516007348866        4.20554326784300        0.85592383120799
H            1.32626067413480        2.11161565888502        1.15680582692015

          :  Hamiltonian                  GFN2-xTB          :
         :: gradient norm              0.000042724794 Eh/a0 ::
         :: HOMO-LUMO gap              2.347743108095 eV    ::
         :: SCC energy               -94.261482324882 Eh    ::
         :: -> dispersion             -0.081548868773 Eh    ::
         :: -> Gsolv                  -0.035730477285 Eh    ::
         :: repulsion energy           1.457310386335 Eh    ::

    * Orbital Energies and Occupations

         #    Occupation            Energy/Eh            Energy/eV
      -------------------------------------------------------------
         1        2.0000           -1.0844363             -29.5090
       ...           ...                  ...                  ...
        72        2.0000           -0.4321679             -11.7599
        73        2.0000           -0.4306779             -11.7193
        74        2.0000           -0.4289167             -11.6714
        75        2.0000           -0.4282545             -11.6534
        76        2.0000           -0.4276893             -11.6380
        77        2.0000           -0.4217895             -11.4775
        78        2.0000           -0.4197848             -11.4229
        79        2.0000           -0.4151255             -11.2961
        80        2.0000           -0.4142660             -11.2728
        81        2.0000           -0.3897808             -10.6065
        82        2.0000           -0.3888492             -10.5811
        83        2.0000           -0.3809876             -10.3672
        84        2.0000           -0.3806265             -10.3574 (HOMO)
        85                         -0.2943486              -8.0096 (LUMO)
        86                         -0.2845775              -7.7437
        87                         -0.2552778              -6.9465
        88                         -0.2534415              -6.8965
        89                         -0.2325942              -6.3292
        90                         -0.2315121              -6.2998
        91                         -0.2117624              -5.7623
        92                         -0.2035799              -5.5397
        93                         -0.1967555              -5.3540
        94                         -0.1956369              -5.3236
        95                         -0.1830053              -4.9798
       ...                                ...                  ...
       171                          0.7341433              19.9771
      -------------------------------------------------------------
                  HL-Gap            0.0862779 Eh            2.3477 eV

     #   Z          covCN         q      C6AA      α(0)
     1  17 Cl       1.015    -0.108   102.538    15.492
     2   6 C        2.887     0.163    24.481     8.112
     3   7 N        1.918    -0.242    27.156     7.726
     4   6 C        2.908     0.145    24.839     8.172
     5   7 N        2.804    -0.031    21.834     6.940
     6   6 C        3.062     0.051    26.808     8.491
     7   6 C        2.910    -0.044    29.101     8.846
     8   6 C        2.925    -0.030    28.750     8.793
     9   6 C        2.920    -0.036    28.906     8.817
    10   6 C        2.913    -0.031    28.784     8.798
    11   6 C        3.063    -0.011    28.219     8.711
    12   6 C        3.064    -0.010    28.198     8.708
    13   6 C        2.913    -0.031    28.775     8.796
    14   6 C        2.920    -0.037    28.913     8.818
    15   6 C        2.924    -0.031    28.775     8.797
    16   6 C        2.911    -0.045    29.112     8.847
    17   6 C        3.058     0.047    26.898     8.505
    18   6 C        2.882     0.045    26.983     8.516
    19  17 Cl       0.953    -0.126   103.081    15.533
    20   6 C        2.978     0.067    26.492     8.443
    21   7 N        2.802    -0.033    21.871     6.946
    22   6 C        3.065     0.049    26.847     8.496
    23   6 C        2.910    -0.046    29.153     8.854
    24   6 C        2.925    -0.031    28.772     8.796
    25   6 C        2.920    -0.038    28.940     8.822
    26   6 C        2.913    -0.031    28.785     8.798
    27   6 C        3.065    -0.012    28.246     8.715
    28   6 C        3.065    -0.012    28.246     8.715
    29   6 C        2.913    -0.031    28.781     8.797
    30   6 C        2.920    -0.038    28.942     8.822
    31   6 C        2.924    -0.031    28.774     8.797
    32   6 C        2.910    -0.046    29.136     8.851
    33   6 C        3.066     0.049    26.845     8.496
    34   6 C        2.915     0.049    26.907     8.506
    35  17 Cl       0.968    -0.120   102.894    15.519
    36   1 H        0.926     0.040     2.452     2.448
    37   1 H        0.926     0.043     2.414     2.430
    38   1 H        0.926     0.042     2.418     2.432
    39   1 H        0.926     0.045     2.381     2.413
    40   1 H        0.926     0.046     2.376     2.410
    41   1 H        0.926     0.042     2.426     2.436
    42   1 H        0.926     0.041     2.434     2.440
    43   1 H        0.926     0.027     2.633     2.538
    44   1 H        0.926     0.026     2.640     2.541
    45   1 H        0.926     0.039     2.460     2.453
    46   1 H        0.926     0.039     2.457     2.451
    47   1 H        0.926     0.043     2.414     2.430
    48   1 H        0.926     0.043     2.415     2.430
    49   1 H        0.926     0.040     2.453     2.449
    50   1 H        0.926     0.040     2.451     2.448
    51   1 H        0.926     0.023     2.681     2.561

molecular dipole:
                 x           y           z       tot (Debye)
 q only:       -0.396       0.732      -0.840
   full:        0.045       0.682      -0.771       2.618

 projected vibrational frequencies (cm⁻¹)
eigval :       -0.00    -0.00    -0.00     0.00     0.00     0.00
eigval :       21.27    24.10    29.45    41.10    46.67    50.96
eigval :       87.33    92.94   105.11   114.22   135.00   141.87
eigval :      152.26   154.25   167.98   175.59   183.82   197.68
eigval :      216.68   270.52   271.78   274.87   284.96   288.65
eigval :      315.36   325.30   346.49   376.87   396.37   398.33
eigval :      419.69   422.47   433.87   438.58   488.19   496.52
eigval :      514.26   516.26   519.90   526.56   539.31   541.86
eigval :      542.26   578.41   587.31   588.53   604.92   617.70
eigval :      640.54   654.11   671.55   674.01   674.99   695.34
eigval :      707.96   711.19   750.72   755.23   769.68   771.12
eigval :      772.50   781.40   783.09   814.94   868.21   873.45
eigval :      873.96   876.51   892.87   898.44   903.55   904.43
eigval :      905.86   906.57   922.48   923.21   924.18   925.88
eigval :      942.24  1011.80  1012.82  1045.81  1062.43  1067.97
eigval :     1069.47  1072.28  1075.01  1128.22  1146.90  1149.79
eigval :     1151.49  1174.39  1177.46  1178.67  1179.48  1202.64
eigval :     1222.99  1227.87  1231.49  1241.07  1261.16  1277.69
eigval :     1282.92  1290.77  1295.17  1301.17  1312.71  1351.69
eigval :     1353.75  1355.83  1357.60  1403.76  1404.65  1421.02
eigval :     1424.25  1424.75  1454.64  1459.62  1469.54  1470.96
eigval :     1481.61  1483.43  1506.22  1575.70  1576.68  1590.06
eigval :     1590.82  1597.58  1598.47  1607.63  1609.37  3078.33
eigval :     3078.68  3080.26  3081.49  3082.70  3083.35  3087.61
eigval :     3088.26  3089.89  3091.13  3095.34  3097.26  3097.86
eigval :     3099.98  3101.61  3107.71

   temp. (K)  partition function   enthalpy   heat capacity  entropy
                                   cal/mol     cal/K/mol   cal/K/mol   J/K/mol
 298.15  VIB  0.148E+12            15675.990     99.787     95.587
         ROT  0.318E+08              888.752      2.981     37.309
         INT  0.470E+19            16564.743    102.768    132.897
         TR   0.112E+29             1481.254      4.968     44.571
         TOT                       18045.9965   107.7363   177.4673   742.5232

       T/K    H(0)-H(T)+PV         H(T)/Eh          T*S/Eh         G(T)/Eh
   ------------------------------------------------------------------------
    298.15    0.287581E-01    0.388930E+00    0.843204E-01    0.304610E+00
   ------------------------------------------------------------------------

         :::::::::::::::::::::::::::::::::::::::::::::::::::::
         ::                  THERMODYNAMIC                  ::
         :::::::::::::::::::::::::::::::::::::::::::::::::::::
         :: total free energy         -92.499562180788 Eh   ::
         ::.................................................::
         :: total energy              -92.804171938640 Eh   ::
         :: zero point energy           0.360172070390 Eh   ::
         :: G(RRHO) w/o ZPVE           -0.055562312538 Eh   ::
         :: G(RRHO) contrib.            0.304609757852 Eh   ::
         :::::::::::::::::::::::::::::::::::::::::::::::::::::

           -------------------------------------------------
          | TOTAL ENERGY              -92.804171938640 Eh   |
          | TOTAL ENTHALPY            -92.415241742371 Eh   |
          | TOTAL FREE ENERGY         -92.499562180788 Eh   |
          | GRADIENT NORM               0.000042759177 Eh/α |
          | HOMO-LUMO GAP               2.347742463270 eV   |
           -------------------------------------------------

 * finished run on 2025/08/25 at 02:31:04.517
