   * xtb version 6.7.1 (edcfbbe) compiled by 'albert@albert-system' on 2024-07-22

   ID    Z sym.   atoms
    1   17 Cl     1, 19, 35
    2    6 C      2, 4, 6-18, 20, 22-34
    3    7 N      3, 5, 21
    4    1 H      36-51

          program call               : xtb data2507/toluene/2,4-CzPyCl3/2,4-CzPyCl3_toluene_T1_crest.xyz --gfn 2 --uhf 2 --gbsa toluene --ohess vtight --parallel 40 --molden --ceasefiles --namespace data2507/toluene/2,4-CzPyCl3/2,4-CzPyCl3_toluene_T1_finalOpt
      * Solvation model:               GBSA
        Solvent                        toluene
        Solvent mass                       9.2140E+01 g/mol
          :  Hamiltonian                  GFN2-xTB          :
 * total energy  :   -92.7077130 Eh     change       -0.5927774E-08 Eh
 * total energy  :   -92.7077723 Eh     change       -0.5930701E-04 Eh
 * total energy  :   -92.7077994 Eh     change       -0.2704847E-04 Eh
 * total energy  :   -92.7078088 Eh     change       -0.9441745E-05 Eh
 * total energy  :   -92.7078157 Eh     change       -0.6880197E-05 Eh
 * total energy  :   -92.7078211 Eh     change       -0.5424080E-05 Eh
 * total energy  :   -92.7078268 Eh     change       -0.5698725E-05 Eh
 * total energy  :   -92.7078323 Eh     change       -0.5509458E-05 Eh
 * total energy  :   -92.7078368 Eh     change       -0.4462679E-05 Eh
 * total energy  :   -92.7078408 Eh     change       -0.3992515E-05 Eh
 * total energy  :   -92.7078692 Eh     change       -0.5797230E-06 Eh
 * total energy  :   -92.7078697 Eh     change       -0.5973956E-06 Eh
 * total energy  :   -92.7078704 Eh     change       -0.6965045E-06 Eh
 * total energy  :   -92.7078711 Eh     change       -0.6971479E-06 Eh
 * total energy  :   -92.7078716 Eh     change       -0.4557399E-06 Eh
 * total energy  :   -92.7078718 Eh     change       -0.2235560E-06 Eh
 * total energy  :   -92.7078720 Eh     change       -0.1365604E-06 Eh
 * total energy  :   -92.7078721 Eh     change       -0.1113139E-06 Eh
 * total energy  :   -92.7078721 Eh     change       -0.3965563E-07 Eh
   *** GEOMETRY OPTIMIZATION CONVERGED AFTER 36 ITERATIONS ***

 final structure:
================
51
 xtb: 6.7.1 (edcfbbe)
Cl          -0.37830819555715        4.07349457345646        1.35338245565942
C           -0.22687840023299        2.46619860888243        0.75812479024937
N           -1.36237218692149        1.80275086388335        0.56916561420111
C           -1.36761231220629        0.54745287977493        0.19502372956866
N           -2.57343694800824       -0.07371848608453        0.02654935886416
C           -2.79915724120113       -1.44749467883904        0.05314151152497
C           -1.92507607347412       -2.48879305805460        0.32755504642615
C           -2.42257782604638       -3.78064416921843        0.30319937372251
C           -3.76307165342917       -4.03608906812150        0.03440826927977
C           -4.64877941381344       -2.99895670285344       -0.20966106113682
C           -4.16743127665332       -1.70025728732153       -0.19441941461051
C           -4.80070231982082       -0.41601057032193       -0.36742750852632
C           -6.10590827989012       -0.03698240155014       -0.63348295137603
C           -6.39274393160552        1.31455688207858       -0.74138359273887
C           -5.39325545426518        2.27042538138298       -0.59432265721895
C           -4.08140011840757        1.91138381493646       -0.33155737363372
C           -3.79106800756631        0.56024545275762       -0.21025736931867
C           -0.12751561907688       -0.16056143788955       -0.10323569148370
Cl          -0.07820026336940       -0.80974981437703       -1.78810898071393
C            1.10398552931811        0.54187793935890        0.24507553725216
N            2.30822970083114       -0.13579199919860        0.10370632889842
C            2.59371757741978       -1.34562167257757        0.70412138540151
C            1.82090069789430       -2.08523267762959        1.58711041902484
C            2.34424045272641       -3.27849665872914        2.05280943121775
C            3.61244073890825       -3.70873047256672        1.67176790634403
C            4.40047717092840       -2.95391873351767        0.81760075743254
C            3.89179040687623       -1.76080200762646        0.32897026870976
C            4.40614269735485       -0.73959435041877       -0.54901506059248
C            5.59303703626131       -0.59247877909488       -1.24877827238307
C            5.75063845417084        0.51961317507536       -2.05957282263797
C            4.73439963676195        1.46129730171989       -2.19267531028980
C            3.54092259751410        1.33597863448474       -1.50390872243980
C            3.39325925050056        0.24269554547357       -0.66166208308861
C            1.03969791275418        1.86013858177871        0.63700420770318
Cl           2.45725523184069        2.72889730337854        1.12375507269826
H           -0.88752637871228       -2.29959965645273        0.54862545935713
H           -1.75372814841098       -4.60301431062459        0.50638683462760
H           -4.11790600423398       -5.05553620320786        0.02809683093903
H           -5.69196596836809       -3.19443703463362       -0.40290734708890
H           -6.87953314425762       -0.77920598086763       -0.75399354695564
H           -7.40385100469443        1.63189526096624       -0.94720144246763
H           -5.64158397480830        3.31683398039076       -0.68795624358884
H           -3.30968970728783        2.65375602009084       -0.21944109071422
H            0.85307416028486       -1.73016445345579        1.90633712834369
H            1.76179093598384       -3.88041155196254        2.73386073796630
H            3.99114045686719       -4.64219072319289        2.06013385135475
H            5.38889005995328       -3.28521262774376        0.53878153107342
H            6.37303127782661       -1.33393851555951       -1.16914129973018
H            6.67000316443435        0.65448144523607       -2.60932954763975
H            4.87646097117242        2.30604686957746       -2.85011105942356
H            2.74991029863521        2.05951452590879       -1.62795357284321

          :  Hamiltonian                  GFN2-xTB          :
         :: gradient norm              0.000031624987 Eh/a0 ::
         :: HOMO-LUMO gap              0.897325739160 eV    ::
         :: SCC energy               -94.144218767037 Eh    ::
         :: -> dispersion             -0.081387674945 Eh    ::
         :: -> Gsolv                  -0.039659149029 Eh    ::
         :: repulsion energy           1.436346604625 Eh    ::

    * Orbital Energies and Occupations

         #    Occupation            Energy/Eh            Energy/eV
      -------------------------------------------------------------
         1        2.0000           -1.0755866             -29.2682
       ...           ...                  ...                  ...
        73        2.0000           -0.4322468             -11.7620
        74        2.0000           -0.4312177             -11.7340
        75        2.0000           -0.4292121             -11.6795
        76        2.0000           -0.4215566             -11.4711
        77        2.0000           -0.4194792             -11.4146
        78        2.0000           -0.4175990             -11.3634
        79        2.0000           -0.4103317             -11.1657
        80        2.0000           -0.4024943             -10.9524
        81        2.0000           -0.3944152             -10.7326
        82        2.0000           -0.3926329             -10.6841
        83        1.9967           -0.3817499             -10.3879
        84        1.0033           -0.3709129             -10.0931
        85        1.0000           -0.3033968              -8.2558 (HOMO)
        86                         -0.2704206              -7.3585 (LUMO)
        87                         -0.2579249              -7.0185
        88                         -0.2545023              -6.9254
        89                         -0.2374492              -6.4613
        90                         -0.2361069              -6.4248
        91                         -0.2130284              -5.7968
        92                         -0.2027812              -5.5180
        93                         -0.2004890              -5.4556
        94                         -0.1994661              -5.4277
        95                         -0.1956166              -5.3230
        96                         -0.1635648              -4.4508
       ...                                ...                  ...
       171                          0.7317509              19.9120
      -------------------------------------------------------------
                  HL-Gap            0.0329762 Eh            0.8973 eV

     #   Z          covCN         q      C6AA      α(0)
     1  17 Cl       1.000    -0.153   103.966    15.599
     2   6 C        2.882     0.130    25.160     8.223
     3   7 N        1.902    -0.256    27.500     7.775
     4   6 C        2.901     0.141    24.918     8.185
     5   7 N        2.802     0.004    21.181     6.835
     6   6 C        3.058     0.047    26.897     8.505
     7   6 C        2.910    -0.038    28.950     8.823
     8   6 C        2.922    -0.028    28.690     8.784
     9   6 C        2.920    -0.029    28.726     8.789
    10   6 C        2.912    -0.028    28.690     8.783
    11   6 C        3.060    -0.005    28.098     8.693
    12   6 C        3.061    -0.006    28.118     8.696
    13   6 C        2.912    -0.028    28.695     8.784
    14   6 C        2.920    -0.029    28.726     8.789
    15   6 C        2.923    -0.028    28.710     8.787
    16   6 C        2.910    -0.037    28.916     8.818
    17   6 C        3.058     0.050    26.826     8.494
    18   6 C        2.862    -0.025    28.630     8.771
    19  17 Cl       0.946    -0.196   105.325    15.701
    20   6 C        2.970     0.041    27.084     8.536
    21   7 N        2.802    -0.006    21.378     6.867
    22   6 C        3.077     0.050    26.795     8.487
    23   6 C        2.909    -0.041    29.016     8.833
    24   6 C        2.923    -0.029    28.723     8.789
    25   6 C        2.920    -0.032    28.795     8.800
    26   6 C        2.912    -0.028    28.698     8.784
    27   6 C        3.063    -0.009    28.174     8.704
    28   6 C        3.066    -0.010    28.192     8.707
    29   6 C        2.912    -0.029    28.718     8.787
    30   6 C        2.920    -0.033    28.820     8.803
    31   6 C        2.923    -0.030    28.753     8.793
    32   6 C        2.909    -0.037    28.925     8.819
    33   6 C        3.069     0.052    26.758     8.482
    34   6 C        2.898     0.051    26.851     8.496
    35  17 Cl       0.972    -0.162   104.236    15.620
    36   1 H        0.926     0.053     2.282     2.363
    37   1 H        0.926     0.051     2.307     2.375
    38   1 H        0.926     0.051     2.307     2.375
    39   1 H        0.926     0.053     2.281     2.362
    40   1 H        0.926     0.053     2.278     2.360
    41   1 H        0.926     0.050     2.314     2.379
    42   1 H        0.926     0.048     2.339     2.392
    43   1 H        0.926     0.058     2.222     2.331
    44   1 H        0.926     0.039     2.461     2.453
    45   1 H        0.926     0.048     2.346     2.395
    46   1 H        0.926     0.047     2.358     2.401
    47   1 H        0.926     0.048     2.347     2.396
    48   1 H        0.926     0.048     2.345     2.394
    49   1 H        0.926     0.044     2.393     2.419
    50   1 H        0.926     0.041     2.432     2.439
    51   1 H        0.926     0.032     2.559     2.501

molecular dipole:
                 x           y           z       tot (Debye)
 q only:       -1.002      -2.510      -0.095
   full:       -0.534      -1.975      -0.247       5.237

 projected vibrational frequencies (cm⁻¹)
eigval :       -0.00    -0.00    -0.00     0.00     0.00     0.00
eigval :       12.18    24.54    26.60    42.45    46.71    53.88
eigval :       75.25    88.47    98.09   109.20   130.05   136.57
eigval :      146.49   150.47   152.54   161.01   170.98   194.16
eigval :      217.03   221.98   266.62   271.83   272.77   293.01
eigval :      300.54   334.14   340.27   377.05   394.97   395.88
eigval :      419.93   421.15   430.87   433.09   449.58   477.33
eigval :      481.82   511.59   512.67   516.08   527.41   533.87
eigval :      537.83   550.36   570.69   584.46   586.97   604.27
eigval :      631.39   635.33   638.38   660.52   672.89   674.84
eigval :      708.48   709.03   746.67   751.18   762.75   767.79
eigval :      770.39   772.40   777.43   779.57   868.67   871.18
eigval :      871.37   875.57   887.11   898.15   903.03   903.57
eigval :      906.56   907.99   917.16   920.47   920.96   923.41
eigval :      930.80   959.65  1010.54  1012.61  1031.32  1060.82
eigval :     1064.75  1067.92  1069.77  1106.05  1132.27  1135.34
eigval :     1138.42  1168.43  1171.25  1172.61  1175.23  1181.50
eigval :     1191.22  1200.42  1214.76  1225.69  1228.77  1235.23
eigval :     1266.09  1279.50  1283.14  1287.66  1302.86  1330.59
eigval :     1336.81  1340.55  1357.01  1362.53  1363.90  1402.30
eigval :     1406.22  1408.73  1416.69  1448.58  1456.15  1457.98
eigval :     1474.57  1477.06  1488.13  1564.75  1567.21  1573.79
eigval :     1575.53  1576.64  1580.83  1595.28  1598.61  3080.97
eigval :     3083.01  3084.53  3086.01  3086.62  3087.48  3092.37
eigval :     3093.39  3093.95  3094.54  3099.69  3100.74  3101.03
eigval :     3102.40  3109.19  3127.33

   temp. (K)  partition function   enthalpy   heat capacity  entropy
                                   cal/mol     cal/K/mol   cal/K/mol   J/K/mol
 298.15  VIB  0.569E+12            16035.816    101.277     98.779
         ROT  0.316E+08              888.752      2.981     37.296
         INT  0.180E+20            16924.569    104.258    136.075
         TR   0.112E+29             1481.254      4.968     44.571
         TOT                       18405.8225   109.2259   180.6455   755.8209

       T/K    H(0)-H(T)+PV         H(T)/Eh          T*S/Eh         G(T)/Eh
   ------------------------------------------------------------------------
    298.15    0.293315E-01    0.386271E+00    0.858305E-01    0.300440E+00
   ------------------------------------------------------------------------

         :::::::::::::::::::::::::::::::::::::::::::::::::::::
         ::                  THERMODYNAMIC                  ::
         :::::::::::::::::::::::::::::::::::::::::::::::::::::
         :: total free energy         -92.407431849051 Eh   ::
         ::.................................................::
         :: total energy              -92.707872159895 Eh   ::
         :: zero point energy           0.356939284432 Eh   ::
         :: G(RRHO) w/o ZPVE           -0.056498973589 Eh   ::
         :: G(RRHO) contrib.            0.300440310844 Eh   ::
         :::::::::::::::::::::::::::::::::::::::::::::::::::::

           -------------------------------------------------
          | TOTAL ENERGY              -92.707872159895 Eh   |
          | TOTAL ENTHALPY            -92.321601330196 Eh   |
          | TOTAL FREE ENERGY         -92.407431849051 Eh   |
          | GRADIENT NORM               0.000031962022 Eh/α |
          | HOMO-LUMO GAP               0.897329297174 eV   |
           -------------------------------------------------

 * finished run on 2025/08/25 at 02:36:53.275
