   * xtb version 6.7.1 (edcfbbe) compiled by 'albert@albert-system' on 2024-07-22

   ID    Z sym.   atoms
    1   17 Cl     1, 19, 35
    2    6 C      2, 4, 6-18, 20, 22-34
    3    7 N      3, 5, 21
    4    1 H      36-51

          program call               : xtb data2507/toluene/2,4-CzPyCl3/2,4-CzPyCl3_toluene_S0_finalOpt.xtbopt.xyz --gfn 2 --uhf 2 --gbsa toluene --ohess vtight --parallel 40 --molden --ceasefiles --namespace data2507/toluene/2,4-CzPyCl3/2,4-CzPyCl3_toluene_T1_preOpt
      * Solvation model:               GBSA
        Solvent                        toluene
        Solvent mass                       9.2140E+01 g/mol
          :  Hamiltonian                  GFN2-xTB          :
 * total energy  :   -92.7023750 Eh     change       -0.4243050E-07 Eh
 * total energy  :   -92.7056482 Eh     change       -0.3273199E-02 Eh
 * total energy  :   -92.7071259 Eh     change       -0.1477692E-02 Eh
 * total energy  :   -92.7072942 Eh     change       -0.1682753E-03 Eh
 * total energy  :   -92.7074241 Eh     change       -0.1299036E-03 Eh
 * total energy  :   -92.7074489 Eh     change       -0.2476356E-04 Eh
 * total energy  :   -92.7074796 Eh     change       -0.3076920E-04 Eh
 * total energy  :   -92.7074929 Eh     change       -0.1331220E-04 Eh
 * total energy  :   -92.7075080 Eh     change       -0.1504847E-04 Eh
 * total energy  :   -92.7075191 Eh     change       -0.1115400E-04 Eh
 * total energy  :   -92.7076583 Eh     change       -0.3065755E-06 Eh
 * total energy  :   -92.7076586 Eh     change       -0.3030456E-06 Eh
 * total energy  :   -92.7076588 Eh     change       -0.2485523E-06 Eh
 * total energy  :   -92.7076590 Eh     change       -0.1972367E-06 Eh
 * total energy  :   -92.7076592 Eh     change       -0.1592175E-06 Eh
 * total energy  :   -92.7076593 Eh     change       -0.1346993E-06 Eh
 * total energy  :   -92.7076595 Eh     change       -0.1177972E-06 Eh
 * total energy  :   -92.7076596 Eh     change       -0.1037455E-06 Eh
 * total energy  :   -92.7076596 Eh     change       -0.7402809E-07 Eh
   *** GEOMETRY OPTIMIZATION CONVERGED AFTER 41 ITERATIONS ***

 final structure:
================
51
 xtb: 6.7.1 (edcfbbe)
Cl          -0.25388550665177        3.77136434402640        2.08790036358107
C           -0.17151713199462        2.24576240569941        1.27866027221196
N           -1.33735827372853        1.73983067839279        0.92584456607718
C           -1.33797288594842        0.48368302934724        0.33817138632854
N           -2.59564874711910       -0.02830545093959        0.05562939955485
C           -3.05165925767353       -1.29762405299338        0.34610133235206
C           -2.43601721423296       -2.31714579454666        1.06246905186695
C           -3.12815087709909       -3.50353499756035        1.22681234759075
C           -4.40748000412121       -3.67258904714085        0.70080207141133
C           -5.04525168197347       -2.64514320284584        0.02110117953101
C           -4.37332578222752       -1.44640360937947       -0.15045346168024
C           -4.72989623926885       -0.18194393622667       -0.74049945786971
C           -5.86751510214980        0.29622650719719       -1.36875852958191
C           -5.87059270169623        1.60660418159931       -1.82713649209932
C           -4.76081053269401        2.43286834714959       -1.66297475909820
C           -3.61155796873693        1.97627400150958       -1.04125477529031
C           -3.60612759889036        0.66753195899534       -0.57648612306070
C           -0.16228863566670       -0.16308738101967        0.00870499879480
Cl          -0.18376672138579       -1.60519940060091       -0.96069851932526
C            1.08166120094420        0.39250557839028        0.34315521567139
N            2.29069832174412       -0.19166701123686       -0.02094364912485
C            2.73846895580851       -1.43019250373709        0.37984001575901
C            2.14010889497701       -2.34340628168818        1.23881525565912
C            2.80955904727029       -3.52710237479892        1.48889426891575
C            4.04496469430035       -3.79525352821629        0.90131776033646
C            4.65687651800344       -2.87788063902000        0.06005058317118
C            4.00792316289310       -1.68203128938420       -0.20124364389568
C            4.33404956582153       -0.51679838038783       -0.98127147512618
C            5.41803813210713       -0.15664019790590       -1.76555070292842
C            5.39099315685515        1.07067029911319       -2.41084655382755
C            4.29944464530616        1.92904611919927       -2.28882051456907
C            3.20831566552207        1.59451799813620       -1.50751047366464
C            3.23939379769094        0.37443052259869       -0.84462561842951
C            1.04999407764325        1.65596378075891        1.06257954067562
Cl           2.51397773776262        2.29623966915355        1.70307622251355
H           -1.45579618286553       -2.18271752661640        1.49150729708919
H           -2.66940371926957       -4.31050135103634        1.77733273854712
H           -4.91499140425702       -4.61490074936082        0.84100521097391
H           -6.04673587976153       -2.77289771419517       -0.35920518433699
H           -6.73237315451621       -0.33569438254947       -1.49849176141883
H           -6.74881570194616        1.99496619788353       -2.32048518347819
H           -4.79572887242108        3.44691411522192       -2.03088188646308
H           -2.74951277007839        2.60882966723173       -0.90354232559458
H            1.18961861940509       -2.12704660463895        1.70166519159874
H            2.36927345141013       -4.25482216006715        2.15345011159535
H            4.53671378757826       -4.73242610672345        1.11447057952593
H            5.62018532489153       -3.08796352996502       -0.37850341598569
H            6.26360682220854       -0.81837251397787       -1.87306730544501
H            6.22699453421942        1.36716877214547       -3.02622156186905
H            4.30411615629633        2.87115072342231       -2.81567768530417
H            2.35925200075793        2.25477645776779       -1.41493713522394

          :  Hamiltonian                  GFN2-xTB          :
         :: gradient norm              0.000042039461 Eh/a0 ::
         :: HOMO-LUMO gap              0.363806521313 eV    ::
         :: SCC energy               -94.145569569432 Eh    ::
         :: -> dispersion             -0.080843205176 Eh    ::
         :: -> Gsolv                  -0.040543398598 Eh    ::
         :: repulsion energy           1.437909938712 Eh    ::

    * Orbital Energies and Occupations

         #    Occupation            Energy/Eh            Energy/eV
      -------------------------------------------------------------
         1        2.0000           -1.0749172             -29.2500
       ...           ...                  ...                  ...
        73        2.0000           -0.4327611             -11.7760
        74        2.0000           -0.4321326             -11.7589
        75        2.0000           -0.4310831             -11.7304
        76        2.0000           -0.4212538             -11.4629
        77        2.0000           -0.4198332             -11.4242
        78        2.0000           -0.4176931             -11.3660
        79        2.0000           -0.4067191             -11.0674
        80        2.0000           -0.3989971             -10.8573
        81        2.0000           -0.3952946             -10.7565
        82        2.0000           -0.3937164             -10.7136
        83        1.8128           -0.3828657             -10.4183
        84        1.1872           -0.3800753             -10.3424
        85        0.9991           -0.2751944              -7.4884 (HOMO)
        86        0.0009           -0.2618242              -7.1246 (LUMO)
        87        0.0000           -0.2584761              -7.0335
        88                         -0.2520624              -6.8590
        89                         -0.2399979              -6.5307
        90                         -0.2383805              -6.4867
        91                         -0.2135225              -5.8102
        92                         -0.2078261              -5.6552
        93                         -0.2021010              -5.4994
        94                         -0.2009232              -5.4674
        95                         -0.1683282              -4.5804
        96                         -0.1593443              -4.3360
       ...                                ...                  ...
       171                          0.7299994              19.8643
      -------------------------------------------------------------
                  HL-Gap            0.0133702 Eh            0.3638 eV

     #   Z          covCN         q      C6AA      α(0)
     1  17 Cl       1.019    -0.166   104.384    15.631
     2   6 C        2.871     0.164    24.452     8.106
     3   7 N        1.907    -0.324    29.246     8.018
     4   6 C        2.904     0.099    25.801     8.329
     5   7 N        2.801     0.009    21.104     6.823
     6   6 C        3.070     0.048    26.863     8.498
     7   6 C        2.909    -0.032    28.786     8.798
     8   6 C        2.921    -0.031    28.764     8.795
     9   6 C        2.920    -0.027    28.679     8.782
    10   6 C        2.911    -0.026    28.648     8.777
    11   6 C        3.062    -0.008    28.151     8.701
    12   6 C        3.061    -0.009    28.176     8.705
    13   6 C        2.911    -0.025    28.639     8.775
    14   6 C        2.919    -0.026    28.660     8.779
    15   6 C        2.922    -0.030    28.742     8.792
    16   6 C        2.909    -0.030    28.740     8.791
    17   6 C        3.074     0.053    26.733     8.477
    18   6 C        2.873     0.053    26.810     8.488
    19  17 Cl       0.959    -0.170   104.489    15.638
    20   6 C        2.967    -0.005    28.135     8.700
    21   7 N        2.798     0.007    21.139     6.829
    22   6 C        3.076     0.050    26.800     8.488
    23   6 C        2.909    -0.033    28.827     8.804
    24   6 C        2.922    -0.031    28.778     8.797
    25   6 C        2.920    -0.029    28.725     8.789
    26   6 C        2.911    -0.027    28.669     8.780
    27   6 C        3.063    -0.010    28.199     8.708
    28   6 C        3.063    -0.010    28.204     8.709
    29   6 C        2.911    -0.027    28.672     8.780
    30   6 C        2.920    -0.029    28.727     8.789
    31   6 C        2.922    -0.031    28.770     8.796
    32   6 C        2.909    -0.034    28.835     8.805
    33   6 C        3.077     0.050    26.807     8.489
    34   6 C        2.912     0.033    27.270     8.563
    35  17 Cl       0.963    -0.155   103.999    15.602
    36   1 H        0.926     0.038     2.475     2.460
    37   1 H        0.926     0.049     2.333     2.388
    38   1 H        0.926     0.052     2.297     2.370
    39   1 H        0.926     0.054     2.267     2.355
    40   1 H        0.926     0.055     2.261     2.351
    41   1 H        0.926     0.053     2.283     2.363
    42   1 H        0.926     0.050     2.325     2.384
    43   1 H        0.926     0.051     2.303     2.373
    44   1 H        0.926     0.035     2.516     2.480
    45   1 H        0.926     0.046     2.371     2.408
    46   1 H        0.926     0.048     2.346     2.395
    47   1 H        0.926     0.049     2.327     2.385
    48   1 H        0.926     0.050     2.324     2.384
    49   1 H        0.926     0.048     2.350     2.397
    50   1 H        0.926     0.045     2.388     2.417
    51   1 H        0.926     0.036     2.504     2.474

molecular dipole:
                 x           y           z       tot (Debye)
 q only:       -0.735      -2.199      -1.315
   full:       -0.353      -2.102      -1.211       6.231

 projected vibrational frequencies (cm⁻¹)
eigval :       -0.00    -0.00     0.00     0.00     0.00     0.00
eigval :       15.78    17.51    24.91    36.38    39.60    45.03
eigval :       75.80    83.89    99.22   102.36   130.54   136.11
eigval :      142.95   146.41   161.63   169.29   175.30   189.86
eigval :      209.75   242.04   263.95   264.61   270.90   282.15
eigval :      306.37   322.64   333.88   362.15   384.32   389.34
eigval :      411.08   413.99   418.32   427.57   431.20   481.19
eigval :      485.83   499.28   507.30   507.40   524.51   526.82
eigval :      527.27   531.92   563.91   573.41   581.90   584.95
eigval :      605.48   627.18   639.36   666.67   668.03   684.95
eigval :      703.49   706.06   741.77   751.57   759.04   759.19
eigval :      762.30   765.19   769.71   799.42   856.48   858.59
eigval :      858.82   866.42   888.38   892.11   895.02   897.27
eigval :      899.17   902.64   909.95   910.98   912.14   914.76
eigval :      915.29   972.80  1003.43  1004.96  1030.71  1044.10
eigval :     1058.65  1059.64  1062.61  1064.67  1110.89  1116.45
eigval :     1118.42  1125.29  1165.35  1167.78  1169.15  1171.04
eigval :     1180.01  1194.22  1212.72  1214.65  1221.32  1236.15
eigval :     1252.55  1254.80  1278.03  1281.47  1292.99  1308.99
eigval :     1311.21  1332.40  1364.53  1367.34  1385.56  1390.97
eigval :     1393.72  1399.86  1419.41  1434.62  1450.78  1451.93
eigval :     1457.32  1473.09  1475.03  1543.48  1543.77  1549.25
eigval :     1555.75  1559.39  1565.01  1576.97  1580.16  3082.61
eigval :     3083.60  3086.13  3086.49  3086.90  3087.37  3092.31
eigval :     3093.13  3093.91  3094.51  3099.42  3100.07  3101.30
eigval :     3101.66  3104.94  3110.93

   temp. (K)  partition function   enthalpy   heat capacity  entropy
                                   cal/mol     cal/K/mol   cal/K/mol   J/K/mol
 298.15  VIB  0.123E+13            16229.222    101.781     99.775
         ROT  0.320E+08              888.752      2.981     37.324
         INT  0.394E+20            17117.974    104.762    137.100
         TR   0.112E+29             1481.254      4.968     44.571
         TOT                       18599.2284   109.7302   181.6703   760.1087

       T/K    H(0)-H(T)+PV         H(T)/Eh          T*S/Eh         G(T)/Eh
   ------------------------------------------------------------------------
    298.15    0.296398E-01    0.384283E+00    0.863174E-01    0.297966E+00
   ------------------------------------------------------------------------

         :::::::::::::::::::::::::::::::::::::::::::::::::::::
         ::                  THERMODYNAMIC                  ::
         :::::::::::::::::::::::::::::::::::::::::::::::::::::
         :: total free energy         -92.409693593527 Eh   ::
         ::.................................................::
         :: total energy              -92.707659630169 Eh   ::
         :: zero point energy           0.354643719825 Eh   ::
         :: G(RRHO) w/o ZPVE           -0.056677683183 Eh   ::
         :: G(RRHO) contrib.            0.297966036642 Eh   ::
         :::::::::::::::::::::::::::::::::::::::::::::::::::::

           -------------------------------------------------
          | TOTAL ENERGY              -92.707659630169 Eh   |
          | TOTAL ENTHALPY            -92.323376153249 Eh   |
          | TOTAL FREE ENERGY         -92.409693593527 Eh   |
          | GRADIENT NORM               0.000041858251 Eh/α |
          | HOMO-LUMO GAP               0.363821256391 eV   |
           -------------------------------------------------

 * finished run on 2025/08/25 at 02:33:36.688
