   * xtb version 6.7.1 (edcfbbe) compiled by 'albert@albert-system' on 2024-07-22

   ID    Z sym.   atoms
    1    7 N      1, 7, 14, 20
    2    6 C      2-6, 8-13, 15-19, 21-30
    3    1 H      31-46

          program call               : xtb data2507/gas/DHPZ-2BN/DHPZ-2BN.xyz --gfn 2 --ohess vtight --parallel 40 --molden --ceasefiles --namespace data2507/gas/DHPZ-2BN/DHPZ-2BN_gas_S0_preOpt
          :  Hamiltonian                  GFN2-xTB          :
 * total energy  :   -75.4522412 Eh     change       -0.2226130E-09 Eh
 * total energy  :   -75.4647872 Eh     change       -0.1254605E-01 Eh
 * total energy  :   -75.4684845 Eh     change       -0.3697225E-02 Eh
 * total energy  :   -75.4689667 Eh     change       -0.4822630E-03 Eh
 * total energy  :   -75.4691289 Eh     change       -0.1621677E-03 Eh
 * total energy  :   -75.4691393 Eh     change       -0.1041944E-04 Eh
 * total energy  :   -75.4691412 Eh     change       -0.1857466E-05 Eh
 * total energy  :   -75.4691399 Eh     change        0.1257188E-05 Eh
 * total energy  :   -75.4691417 Eh     change       -0.1763546E-05 Eh
 * total energy  :   -75.4691417 Eh     change       -0.5098849E-07 Eh
   *** GEOMETRY OPTIMIZATION CONVERGED AFTER 10 ITERATIONS ***

 final structure:
================
46
 xtb: 6.7.1 (edcfbbe)
N           -8.13540785263434       -0.00015184607592       -0.00008016275163
C           -6.98937370789987       -0.00012179560731       -0.00000978108240
C           -5.57468142981799       -0.00007131224751       -0.00001127463517
C           -4.87984315681140       -0.00005259412356       -1.21019351287260
C           -3.49944393595972       -0.00000883556388       -1.20597339173835
C           -2.80552448578298        0.00001432658444        0.00001024814990
N           -1.38786355313697        0.00002778541019        0.00002165233521
C           -0.70290016307807        1.21423272408726        0.00000305485208
C           -1.38147077879667        2.42187253609504        0.00004399393141
C           -0.68835748057140        3.62680221591732        0.00003097975193
C            0.68833859563948        3.62680689472201       -0.00002441918681
C            1.38145717453503        2.42188114556203       -0.00006259516395
C            0.70289120197228        1.21423829527396       -0.00004749711823
N            1.38786334986127        0.00003954753713       -0.00008711533936
C            2.80552424213255        0.00004720136284       -0.00003333963690
C            3.49941292758759       -0.00000411402106        1.20596891328588
C            4.87981295344064       -0.00004105672472        1.21022449005730
C            5.57468111828965       -0.00002831258624        0.00005852740831
C            6.98937378462634       -0.00013246470146        0.00006850332157
N            8.13541083741418       -0.00008995203821        0.00016216887675
C            4.87989139818371        0.00003442458763       -1.21014935302330
C            3.49949358579689        0.00007235463488       -1.20598681367962
C            0.70290045690753       -1.21416776814319       -0.00004968037000
C            1.38147010744306       -2.42180941811402       -0.00007622136267
C            0.68835720356974       -3.62673933095684       -0.00004154968246
C           -0.68833830809862       -3.62674406294931        0.00002032899400
C           -1.38145662648358       -2.42181813043648        0.00004054659824
C           -0.70289178828489       -1.21417335778043        0.00000161404653
C           -3.49946315462305        0.00000484498707        1.20598241491722
C           -4.87986167914790       -0.00003904510953        1.21018055450219
H           -5.42709843787555       -0.00007770770566       -2.14108776721585
H           -2.94773571131640        0.00000101339042       -2.13398619293083
H           -2.46087920828378        2.42690579331136        0.00008869582613
H           -1.23899035102165        4.55450342512904        0.00006314724447
H            1.23896766943586        4.55451074957066       -0.00003883541991
H            2.46086566363698        2.42692045439496       -0.00010572834823
H            2.94768055728504       -0.00005579379716        2.13396750685816
H            5.42704440788555       -0.00008750809789        2.14113253425589
H            5.42718658468778        0.00004356794149       -2.14101995529117
H            2.94782505610180        0.00007902816164       -2.13402296698040
H            2.46087828762598       -2.42684767690108       -0.00012647753760
H            1.23898942695183       -4.55444110844188       -0.00006408400458
H           -1.23896665142507       -4.55444852624773        0.00004978961666
H           -2.46086485270385       -2.42686254866704        0.00008818629718
H           -2.94777087623079        0.00002513026491        2.13400459519661
H           -5.42713240102625       -0.00005419188816        2.14106526904838

          :  Hamiltonian                  GFN2-xTB          :
         :: gradient norm              0.000068230167 Eh/a0 ::
         :: HOMO-LUMO gap              1.291682057089 eV    ::
         :: SCC energy               -76.930237878672 Eh    ::
         :: -> dispersion             -0.063253367945 Eh    ::
         :: repulsion energy           1.461096144573 Eh    ::

    * Orbital Energies and Occupations

         #    Occupation            Energy/Eh            Energy/eV
      -------------------------------------------------------------
         1        2.0000           -0.6888691             -18.7451
       ...           ...                  ...                  ...
        58        2.0000           -0.4421999             -12.0329
        59        2.0000           -0.4420665             -12.0292
        60        2.0000           -0.4407299             -11.9929
        61        2.0000           -0.4384814             -11.9317
        62        2.0000           -0.4339476             -11.8083
        63        2.0000           -0.4310318             -11.7290
        64        2.0000           -0.4300399             -11.7020
        65        2.0000           -0.4282237             -11.6526
        66        2.0000           -0.4269038             -11.6166
        67        2.0000           -0.4153054             -11.3010
        68        2.0000           -0.4134136             -11.2496
        69        2.0000           -0.3857602             -10.4971
        70        2.0000           -0.3344299              -9.1003 (HOMO)
        71                         -0.2869614              -7.8086 (LUMO)
        72                         -0.2867902              -7.8040
        73                         -0.2591416              -7.0516
        74                         -0.2591227              -7.0511
        75                         -0.2380802              -6.4785
        76                         -0.2302788              -6.2662
        77                         -0.2159358              -5.8759
        78                         -0.2158346              -5.8732
        79                         -0.2116899              -5.7604
        80                         -0.1947136              -5.2984
        81                         -0.1883940              -5.1265
       ...                                ...                  ...
       136                          1.1621891              31.6248
      -------------------------------------------------------------
                  HL-Gap            0.0474685 Eh            1.2917 eV

     #   Z          covCN         q      C6AA      α(0)
     1   7 N        0.911    -0.224    25.901     7.361
     2   6 C        1.912     0.113    28.317     8.594
     3   6 C        2.974     0.021    27.543     8.609
     4   6 C        2.926    -0.019    28.477     8.751
     5   6 C        2.921    -0.034    28.842     8.807
     6   6 C        2.925     0.080    26.214     8.396
     7   7 N        2.753    -0.085    22.894     7.106
     8   6 C        2.926     0.049    26.905     8.506
     9   6 C        2.923    -0.061    29.526     8.911
    10   6 C        2.918    -0.041    29.013     8.833
    11   6 C        2.918    -0.041    29.013     8.833
    12   6 C        2.923    -0.061    29.526     8.911
    13   6 C        2.926     0.049    26.905     8.506
    14   7 N        2.753    -0.085    22.894     7.106
    15   6 C        2.925     0.080    26.214     8.396
    16   6 C        2.921    -0.034    28.842     8.807
    17   6 C        2.926    -0.019    28.477     8.751
    18   6 C        2.974     0.021    27.543     8.609
    19   6 C        1.912     0.113    28.317     8.594
    20   7 N        0.911    -0.224    25.901     7.361
    21   6 C        2.926    -0.019    28.477     8.751
    22   6 C        2.921    -0.034    28.842     8.807
    23   6 C        2.926     0.049    26.905     8.506
    24   6 C        2.923    -0.061    29.526     8.911
    25   6 C        2.918    -0.041    29.013     8.833
    26   6 C        2.918    -0.041    29.013     8.833
    27   6 C        2.923    -0.061    29.526     8.911
    28   6 C        2.926     0.049    26.905     8.506
    29   6 C        2.921    -0.034    28.842     8.807
    30   6 C        2.926    -0.019    28.477     8.751
    31   1 H        0.926     0.050     2.314     2.379
    32   1 H        0.926     0.051     2.310     2.377
    33   1 H        0.926     0.022     2.698     2.569
    34   1 H        0.926     0.030     2.583     2.513
    35   1 H        0.926     0.030     2.583     2.513
    36   1 H        0.926     0.022     2.698     2.569
    37   1 H        0.926     0.051     2.310     2.377
    38   1 H        0.926     0.050     2.314     2.379
    39   1 H        0.926     0.050     2.314     2.379
    40   1 H        0.926     0.051     2.310     2.377
    41   1 H        0.926     0.022     2.698     2.569
    42   1 H        0.926     0.030     2.583     2.513
    43   1 H        0.926     0.030     2.583     2.513
    44   1 H        0.926     0.022     2.698     2.569
    45   1 H        0.926     0.051     2.310     2.377
    46   1 H        0.926     0.050     2.314     2.379

molecular dipole:
                 x           y           z       tot (Debye)
 q only:       -0.000       0.000      -0.000
   full:       -0.000       0.000      -0.000       0.000

 projected vibrational frequencies (cm⁻¹)
eigval :       -0.00    -0.00     0.00     0.00     0.00     0.00
eigval :      -49.63   -42.89    11.34    27.90    30.46    31.52
eigval :       42.62   108.14   115.20   120.84   123.95   135.25
eigval :      166.64   172.92   191.12   241.78   243.27   258.66
eigval :      267.41   346.17   361.86   363.11   367.28   382.28
eigval :      398.85   410.28   418.80   439.85   447.15   462.97
eigval :      487.00   507.06   513.45   532.46   532.48   533.75
eigval :      549.08   549.51   588.45   591.20   618.76   618.97
eigval :      642.64   653.01   653.89   689.13   693.34   703.77
eigval :      767.71   769.06   772.71   794.57   811.15   816.62
eigval :      849.69   849.89   867.13   867.20   883.14   883.92
eigval :      890.49   909.54   910.07   915.09   915.89   921.78
eigval :      922.56   925.77   925.88   946.95  1015.58  1020.64
eigval :     1107.33  1108.39  1122.65  1124.84  1125.17  1125.87
eigval :     1176.39  1178.05  1182.05  1182.36  1186.25  1200.44
eigval :     1227.45  1235.54  1241.70  1256.34  1257.03  1264.19
eigval :     1272.73  1302.46  1302.56  1306.10  1315.72  1329.45
eigval :     1371.58  1372.86  1395.18  1395.51  1425.98  1438.65
eigval :     1474.80  1478.27  1506.32  1517.76  1551.37  1551.52
eigval :     1556.22  1581.48  1583.19  1587.40  1591.93  1600.85
eigval :     2377.79  2378.33  3086.77  3086.97  3089.00  3089.05
eigval :     3089.37  3089.71  3090.22  3090.80  3096.83  3097.21
eigval :     3100.00  3100.18  3100.64  3100.64  3106.02  3106.53

   temp. (K)  partition function   enthalpy   heat capacity  entropy
                                   cal/mol     cal/K/mol   cal/K/mol   J/K/mol
 298.15  VIB  0.153E+10            12538.112     81.890     75.609
         ROT  0.455E+07              888.752      2.981     33.448
         INT  0.695E+16            13426.864     84.871    109.057
         TR   0.729E+28             1481.254      4.968     43.712
         TOT                       14908.1180    89.8390   152.7692   639.1864

       T/K    H(0)-H(T)+PV         H(T)/Eh          T*S/Eh         G(T)/Eh
   ------------------------------------------------------------------------
    298.15    0.237576E-01    0.362946E+00    0.725856E-01    0.290361E+00
   ------------------------------------------------------------------------

         :::::::::::::::::::::::::::::::::::::::::::::::::::::
         ::                  THERMODYNAMIC                  ::
         :::::::::::::::::::::::::::::::::::::::::::::::::::::
         :: total free energy         -75.178781121598 Eh   ::
         ::.................................................::
         :: total energy              -75.469141734099 Eh   ::
         :: zero point energy           0.339188595655 Eh   ::
         :: G(RRHO) w/o ZPVE           -0.048827983154 Eh   ::
         :: G(RRHO) contrib.            0.290360612501 Eh   ::
         :::::::::::::::::::::::::::::::::::::::::::::::::::::

           -------------------------------------------------
          | TOTAL ENERGY              -75.469141734099 Eh   |
          | TOTAL ENTHALPY            -75.106195540121 Eh   |
          | TOTAL FREE ENERGY         -75.178781121598 Eh   |
          | GRADIENT NORM               0.000068113870 Eh/α |
          | HOMO-LUMO GAP               1.291683959059 eV   |
           -------------------------------------------------

 * finished run on 2025/09/04 at 23:55:50.949
