   * xtb version 6.7.1 (edcfbbe) compiled by 'albert@albert-system' on 2024-07-22

   ID    Z sym.   atoms
    1    7 N      1, 7, 14, 20
    2    6 C      2-6, 8-13, 15-19, 21-30
    3    1 H      31-46

          program call               : xtb data2507/gas/DHPZ-2BN/DHPZ-2BN_gas_S0_crest.xyz --gfn 2 --ohess vtight --parallel 40 --molden --ceasefiles --namespace data2507/gas/DHPZ-2BN/DHPZ-2BN_gas_S0_finalOpt
          :  Hamiltonian                  GFN2-xTB          :
 * total energy  :   -75.4714989 Eh     change       -0.1390816E-09 Eh
 * total energy  :   -75.4714986 Eh     change        0.2985000E-06 Eh
 * total energy  :   -75.4714992 Eh     change       -0.6253699E-06 Eh
 * total energy  :   -75.4714982 Eh     change        0.1030314E-05 Eh
 * total energy  :   -75.4714996 Eh     change       -0.1439111E-05 Eh
 * total energy  :   -75.4714998 Eh     change       -0.2381609E-06 Eh
 * total energy  :   -75.4715003 Eh     change       -0.4769019E-06 Eh
 * total energy  :   -75.4715009 Eh     change       -0.5740272E-06 Eh
 * total energy  :   -75.4715012 Eh     change       -0.3238308E-06 Eh
 * total energy  :   -75.4715014 Eh     change       -0.1652215E-06 Eh
 * total energy  :   -75.4715016 Eh     change       -0.1689842E-06 Eh
 * total energy  :   -75.4715017 Eh     change       -0.1106180E-06 Eh
 * total energy  :   -75.4715018 Eh     change       -0.1058626E-06 Eh
 * total energy  :   -75.4715018 Eh     change       -0.9246762E-08 Eh
   *** GEOMETRY OPTIMIZATION CONVERGED AFTER 14 ITERATIONS ***

 final structure:
================
46
 xtb: 6.7.1 (edcfbbe)
N           -8.14364636452785        0.00270670322858        0.04542828901857
C           -6.99703954203809        0.00288178437963        0.03392600742935
C           -5.58440726809987        0.00247207693863        0.02103555546314
C           -4.89511065221884        0.56673479612480       -1.05443954147997
C           -3.51652973226269        0.56432218384329       -1.06389413855138
C           -2.80602885223869        0.00174026593864       -0.00348477311707
N           -1.39751987029389        0.00161958338613       -0.01484100903608
C           -0.70171332214228        1.21335754485214        0.00125963343630
C           -1.37076425159368        2.42666332949704        0.08403033697514
C           -0.68133802008735        3.62966489115875        0.04467354305199
C            0.69008156794466        3.62767168550930       -0.08958072023041
C            1.37617681837616        2.42266335537081       -0.12489501097743
C            0.70385376727672        1.21150157754577       -0.03733590211419
N            1.39781426157724       -0.00138943402773       -0.01627667785909
C            2.80621750965581       -0.00114062267616       -0.00416010877492
C            3.49743103184836        0.56257450285223        1.06842924430682
C            4.87584159173728        0.56417273323556        1.08474893164118
C            5.58470464215494       -0.00200189291304        0.02302143446505
C            6.99730342053911       -0.00348265115587        0.03731172043504
N            8.14389551732540       -0.00486976294020        0.04869374464403
C            4.89634770997777       -0.56686620784074       -1.05273115180109
C            3.51777328218294       -0.56421601623232       -1.06361149905506
C            0.70192384966176       -1.21324348806029       -0.00225002142211
C            1.37080529833910       -2.42689468085603        0.07686057794522
C            0.68112269205217       -3.62971210862784        0.03629262115448
C           -0.69057828715035       -3.62730765243521       -0.09497839236239
C           -1.37648302062908       -2.42211319666461       -0.12671765991911
C           -0.70371563386429       -1.21123012445872       -0.03862322404126
C           -3.49809244939065       -0.56102787988557        1.06896776525349
C           -4.87655477491764       -0.56265035450174        1.08399094619800
H           -5.44781569691466        0.99535586537659       -1.87715832769208
H           -2.97629328816650        0.99285836415352       -1.89487549218752
H           -2.44459671855163        2.43932280124166        0.18366601629442
H           -1.22835412295484        4.55710258189492        0.10856303860561
H            1.23954213390576        4.55344542425672       -0.15643763721376
H            2.45011758547012        2.43175479465196       -0.22411062506053
H            2.94201671934358        0.99311788997045        1.88830204103914
H            5.41334081792683        0.99348762915479        1.91711356953724
H            5.44977394479244       -0.99624460169858       -1.87456660723720
H            2.97844155433762       -0.99299419583690       -1.89504879179992
H            2.44478424971429       -2.44014364683274        0.17466225339342
H            1.22818355859092       -4.55734278847794        0.09691112384980
H           -1.24033298972473       -4.55287212318204       -0.16231617917355
H           -2.45064291323455       -2.43076393660530       -0.22355597170789
H           -2.94339706767582       -0.99082439006142        1.88971780320899
H           -5.41483902875304       -0.99124943999096        1.91621477416749

          :  Hamiltonian                  GFN2-xTB          :
         :: gradient norm              0.000112429319 Eh/a0 ::
         :: HOMO-LUMO gap              1.587798125818 eV    ::
         :: SCC energy               -76.930499859430 Eh    ::
         :: -> dispersion             -0.063486208950 Eh    ::
         :: repulsion energy           1.458998075996 Eh    ::

    * Orbital Energies and Occupations

         #    Occupation            Energy/Eh            Energy/eV
      -------------------------------------------------------------
         1        2.0000           -0.6915885             -18.8191
       ...           ...                  ...                  ...
        58        2.0000           -0.4438294             -12.0772
        59        2.0000           -0.4429016             -12.0520
        60        2.0000           -0.4418325             -12.0229
        61        2.0000           -0.4377953             -11.9130
        62        2.0000           -0.4328065             -11.7773
        63        2.0000           -0.4276095             -11.6358
        64        2.0000           -0.4268296             -11.6146
        65        2.0000           -0.4261924             -11.5973
        66        2.0000           -0.4257472             -11.5852
        67        2.0000           -0.4211112             -11.4590
        68        2.0000           -0.4178112             -11.3692
        69        2.0000           -0.3903961             -10.6232
        70        2.0000           -0.3421210              -9.3096 (HOMO)
        71                         -0.2837704              -7.7218 (LUMO)
        72                         -0.2820070              -7.6738
        73                         -0.2552680              -6.9462
        74                         -0.2550342              -6.9398
        75                         -0.2445787              -6.6553
        76                         -0.2357085              -6.4140
        77                         -0.2193436              -5.9686
        78                         -0.2115910              -5.7577
        79                         -0.2114822              -5.7547
        80                         -0.2025374              -5.5113
        81                         -0.1828223              -4.9748
       ...                                ...                  ...
       136                          1.1661307              31.7320
      -------------------------------------------------------------
                  HL-Gap            0.0583506 Eh            1.5878 eV

     #   Z          covCN         q      C6AA      α(0)
     1   7 N        0.911    -0.231    26.054     7.382
     2   6 C        1.912     0.111    28.351     8.599
     3   6 C        2.973     0.016    27.644     8.624
     4   6 C        2.925    -0.020    28.514     8.757
     5   6 C        2.921    -0.038    28.939     8.822
     6   6 C        2.923     0.074    26.347     8.418
     7   7 N        2.752    -0.073    22.658     7.070
     8   6 C        2.925     0.049    26.911     8.507
     9   6 C        2.924    -0.059    29.471     8.903
    10   6 C        2.918    -0.039    28.971     8.826
    11   6 C        2.918    -0.039    28.972     8.827
    12   6 C        2.924    -0.059    29.468     8.902
    13   6 C        2.926     0.048    26.912     8.507
    14   7 N        2.752    -0.073    22.656     7.069
    15   6 C        2.923     0.074    26.348     8.418
    16   6 C        2.921    -0.038    28.938     8.822
    17   6 C        2.925    -0.020    28.513     8.757
    18   6 C        2.973     0.016    27.645     8.624
    19   6 C        1.912     0.111    28.351     8.599
    20   7 N        0.911    -0.231    26.056     7.383
    21   6 C        2.925    -0.020    28.514     8.757
    22   6 C        2.921    -0.038    28.940     8.822
    23   6 C        2.925     0.049    26.911     8.507
    24   6 C        2.924    -0.059    29.471     8.903
    25   6 C        2.918    -0.039    28.971     8.826
    26   6 C        2.918    -0.039    28.972     8.827
    27   6 C        2.924    -0.059    29.468     8.902
    28   6 C        2.926     0.049    26.912     8.507
    29   6 C        2.921    -0.038    28.937     8.821
    30   6 C        2.925    -0.020    28.513     8.757
    31   1 H        0.926     0.048     2.347     2.396
    32   1 H        0.926     0.048     2.347     2.396
    33   1 H        0.926     0.030     2.587     2.515
    34   1 H        0.926     0.033     2.538     2.491
    35   1 H        0.926     0.033     2.538     2.491
    36   1 H        0.926     0.030     2.588     2.516
    37   1 H        0.926     0.048     2.349     2.397
    38   1 H        0.926     0.048     2.348     2.396
    39   1 H        0.926     0.048     2.348     2.396
    40   1 H        0.926     0.048     2.347     2.396
    41   1 H        0.926     0.030     2.586     2.515
    42   1 H        0.926     0.033     2.538     2.491
    43   1 H        0.926     0.033     2.538     2.491
    44   1 H        0.926     0.030     2.589     2.516
    45   1 H        0.926     0.048     2.349     2.397
    46   1 H        0.926     0.048     2.347     2.396

molecular dipole:
                 x           y           z       tot (Debye)
 q only:       -0.003       0.001      -0.021
   full:       -0.004       0.001      -0.028       0.072

 projected vibrational frequencies (cm⁻¹)
eigval :       -0.00    -0.00    -0.00     0.00     0.00     0.00
eigval :        9.31    30.73    37.88    43.56    49.89    61.97
eigval :       63.19   122.18   125.68   126.00   127.51   139.74
eigval :      170.02   191.38   197.39   249.78   250.06   268.93
eigval :      276.79   346.57   368.02   371.02   372.48   382.90
eigval :      399.41   408.65   432.28   447.35   462.25   462.34
eigval :      488.32   506.72   519.63   532.03   532.10   536.20
eigval :      550.39   550.68   589.36   592.85   618.60   621.38
eigval :      640.59   657.79   661.70   685.40   693.31   697.87
eigval :      771.53   771.73   773.04   793.60   815.96   820.78
eigval :      857.48   860.06   870.11   872.66   889.49   894.03
eigval :      894.09   911.64   912.77   921.05   921.55   922.38
eigval :      922.52   930.87   931.24   943.99  1014.18  1019.15
eigval :     1114.51  1115.64  1123.82  1126.64  1129.46  1129.53
eigval :     1178.89  1180.23  1184.23  1185.09  1189.52  1205.11
eigval :     1230.72  1237.03  1243.47  1257.36  1259.35  1265.57
eigval :     1273.60  1306.73  1307.87  1312.47  1316.23  1328.74
eigval :     1358.41  1362.03  1400.02  1403.01  1425.85  1437.93
eigval :     1473.30  1476.41  1493.08  1510.71  1543.98  1544.14
eigval :     1560.76  1577.35  1578.65  1584.05  1589.05  1595.68
eigval :     2370.69  2372.05  3087.55  3087.57  3088.72  3088.88
eigval :     3091.48  3091.64  3097.88  3098.00  3098.65  3098.69
eigval :     3099.06  3099.19  3105.88  3106.32  3110.91  3111.37

   temp. (K)  partition function   enthalpy   heat capacity  entropy
                                   cal/mol     cal/K/mol   cal/K/mol   J/K/mol
 298.15  VIB  0.841E+10            13360.875     85.404     82.406
         ROT  0.913E+07              888.752      2.981     34.831
         INT  0.768E+17            14249.628     88.385    117.237
         TR   0.729E+28             1481.254      4.968     43.712
         TOT                       15730.8815    93.3535   160.9488   673.4096

       T/K    H(0)-H(T)+PV         H(T)/Eh          T*S/Eh         G(T)/Eh
   ------------------------------------------------------------------------
    298.15    0.250688E-01    0.365260E+00    0.764720E-01    0.288788E+00
   ------------------------------------------------------------------------

         :::::::::::::::::::::::::::::::::::::::::::::::::::::
         ::                  THERMODYNAMIC                  ::
         :::::::::::::::::::::::::::::::::::::::::::::::::::::
         :: total free energy         -75.182713505326 Eh   ::
         ::.................................................::
         :: total energy              -75.471501783429 Eh   ::
         :: zero point energy           0.340191474076 Eh   ::
         :: G(RRHO) w/o ZPVE           -0.051403195973 Eh   ::
         :: G(RRHO) contrib.            0.288788278104 Eh   ::
         :::::::::::::::::::::::::::::::::::::::::::::::::::::

           -------------------------------------------------
          | TOTAL ENERGY              -75.471501783429 Eh   |
          | TOTAL ENTHALPY            -75.106241554021 Eh   |
          | TOTAL FREE ENERGY         -75.182713505326 Eh   |
          | GRADIENT NORM               0.000112280879 Eh/α |
          | HOMO-LUMO GAP               1.587800108671 eV   |
           -------------------------------------------------

 * finished run on 2025/09/04 at 23:57:03.244
