   * xtb version 6.7.1 (edcfbbe) compiled by 'albert@albert-system' on 2024-07-22

   ID    Z sym.   atoms
    1    7 N      1, 7, 14, 20
    2    6 C      2-6, 8-13, 15-19, 21-30
    3    1 H      31-46

          program call               : xtb data2507/gas/DHPZ-2BN/DHPZ-2BN_gas_S0_finalOpt.xtbopt.xyz --gfn 2 --spinpol --tblite --uhf 2 --ohess vtight --parallel 40 --molden --ceasefiles --namespace data2507/gas/DHPZ-2BN/DHPZ-2BN_gas_T1_preOpt
 * total energy  :   -75.3914903 Eh     change       -0.8596430E-08 Eh
 * total energy  :   -75.3955679 Eh     change       -0.4077609E-02 Eh
 * total energy  :   -75.3964617 Eh     change       -0.8937558E-03 Eh
 * total energy  :   -75.3965614 Eh     change       -0.9971383E-04 Eh
 * total energy  :   -75.3965766 Eh     change       -0.1517072E-04 Eh
 * total energy  :   -75.3967010 Eh     change       -0.1244338E-03 Eh
 * total energy  :   -75.3967354 Eh     change       -0.3435184E-04 Eh
 * total energy  :   -75.3967403 Eh     change       -0.4943776E-05 Eh
 * total energy  :   -75.3967807 Eh     change       -0.4041295E-04 Eh
 * total energy  :   -75.3967941 Eh     change       -0.1342555E-04 Eh
 * total energy  :   -75.3970603 Eh     change       -0.7556148E-06 Eh
 * total energy  :   -75.3970611 Eh     change       -0.7763314E-06 Eh
 * total energy  :   -75.3970618 Eh     change       -0.7357774E-06 Eh
 * total energy  :   -75.3970626 Eh     change       -0.7666159E-06 Eh
 * total energy  :   -75.3970633 Eh     change       -0.7506007E-06 Eh
 * total energy  :   -75.3970640 Eh     change       -0.7183977E-06 Eh
 * total energy  :   -75.3970648 Eh     change       -0.7179384E-06 Eh
 * total energy  :   -75.3970647 Eh     change        0.1811384E-07 Eh
 * total energy  :   -75.3970648 Eh     change       -0.3132517E-07 Eh
   *** GEOMETRY OPTIMIZATION CONVERGED AFTER 69 ITERATIONS ***

 final structure:
================
46
 xtb: 6.7.1 (edcfbbe)
N           -8.14660324799221        0.00457590906686        0.00256223609246
C           -6.99453321906813        0.00421955613778        0.00101226075600
C           -5.59324193391909        0.00382364578427       -0.00083885196492
C           -4.88422638111386        0.39788146083732       -1.15205942996865
C           -3.51153444823071        0.39804252508131       -1.15082604027838
C           -2.81349989029230        0.00287054169692       -0.00452184909952
N           -1.39001271616391        0.00187178728405       -0.00627095036476
C           -0.71415010053761        1.19600518923270        0.01410594474851
C           -1.38840912398536        2.42071674854411        0.07595898852993
C           -0.69650197885007        3.60735514519751        0.04740781446935
C            0.70356070845540        3.60603711447655       -0.05391925169811
C            1.39313750091789        2.41812399708648       -0.08375503838150
C            0.71645025176925        1.19460884437766       -0.02345262386315
N            1.39008610303734       -0.00076957881771       -0.00395716760406
C            2.81356420768219       -0.00214108597116       -0.00272825274234
C            3.50970093233604        0.39052352880003        1.14560432294652
C            4.88235807059537        0.38857702547278        1.14976747641581
C            5.59333570063285       -0.00475955374852       -0.00053047222569
C            6.99458092869379       -0.00602446867437        0.00055673671688
N            8.14669464149121       -0.00705109440918        0.00144659310104
C            4.88343783283496       -0.39680809534606       -1.15193810907515
C            3.51077910422267       -0.39618209938881       -1.14993550997671
C            0.71421487720587       -1.19491033397667        0.01396441000512
C            1.38831133895976       -2.41970930022455        0.07605403750244
C            0.69646336068812       -3.60627303405873        0.04423885740808
C           -0.70337626747167       -3.60480647133107       -0.06104338028522
C           -1.39289124371679       -2.41687963627049       -0.09075223728096
C           -0.71636214576967       -1.19345665946158       -0.02672417822577
C           -3.50877958182354       -0.39186955408794        1.14359479441011
C           -4.88144472908002       -0.39071695055794        1.14852595853707
H           -5.43190677684210        0.69716984987868       -2.03277738184324
H           -2.95911635021083        0.69643347191573       -2.02979662912474
H           -2.46450541892661        2.42317333377085        0.14609539717488
H           -1.23106708159297        4.54211423560159        0.09573520592415
H            1.23995184072728        4.53980688580818       -0.10120895214364
H            2.46924358569617        2.41851784926866       -0.15381586729186
H            2.95578822319231        0.68846737694645        2.02377968923508
H            5.42856455371162        0.68594716706781        2.03203786932872
H            5.43047455862845       -0.69522462453179       -2.03334072275320
H            2.95768244525771       -0.69312798099916       -2.02896292077797
H            2.46423384772154       -2.42223001720910        0.14896059293054
H            1.23085215269712       -4.54112053826274        0.09294998130582
H           -1.23959356062158       -4.53852360182112       -0.11138242033907
H           -2.46882312350063       -2.41712888432293       -0.16358011798811
H           -2.95420877628578       -0.69084028603747        2.02101478499716
H           -5.42697954497091       -0.68969846298435        2.03067589399047

 projected vibrational frequencies (cm⁻¹)
eigval :       -0.00    -0.00    -0.00     0.00     0.00     0.00
eigval :        6.91    27.54    29.05    37.98    38.92    42.27
eigval :       73.37   104.28   114.58   121.51   122.05   135.95
eigval :      167.62   184.39   191.79   234.38   244.01   261.22
eigval :      269.77   341.81   365.45   370.14   371.22   396.98
eigval :      402.78   403.41   414.32   430.61   434.66   458.06
eigval :      486.12   495.09   503.91   510.66   521.57   533.14
eigval :      533.43   542.82   579.86   580.39   615.72   618.18
eigval :      637.34   641.52   643.79   652.65   666.28   684.60
eigval :      750.58   755.63   764.96   785.65   791.22   795.69
eigval :      846.08   846.33   853.19   853.27   883.47   893.12
eigval :      893.24   893.99   896.46   898.37   900.31   900.40
eigval :      907.56   909.01   909.05   915.32   996.15   997.88
eigval :     1071.24  1079.05  1128.41  1128.47  1128.65  1132.09
eigval :     1161.41  1168.03  1172.34  1178.61  1187.59  1196.72
eigval :     1208.75  1239.72  1245.72  1248.90  1249.90  1256.75
eigval :     1308.31  1308.68  1312.87  1320.90  1323.84  1327.99
eigval :     1358.47  1373.02  1386.00  1389.83  1394.65  1404.80
eigval :     1407.49  1429.49  1438.08  1442.81  1446.30  1461.19
eigval :     1465.66  1468.27  1473.54  1492.51  1547.68  1588.54
eigval :     2303.02  2316.74  3080.64  3080.77  3082.17  3082.43
eigval :     3097.77  3097.85  3097.97  3098.62  3101.43  3101.57
eigval :     3104.95  3105.09  3112.04  3112.19  3117.51  3117.87

   temp. (K)  partition function   enthalpy   heat capacity  entropy
                                   cal/mol     cal/K/mol   cal/K/mol   J/K/mol
 298.15  VIB  0.475E+11            13702.266     86.239     84.793
         ROT  0.455E+07              888.752      2.981     33.446
         INT  0.216E+18            14591.018     89.220    118.239
         TR   0.729E+28             1481.254      4.968     43.712
         TOT                       16072.2721    94.1881   161.9515   677.6050

       T/K    H(0)-H(T)+PV         H(T)/Eh          T*S/Eh         G(T)/Eh
   ------------------------------------------------------------------------
    298.15    0.256128E-01    0.361289E+00    0.769484E-01    0.284341E+00
   ------------------------------------------------------------------------

         :::::::::::::::::::::::::::::::::::::::::::::::::::::
         ::                  THERMODYNAMIC                  ::
         :::::::::::::::::::::::::::::::::::::::::::::::::::::
         :: total free energy         -75.112724059554 Eh   ::
         ::.................................................::
         :: total energy              -75.397064761560 Eh   ::
         :: zero point energy           0.335676277391 Eh   ::
         :: G(RRHO) w/o ZPVE           -0.051335575385 Eh   ::
         :: G(RRHO) contrib.            0.284340702007 Eh   ::
         :::::::::::::::::::::::::::::::::::::::::::::::::::::

           -------------------------------------------------
          | TOTAL ENERGY              -75.397064761560 Eh   |
          | TOTAL ENTHALPY            -75.035775688206 Eh   |
          | TOTAL FREE ENERGY         -75.112724059554 Eh   |
          | GRADIENT NORM               0.000191362406 Eh/α |
           -------------------------------------------------

 * finished run on 2025/09/04 at 23:57:08.669
