   * xtb version 6.7.1 (edcfbbe) compiled by 'albert@albert-system' on 2024-07-22

   ID    Z sym.   atoms
    1    7 N      1, 7, 14, 20
    2    6 C      2-6, 8-13, 15-19, 21-30
    3    1 H      31-46

          program call               : xtb data2507/gas/DHPZ-2BN/DHPZ-2BN_gas_T1_crest.xyz --gfn 2 --spinpol --tblite --uhf 2 --ohess vtight --parallel 40 --molden --ceasefiles --namespace data2507/gas/DHPZ-2BN/DHPZ-2BN_gas_T1_finalOpt
 * total energy  :   -75.3970614 Eh     change       -0.4528928E-08 Eh
 * total energy  :   -75.3970637 Eh     change       -0.2347912E-05 Eh
 * total energy  :   -75.3970618 Eh     change        0.1902077E-05 Eh
 * total energy  :   -75.3970649 Eh     change       -0.3071292E-05 Eh
 * total energy  :   -75.3970653 Eh     change       -0.3815870E-06 Eh
 * total energy  :   -75.3970660 Eh     change       -0.6746909E-06 Eh
 * total energy  :   -75.3970672 Eh     change       -0.1276652E-05 Eh
 * total energy  :   -75.3970684 Eh     change       -0.1129763E-05 Eh
 * total energy  :   -75.3970690 Eh     change       -0.6884451E-06 Eh
 * total energy  :   -75.3970697 Eh     change       -0.6066309E-06 Eh
 * total energy  :   -75.3970726 Eh     change       -0.4795179E-06 Eh
 * total energy  :   -75.3970733 Eh     change       -0.6951910E-06 Eh
 * total energy  :   -75.3970741 Eh     change       -0.8797787E-06 Eh
 * total energy  :   -75.3970749 Eh     change       -0.7678298E-06 Eh
 * total energy  :   -75.3970754 Eh     change       -0.5108897E-06 Eh
 * total energy  :   -75.3970757 Eh     change       -0.3207391E-06 Eh
 * total energy  :   -75.3970760 Eh     change       -0.2496592E-06 Eh
 * total energy  :   -75.3970760 Eh     change        0.1342701E-07 Eh
 * total energy  :   -75.3970761 Eh     change       -0.9036809E-07 Eh
   *** GEOMETRY OPTIMIZATION CONVERGED AFTER 23 ITERATIONS ***

 final structure:
================
46
 xtb: 6.7.1 (edcfbbe)
N           -8.14470601471200        0.00496972947219       -0.10131730443703
C           -6.99288067845619        0.00386724944522       -0.07736439938772
C           -5.59183153485712        0.00316572834200       -0.04789051276532
C           -4.85722049046029       -0.33736091220587       -1.20017618941352
C           -3.48483431355205       -0.33898515311956       -1.16791937295338
C           -2.81340696345606        0.00220736719806        0.01068537861951
N           -1.38945385433013        0.00111958805485        0.03933927639076
C           -0.71366127046309        1.19527528957500        0.03553062360859
C           -1.38680901269409        2.42074704358945       -0.00838849769737
C           -0.69264122192384        3.60634348382256        0.02293112733777
C            0.70902693584469        3.60236706911552        0.10411230207922
C            1.39720068706743        2.41376541397819        0.11941664364852
C            0.71728447073769        1.19138895138394        0.06529281540755
N            1.38912307872764       -0.00409180251243        0.03885832214357
C            2.81319094814567       -0.00474791732589        0.00965145184285
C            3.53401732543848       -0.34267735292246        1.15980123428805
C            4.90660988533150       -0.34070536762760        1.13353654464359
C            5.59150021960667       -0.00256481809029       -0.04944892550591
C            6.99253011904496       -0.00116194745321       -0.07916778792394
N            8.14435747273162       -0.00039709249629       -0.10349163172635
C            4.85628576360185        0.33457564786025       -1.20236230971094
C            3.48389830079296        0.33469063141900       -1.16982487022160
C            0.71343814795263       -1.19815392416667        0.02919518992450
C            1.38694948792073       -2.42316701806052       -0.02034660245722
C            0.69306535671929       -3.60906445675507        0.00523260783491
C           -0.70858747845479       -3.60567394138774        0.08668810911448
C           -1.39705346609256       -2.41734370548881        0.10809302761020
C           -0.71750954826729       -1.19450069384188        0.05935863833442
C           -3.53372355005224        0.34312778196493        1.16032283524091
C           -4.90630752062050        0.34273995611053        1.13431748081348
H           -5.38494199642304       -0.59495036777197       -2.10588144412481
H           -2.91246820949169       -0.59783872694104       -2.04664565721556
H           -2.46367917228337        2.42508374660532       -0.06614913012244
H           -1.22635546489877        4.54224565041265       -0.00965907522839
H            1.24715067705859        4.53532342329890        0.14832187878442
H            2.47427238361593        2.41104670307203        0.17446686840383
H            2.99952161652205       -0.59893527357819        2.06276889046870
H            5.47248115982968       -0.59589238981754        2.01663939227866
H            5.38355617910327        0.59089080369023       -2.10868819392429
H            2.91100922529247        0.59121230718526       -2.04888844665655
H            2.46386139367057       -2.42674201281218       -0.07773935924191
H            1.22693715917001       -4.54471493061584       -0.03179430481531
H           -1.24651664722595       -4.53894579593048        0.12661158935115
H           -2.47407792540103       -2.41529624972497        0.16400935330548
H           -2.99881415444664        0.60049846078925        2.06273337514543
H           -5.47169455026410        0.60041469396102        2.01700620860897

 projected vibrational frequencies (cm⁻¹)
eigval :       -0.00    -0.00    -0.00     0.00     0.00     0.00
eigval :        6.61    23.64    27.08    31.78    37.19    41.93
eigval :       72.50   101.57   114.15   120.74   121.71   135.95
eigval :      167.43   182.96   191.98   233.07   243.65   260.88
eigval :      269.04   341.61   364.62   369.44   370.48   396.97
eigval :      403.17   403.35   413.05   430.37   435.39   457.62
eigval :      485.80   494.94   503.28   511.12   521.17   533.22
eigval :      533.43   542.85   580.03   580.12   615.84   618.07
eigval :      637.59   642.14   643.41   652.29   667.00   684.56
eigval :      750.73   755.33   764.89   785.60   790.63   795.25
eigval :      845.58   845.74   852.87   853.03   883.40   893.13
eigval :      893.41   893.64   896.29   898.12   899.11   899.37
eigval :      907.93   908.30   908.79   915.03   996.45   998.20
eigval :     1070.33  1079.73  1128.13  1128.21  1128.79  1132.31
eigval :     1162.03  1167.85  1172.28  1178.39  1187.43  1196.21
eigval :     1211.30  1239.09  1245.16  1248.85  1249.72  1256.64
eigval :     1308.73  1309.92  1314.12  1320.24  1324.94  1328.17
eigval :     1359.65  1373.29  1384.84  1392.53  1394.47  1409.17
eigval :     1411.75  1429.30  1440.03  1442.92  1445.90  1465.90
eigval :     1467.51  1468.51  1473.76  1497.81  1550.65  1588.52
eigval :     2303.62  2316.92  3080.76  3080.89  3082.27  3082.57
eigval :     3097.40  3097.88  3097.94  3098.55  3101.22  3101.32
eigval :     3104.53  3104.64  3111.65  3111.76  3117.29  3117.57

   temp. (K)  partition function   enthalpy   heat capacity  entropy
                                   cal/mol     cal/K/mol   cal/K/mol   J/K/mol
 298.15  VIB  0.798E+11            13734.616     86.034     85.134
         ROT  0.910E+07              888.752      2.981     34.823
         INT  0.726E+18            14623.368     89.015    119.957
         TR   0.729E+28             1481.254      4.968     43.712
         TOT                       16104.6224    93.9832   163.6693   684.7922

       T/K    H(0)-H(T)+PV         H(T)/Eh          T*S/Eh         G(T)/Eh
   ------------------------------------------------------------------------
    298.15    0.256643E-01    0.361333E+00    0.777645E-01    0.283568E+00
   ------------------------------------------------------------------------

         :::::::::::::::::::::::::::::::::::::::::::::::::::::
         ::                  THERMODYNAMIC                  ::
         :::::::::::::::::::::::::::::::::::::::::::::::::::::
         :: total free energy         -75.113507777073 Eh   ::
         ::.................................................::
         :: total energy              -75.397076076207 Eh   ::
         :: zero point energy           0.335668499223 Eh   ::
         :: G(RRHO) w/o ZPVE           -0.052100200089 Eh   ::
         :: G(RRHO) contrib.            0.283568299134 Eh   ::
         :::::::::::::::::::::::::::::::::::::::::::::::::::::

           -------------------------------------------------
          | TOTAL ENERGY              -75.397076076207 Eh   |
          | TOTAL ENTHALPY            -75.035743227627 Eh   |
          | TOTAL FREE ENERGY         -75.113507777073 Eh   |
          | GRADIENT NORM               0.000078883449 Eh/α |
           -------------------------------------------------

 * finished run on 2025/09/04 at 23:58:46.656
