   * xtb version 6.7.1 (edcfbbe) compiled by 'albert@albert-system' on 2024-07-22

   ID    Z sym.   atoms
    1    6 C      1-5, 7-15, 17-36, 38-43, 45, 46, 48-56
    2    7 N      6, 16, 37
    3    8 O      44, 47
    4    1 H      57-93

          program call               : xtb data2507/gas/DDBP/DDBP_gas_S0_crest.xyz --gfn 2 --ohess vtight --parallel 40 --molden --ceasefiles --namespace data2507/gas/DDBP/DDBP_gas_S0_finalOpt
          :  Hamiltonian                  GFN2-xTB          :
 * total energy  :  -145.0257897 Eh     change       -0.4817196E-08 Eh
 * total energy  :  -145.0257913 Eh     change       -0.1550400E-05 Eh
 * total energy  :  -145.0257925 Eh     change       -0.1255646E-05 Eh
 * total energy  :  -145.0257955 Eh     change       -0.2961249E-05 Eh
 * total energy  :  -145.0257970 Eh     change       -0.1455357E-05 Eh
 * total energy  :  -145.0257983 Eh     change       -0.1358183E-05 Eh
 * total energy  :  -145.0258002 Eh     change       -0.1881868E-05 Eh
 * total energy  :  -145.0258025 Eh     change       -0.2280584E-05 Eh
 * total energy  :  -145.0258045 Eh     change       -0.2046835E-05 Eh
 * total energy  :  -145.0258062 Eh     change       -0.1653265E-05 Eh
 * total energy  :  -145.0258115 Eh     change       -0.1227652E-05 Eh
 * total energy  :  -145.0258124 Eh     change       -0.8520383E-06 Eh
 * total energy  :  -145.0258129 Eh     change       -0.5206977E-06 Eh
 * total energy  :  -145.0258133 Eh     change       -0.4071499E-06 Eh
 * total energy  :  -145.0258138 Eh     change       -0.4818604E-06 Eh
 * total energy  :  -145.0258143 Eh     change       -0.5521330E-06 Eh
 * total energy  :  -145.0258148 Eh     change       -0.4798158E-06 Eh
 * total energy  :  -145.0258152 Eh     change       -0.3607379E-06 Eh
 * total energy  :  -145.0258152 Eh     change       -0.3268838E-08 Eh
   *** GEOMETRY OPTIMIZATION CONVERGED AFTER 22 ITERATIONS ***

 final structure:
================
93
 xtb: 6.7.1 (edcfbbe)
C           -7.95775268910469       -5.00649025183330       -0.41981651719002
C           -6.81224413779068       -5.11521105955750       -1.19159260665243
C           -5.81881609302618       -4.16045960203884       -1.09745852437275
C           -5.95927665489693       -3.07675017436992       -0.23138142813565
C           -4.88957433243672       -2.09349157955097       -0.15705326506374
N           -3.60637054489009       -2.44558294277980       -0.45986040164847
C           -2.86586505551778       -1.38622955517797       -0.27520684853636
C           -1.41972254960441       -1.31666240253770       -0.44821032381115
C           -0.62920523350623       -2.25202655455011        0.17828490349121
C            0.76055796304705       -2.12526981581797        0.17565792421034
C            1.37899012529946       -1.05318817129684       -0.42736441095790
C            2.83351313022638       -0.89073137373413       -0.28518217403085
C            3.38124738897104        0.29763435199451        0.19590071520928
C            4.74348698140224        0.43568933016349        0.35806497318914
C            5.60495850051849       -0.61266223062016        0.03210841903906
N            6.98732812567252       -0.46959271023136        0.18123820048859
C            7.59883924191949        0.75550142982641       -0.10676501187271
C            8.67351215640344        1.20772279762041        0.65878826144249
C            9.27800595644649        2.41450406059398        0.36571130865251
C            8.81940547979214        3.19339212358678       -0.68408611971809
C            7.74905258051826        2.75156914887941       -1.44434631976749
C            7.14356590568091        1.54209132234400       -1.16494134097596
C            7.75990969226264       -1.55425314960363        0.61242908247682
C            9.03362638901821       -1.76988298861929        0.08695874702128
C            9.79327453541974       -2.83891496131413        0.52038194213183
C            9.29659351066586       -3.71290622210936        1.47350479037815
C            8.03007609947250       -3.50601530831002        1.99507614814501
C            7.26610610268784       -2.43494916257897        1.57462298947663
C            5.06023010026792       -1.80640173450960       -0.44221666126079
C            3.69567551988606       -1.94225996136274       -0.58748799024577
C            0.59713916206146       -0.12696010856888       -1.17215130609493
C            1.18114982668541        0.91040901539041       -1.92981852661251
C            0.41350098639575        1.75977773003850       -2.67648305802166
C           -0.97513046456231        1.58548007191014       -2.73868188529096
C           -1.57100447245050        0.57907008738338       -2.03270873751412
C           -0.81458317310385       -0.27869905689741       -1.20767568315225
N           -3.61953288205830       -0.32338692841814        0.15909872066696
C           -3.13968033304492        0.96531025831640        0.44554976826832
C           -2.03768565011016        1.12382875399758        1.28014596392017
C           -1.51621486023756        2.38217618156137        1.49515160298634
C           -2.09457018079484        3.49775817165709        0.90381893892299
C           -3.23819106258726        3.34378922362340        0.11278613261318
C           -3.74489234567324        2.07549501417114       -0.12560462756328
O           -3.88122019100092        4.41103976716608       -0.45416162542690
C           -3.48532681454410        5.65330635442257        0.08408797082902
C           -1.96393780969256        5.70997058360529        0.21182173037487
O           -1.51611066988945        4.72247263351264        1.11348373919837
C           -4.92389830565454       -0.76275278717698        0.22574537745487
C           -6.02384527508983        0.10132506362040        0.63108384400389
C           -5.92477528940725        0.89687980130305        1.77125672275574
C           -6.97143114449116        1.72151696147705        2.13862867366541
C           -8.12693242173713        1.76476452396943        1.37678009532798
C           -8.23447261570137        0.97374627226947        0.24410426047723
C           -7.19167120760642        0.14842592725313       -0.12942237400194
C           -7.10487345908083       -2.98527407889623        0.55689020868347
C           -8.09620297521962       -3.94308370181840        0.45713490332698
H           -8.73671282400625       -5.75132225962603       -0.49520869635163
H           -6.69527623692322       -5.94878550693404       -1.86928428830599
H           -4.91829795141033       -4.23379368222036       -1.68731637111872
H           -1.09861660771182       -3.06528270473640        0.71067382695774
H            1.35755206120719       -2.85012430877363        0.71015981286067
H            2.72528518370645        1.11064635687462        0.47230003737374
H            5.15260133861963        1.35773468070524        0.74470159326782
H            9.02723588120092        0.60731740438871        1.48418034662935
H           10.10866182992330        2.75301291220488        0.96750331496432
H            9.29287269119145        4.13716285766144       -0.90827394545463
H            7.38798666704351        3.34914691896434       -2.26862041056966
H            6.31690220370217        1.19458260103190       -1.76730211547353
H            9.41949715710258       -1.09579387282634       -0.66381160401662
H           10.77750093419080       -2.99535730912893        0.10379953810297
H            9.89210390199934       -4.54901225615649        1.80722753968496
H            7.63640454690281       -4.17916083010045        2.74250395371915
H            6.28290939688133       -2.26978847704569        1.99051844124744
H            5.71725405662743       -2.62381506468857       -0.70082927481134
H            3.28836068273377       -2.86715942006319       -0.96894751573449
H            2.25598480421109        1.01186287360808       -1.93361727631934
H            0.87790119136200        2.54984197545703       -3.24873877524551
H           -1.56874697408717        2.23452292790240       -3.36570258221916
H           -2.63206347976146        0.40858452778892       -2.13214066639554
H           -1.58387077748622        0.26186254002366        1.74328044742659
H           -0.64937892044803        2.52617919073649        2.11926975934128
H           -4.60953776535871        1.97774859104301       -0.76219284317086
H           -3.85678549460274        6.41916442472159       -0.59804153152538
H           -3.93664728358351        5.79177031670869        1.07610759690726
H           -1.51215585241696        5.54586325738163       -0.77619831354828
H           -1.63370233473635        6.66911961266412        0.61280211209865
H           -5.03004688688205        0.85766384549490        2.37613818018351
H           -6.88554499420577        2.33102095846987        3.02655677560774
H           -8.94257090141856        2.41097782922314        1.66568973285428
H           -9.13412195634028        1.00380457513695       -0.35294932379866
H           -7.27070762282623       -0.46730311820917       -1.01348110459791
H           -7.21264447267434       -2.17038508174753        1.25726992910018
H           -8.98122708354447       -3.86223200472228        1.07212137571640

          :  Hamiltonian                  GFN2-xTB          :
         :: gradient norm              0.000041915469 Eh/a0 ::
         :: HOMO-LUMO gap              2.207359175307 eV    ::
         :: SCC energy              -147.601423348371 Eh    ::
         :: -> dispersion             -0.135033247206 Eh    ::
         :: repulsion energy           2.575608187290 Eh    ::

    * Orbital Energies and Occupations

         #    Occupation            Energy/Eh            Energy/eV
      -------------------------------------------------------------
         1        2.0000           -0.7381988             -20.0874
       ...           ...                  ...                  ...
       122        2.0000           -0.4057881             -11.0421
       123        2.0000           -0.4049953             -11.0205
       124        2.0000           -0.4041565             -10.9977
       125        2.0000           -0.4032661             -10.9734
       126        2.0000           -0.4018406             -10.9346
       127        2.0000           -0.4014616             -10.9243
       128        2.0000           -0.3951595             -10.7528
       129        2.0000           -0.3911003             -10.6424
       130        2.0000           -0.3849450             -10.4749
       131        2.0000           -0.3764398             -10.2434
       132        2.0000           -0.3694092             -10.0521
       133        2.0000           -0.3562026              -9.6928
       134        2.0000           -0.3478168              -9.4646 (HOMO)
       135                         -0.2666979              -7.2572 (LUMO)
       136                         -0.2453693              -6.6768
       137                         -0.2369452              -6.4476
       138                         -0.2314268              -6.2974
       139                         -0.2303417              -6.2679
       140                         -0.2297417              -6.2516
       141                         -0.2276838              -6.1956
       142                         -0.2271395              -6.1808
       143                         -0.2228929              -6.0652
       144                         -0.2218700              -6.0374
       145                         -0.2215308              -6.0282
       ...                                ...                  ...
       261                          0.7137909              19.4232
      -------------------------------------------------------------
                  HL-Gap            0.0811190 Eh            2.2074 eV

     #   Z          covCN         q      C6AA      α(0)
     1   6 C        2.920    -0.033    28.816     8.803
     2   6 C        2.918    -0.030    28.749     8.793
     3   6 C        2.927    -0.030    28.754     8.794
     4   6 C        2.973     0.011    27.764     8.643
     5   6 C        3.171     0.051    26.501     8.409
     6   7 N        1.910    -0.289    28.344     7.893
     7   6 C        3.164     0.123    24.987     8.170
     8   6 C        2.972    -0.006    28.168     8.706
     9   6 C        2.922    -0.031    28.768     8.796
    10   6 C        2.922    -0.037    28.913     8.818
    11   6 C        2.974     0.004    27.926     8.668
    12   6 C        2.977     0.004    27.941     8.671
    13   6 C        2.923    -0.033    28.829     8.805
    14   6 C        2.921    -0.049    29.220     8.864
    15   6 C        2.924     0.063    26.578     8.454
    16   7 N        2.752    -0.075    22.702     7.077
    17   6 C        2.924     0.065    26.540     8.448
    18   6 C        2.922    -0.048    29.185     8.859
    19   6 C        2.920    -0.029    28.731     8.790
    20   6 C        2.919    -0.039    28.960     8.825
    21   6 C        2.920    -0.029    28.734     8.790
    22   6 C        2.922    -0.048    29.185     8.859
    23   6 C        2.924     0.065    26.543     8.449
    24   6 C        2.922    -0.048    29.180     8.859
    25   6 C        2.920    -0.029    28.730     8.790
    26   6 C        2.919    -0.038    28.952     8.824
    27   6 C        2.920    -0.029    28.730     8.790
    28   6 C        2.922    -0.048    29.181     8.859
    29   6 C        2.921    -0.048    29.200     8.861
    30   6 C        2.924    -0.034    28.851     8.808
    31   6 C        2.987     0.009    27.819     8.652
    32   6 C        2.919    -0.035    28.866     8.810
    33   6 C        2.916    -0.032    28.789     8.799
    34   6 C        2.916    -0.031    28.782     8.797
    35   6 C        2.919    -0.035    28.877     8.812
    36   6 C        2.988     0.007    27.846     8.656
    37   7 N        2.853    -0.033    21.873     6.946
    38   6 C        2.913     0.059    26.686     8.471
    39   6 C        2.922    -0.052    29.280     8.874
    40   6 C        2.920    -0.055    29.364     8.886
    41   6 C        2.887     0.113    25.505     8.280
    42   6 C        2.887     0.117    25.416     8.265
    43   6 C        2.922    -0.066    29.634     8.927
    44   8 O        1.705    -0.271    18.487     5.805
    45   6 C        3.716     0.073    19.485     6.306
    46   6 C        3.716     0.073    19.479     6.305
    47   8 O        1.704    -0.272    18.513     5.809
    48   6 C        3.066     0.012    27.689     8.629
    49   6 C        2.972     0.010    27.801     8.649
    50   6 C        2.924    -0.034    28.847     8.808
    51   6 C        2.919    -0.029    28.725     8.789
    52   6 C        2.920    -0.031    28.772     8.796
    53   6 C        2.919    -0.028    28.703     8.786
    54   6 C        2.925    -0.032    28.805     8.802
    55   6 C        2.923    -0.037    28.930     8.821
    56   6 C        2.919    -0.031    28.765     8.795
    57   1 H        0.926     0.026     2.643     2.542
    58   1 H        0.926     0.028     2.612     2.527
    59   1 H        0.926     0.050     2.326     2.385
    60   1 H        0.926     0.045     2.380     2.412
    61   1 H        0.926     0.035     2.517     2.481
    62   1 H        0.926     0.033     2.537     2.491
    63   1 H        0.926     0.032     2.555     2.500
    64   1 H        0.926     0.032     2.563     2.504
    65   1 H        0.926     0.031     2.568     2.506
    66   1 H        0.926     0.030     2.589     2.516
    67   1 H        0.926     0.031     2.574     2.509
    68   1 H        0.926     0.031     2.578     2.511
    69   1 H        0.926     0.032     2.564     2.504
    70   1 H        0.926     0.031     2.566     2.505
    71   1 H        0.926     0.030     2.582     2.513
    72   1 H        0.926     0.032     2.563     2.504
    73   1 H        0.926     0.031     2.566     2.505
    74   1 H        0.926     0.033     2.541     2.493
    75   1 H        0.926     0.035     2.519     2.482
    76   1 H        0.926     0.036     2.506     2.475
    77   1 H        0.926     0.029     2.606     2.524
    78   1 H        0.926     0.029     2.603     2.523
    79   1 H        0.926     0.030     2.591     2.517
    80   1 H        0.926     0.050     2.323     2.383
    81   1 H        0.926     0.060     2.198     2.318
    82   1 H        0.926     0.062     2.179     2.309
    83   1 H        0.924     0.058     2.225     2.333
    84   1 H        0.923     0.044     2.392     2.419
    85   1 H        0.923     0.044     2.398     2.422
    86   1 H        0.924     0.058     2.227     2.333
    87   1 H        0.926     0.025     2.664     2.552
    88   1 H        0.926     0.028     2.612     2.528
    89   1 H        0.926     0.030     2.586     2.515
    90   1 H        0.926     0.032     2.560     2.502
    91   1 H        0.926     0.034     2.533     2.489
    92   1 H        0.926     0.025     2.655     2.548
    93   1 H        0.926     0.025     2.653     2.547

molecular dipole:
                 x           y           z       tot (Debye)
 q only:        0.625       1.376       0.142
   full:        0.530       1.952       0.266       5.186

 projected vibrational frequencies (cm⁻¹)
eigval :       -0.00    -0.00    -0.00    -0.00     0.00     0.00
eigval :        7.80     9.33    12.01    19.64    21.77    27.68
eigval :       31.67    35.36    38.18    45.97    50.14    53.65
eigval :       56.03    65.42    69.88    75.30    76.94    91.71
eigval :      104.39   106.84   113.90   122.93   131.83   148.04
eigval :      163.00   168.60   182.57   189.77   210.04   217.27
eigval :      224.64   232.85   241.74   246.03   251.65   270.22
eigval :      302.80   303.98   310.48   320.98   342.26   352.45
eigval :      366.55   371.13   376.55   378.03   380.42   383.59
eigval :      387.73   389.76   397.25   416.12   419.61   429.89
eigval :      438.44   448.42   460.18   469.72   475.17   477.21
eigval :      481.84   492.65   506.43   510.65   529.20   537.04
eigval :      548.92   564.09   584.86   586.17   587.24   588.50
eigval :      591.57   594.80   599.24   603.33   621.60   630.06
eigval :      642.35   653.41   657.13   659.64   660.00   665.04
eigval :      671.54   675.99   678.28   688.32   693.26   696.85
eigval :      730.48   732.72   736.50   756.85   761.02   763.45
eigval :      765.20   773.91   781.89   782.76   817.78   830.45
eigval :      845.36   855.95   870.68   872.87   874.33   876.44
eigval :      878.26   878.49   885.77   891.50   892.06   901.21
eigval :      901.69   901.88   905.06   910.18   912.90   918.74
eigval :      923.59   923.88   927.42   928.28   928.94   929.52
eigval :      929.86   929.95   930.72   931.27   932.09   933.69
eigval :      939.34   947.88   953.16   955.24   980.98   987.93
eigval :     1005.06  1021.01  1025.41  1041.08  1061.11  1073.29
eigval :     1082.12  1083.30  1083.78  1084.33  1089.65  1105.56
eigval :     1116.46  1118.93  1121.43  1121.98  1123.34  1124.61
eigval :     1125.34  1140.58  1162.00  1175.87  1180.77  1180.85
eigval :     1181.88  1182.13  1182.45  1185.80  1187.40  1193.11
eigval :     1195.85  1196.83  1199.29  1201.07  1207.40  1214.80
eigval :     1217.23  1219.99  1233.15  1246.21  1262.65  1269.96
eigval :     1272.67  1276.47  1278.64  1282.51  1284.57  1286.09
eigval :     1303.95  1305.91  1313.87  1317.18  1317.72  1321.21
eigval :     1322.56  1324.99  1326.02  1328.23  1337.09  1346.28
eigval :     1365.99  1368.39  1382.92  1405.62  1406.64  1414.73
eigval :     1429.68  1433.36  1436.49  1439.84  1442.85  1445.62
eigval :     1454.87  1456.19  1457.26  1472.53  1477.03  1487.00
eigval :     1490.31  1493.92  1509.18  1546.45  1554.40  1560.02
eigval :     1562.26  1575.16  1576.41  1577.59  1578.99  1581.28
eigval :     1582.14  1595.06  1595.30  1597.61  1598.88  1600.36
eigval :     1601.66  1609.90  2895.62  2912.73  3000.39  3004.28
eigval :     3067.52  3071.07  3072.36  3072.40  3074.87  3075.54
eigval :     3075.55  3075.86  3076.55  3077.07  3077.69  3079.97
eigval :     3081.33  3081.66  3083.58  3085.72  3086.48  3087.36
eigval :     3087.91  3088.94  3089.57  3091.05  3091.42  3093.09
eigval :     3094.05  3096.82  3097.15  3097.23  3097.78  3103.48
eigval :     3103.77  3115.25  3117.68

   temp. (K)  partition function   enthalpy   heat capacity  entropy
                                   cal/mol     cal/K/mol   cal/K/mol   J/K/mol
 298.15  VIB  0.112E+23            26730.514    165.777    168.766
         ROT  0.152E+09              888.752      2.981     40.415
         INT  0.169E+31            27619.267    168.758    209.182
         TR   0.188E+29             1481.254      4.968     45.598
         TOT                       29100.5206   173.7260   254.7794  1065.9970

       T/K    H(0)-H(T)+PV         H(T)/Eh          T*S/Eh         G(T)/Eh
   ------------------------------------------------------------------------
    298.15    0.463746E-01    0.767299E+00    0.121054E+00    0.646245E+00
   ------------------------------------------------------------------------

         :::::::::::::::::::::::::::::::::::::::::::::::::::::
         ::                  THERMODYNAMIC                  ::
         :::::::::::::::::::::::::::::::::::::::::::::::::::::
         :: total free energy        -144.379569768396 Eh   ::
         ::.................................................::
         :: total energy             -145.025815161081 Eh   ::
         :: zero point energy           0.720924670594 Eh   ::
         :: G(RRHO) w/o ZPVE           -0.074679277909 Eh   ::
         :: G(RRHO) contrib.            0.646245392685 Eh   ::
         :::::::::::::::::::::::::::::::::::::::::::::::::::::

           -------------------------------------------------
          | TOTAL ENERGY             -145.025815161081 Eh   |
          | TOTAL ENTHALPY           -144.258515858993 Eh   |
          | TOTAL FREE ENERGY        -144.379569768396 Eh   |
          | GRADIENT NORM               0.000041912319 Eh/α |
          | HOMO-LUMO GAP               2.207359469041 eV   |
           -------------------------------------------------

 * finished run on 2025/09/12 at 19:08:47.344
