   * xtb version 6.7.1 (edcfbbe) compiled by 'albert@albert-system' on 2024-07-22

   ID    Z sym.   atoms
    1    6 C      1-5, 7-15, 17-36, 38-43, 45, 46, 48-56
    2    7 N      6, 16, 37
    3    8 O      44, 47
    4    1 H      57-93

          program call               : xtb data2507/gas/DDBP/DDBP_gas_T1_crest.xyz --gfn 2 --spinpol --tblite --uhf 2 --ohess vtight --parallel 40 --molden --ceasefiles --namespace data2507/gas/DDBP/DDBP_gas_T1_finalOpt
 * total energy  :  -144.9524799 Eh     change       -0.2636503E-07 Eh
 * total energy  :  -144.9525059 Eh     change       -0.2599981E-04 Eh
 * total energy  :  -144.9525143 Eh     change       -0.8393908E-05 Eh
 * total energy  :  -144.9525159 Eh     change       -0.1578106E-05 Eh
 * total energy  :  -144.9525168 Eh     change       -0.9298577E-06 Eh
 * total energy  :  -144.9525180 Eh     change       -0.1252733E-05 Eh
 * total energy  :  -144.9525195 Eh     change       -0.1440859E-05 Eh
 * total energy  :  -144.9525208 Eh     change       -0.1315638E-05 Eh
 * total energy  :  -144.9525222 Eh     change       -0.1406966E-05 Eh
 * total energy  :  -144.9525240 Eh     change       -0.1835250E-05 Eh
 * total energy  :  -144.9525373 Eh     change       -0.2336940E-06 Eh
 * total energy  :  -144.9525374 Eh     change       -0.1861170E-06 Eh
 * total energy  :  -144.9525377 Eh     change       -0.2917693E-06 Eh
 * total energy  :  -144.9525380 Eh     change       -0.2255644E-06 Eh
 * total energy  :  -144.9525382 Eh     change       -0.2264556E-06 Eh
 * total energy  :  -144.9525384 Eh     change       -0.1921067E-06 Eh
 * total energy  :  -144.9525387 Eh     change       -0.2825462E-06 Eh
 * total energy  :  -144.9525388 Eh     change       -0.1253761E-06 Eh
 * total energy  :  -144.9525389 Eh     change       -0.9081583E-07 Eh
   *** GEOMETRY OPTIMIZATION CONVERGED AFTER 37 ITERATIONS ***

 final structure:
================
93
 xtb: 6.7.1 (edcfbbe)
C           -7.57496100699827       -5.21111236031472        0.10945012436435
C           -6.62119568682034       -5.23374708099194       -0.89564486132091
C           -5.68432420633135       -4.22325930156710       -0.98514349073510
C           -5.69284221132119       -3.16835057102451       -0.07263834717094
C           -4.68429477227313       -2.12721026480301       -0.19611795461337
N           -3.47618259396255       -2.39942765228356       -0.71259183397433
C           -2.76652799960268       -1.27033459743191       -0.68935437294518
C           -1.44394421417049       -1.16754374045016       -1.15678512496311
C           -0.63379596883006       -2.35076218844508       -1.14146306865084
C            0.71574468972638       -2.25735599253667       -1.16848349939228
C            1.37729610391893       -0.98549504837793       -1.21399329447025
C            2.75305506553086       -0.87488842177271       -0.85416658267057
C            3.25117798881868        0.28191563774786       -0.20933806065113
C            4.56258196578263        0.38862938198581        0.16943605278164
C            5.46790985579607       -0.65407556711548       -0.07705263342053
N            6.80502085342431       -0.54137026750619        0.29575421964849
C            7.45324877178687        0.69484330673271        0.21508683192016
C            8.39128865145121        1.06636938100221        1.17938769008008
C            9.03057898728463        2.28720419916142        1.09273729380655
C            8.74364558228938        3.15822420436776        0.05385526264158
C            7.81029665146364        2.79571049495488       -0.90410951945542
C            7.16998448358756        1.57460558813752       -0.83066084383362
C            7.50161675901372       -1.66503425755351        0.75279722716830
C            8.84201555908420       -1.85286201734030        0.41322183997663
C            9.52471774184559       -2.96343702727749        0.86858573103503
C            8.88618819006284       -3.90451298876597        1.66035118811960
C            7.55429961602599       -3.72409795321474        1.99764656111831
C            6.86393957240800       -2.61406784402373        1.55281541122418
C            4.98966999614967       -1.81601564813829       -0.69830111154347
C            3.67392796848551       -1.92683263739682       -1.06353394865727
C            0.58656636383113        0.14830539724561       -1.62327215609080
C            1.16904754050095        1.31199187648767       -2.13544988112141
C            0.39461023696991        2.35621314443834       -2.61844070040734
C           -0.97975983895739        2.23011556159747       -2.67138987211122
C           -1.58014648166661        1.06785946532042       -2.21076464219522
C           -0.82782017545015        0.04501287218842       -1.63556258389196
N           -3.51740759296781       -0.25005993615618       -0.10711160369606
C           -3.05606584535692        1.03154201231187        0.22686226943252
C           -1.85287302359247        1.17388211128329        0.91353962779246
C           -1.35980677120002        2.43274235521550        1.18019782246876
C           -2.06262745569279        3.56467597859473        0.78717350432624
C           -3.30163251684386        3.42180987884487        0.15380690127081
C           -3.78601251601701        2.15538709768793       -0.13541381202635
O           -4.06348018995410        4.50035577661319       -0.21027672020324
C           -3.63939461053702        5.70977661662042        0.37809847380064
C           -2.11863502478691        5.83081335724640        0.29342803519175
O           -1.50977597634195        4.79551719145580        1.03158353143669
C           -4.74741525903831       -0.78145601726552        0.19625986371600
C           -5.82891316041174       -0.02652047140155        0.79849801401825
C           -5.61136259880201        0.79631466284554        1.90586623937432
C           -6.65714894188344        1.50668885681934        2.46221059932962
C           -7.93151845205043        1.41265596652493        1.92680127145810
C           -8.15814790673750        0.59335124515281        0.83154108548606
C           -7.11930568575876       -0.12161313540320        0.27053359156888
C           -6.64206762435890       -3.16346767414016        0.94828524959690
C           -7.57640301480899       -4.17822080464223        1.03283046621192
H           -8.31005334259676       -5.99973448170792        0.17841551904288
H           -6.61014965050014       -6.04341578213240       -1.61100989063708
H           -4.93183734935364       -4.22762815662059       -1.75837880987905
H           -1.13847523796840       -3.29436224724703       -1.01020167906668
H            1.31307504340506       -3.14840765685727       -1.05425978946421
H            2.56181535510826        1.07304214046490        0.04520744251519
H            4.90730142997170        1.27221443149612        0.68760754394095
H            8.60765475833117        0.39393910932446        1.99662851050173
H            9.75248960899427        2.56417592992541        1.84678849332066
H            9.24412320757584        4.11242362010001       -0.00882170317654
H            7.58536643381845        3.46592859565518       -1.72059985629485
H            6.45276094868873        1.28740399128884       -1.58538522877207
H            9.33791248507603       -1.12623502641620       -0.21366996272677
H           10.56093799442046       -3.09945978856756        0.59622290697394
H            9.42286932741527       -4.77235452409239        2.01205383731932
H            7.05084125199715       -4.44961049815676        2.61934376031518
H            5.82935634223801       -2.46777373732665        1.82627306369027
H            5.67891549104512       -2.62169879913677       -0.90740119998410
H            3.35091932808305       -2.81819051765811       -1.57861658644702
H            2.24454716036049        1.38667877961947       -2.19123437475131
H            0.87523803384861        3.25175886383965       -2.98525570061213
H           -1.58916338642101        3.01883622695957       -3.08783101867204
H           -2.64635871417824        0.94295564814339       -2.32208915554458
H           -1.30171717362971        0.29779584385025        1.21761407583191
H           -0.41895792317642        2.56636755876515        1.68862470935242
H           -4.72792808683302        2.06938888290858       -0.65311213884192
H           -4.13474347610731        6.51202765464318       -0.17057226251826
H           -3.94539078708253        5.74018075910621        1.43295336744650
H           -1.80961787903778        5.77088565297966       -0.75924375748989
H           -1.76929424899722        6.76889451726221        0.72681016982489
H           -4.62456221886148        0.85957495775750        2.34092803141097
H           -6.47736155434566        2.13514957503869        3.32238293102527
H           -8.74553280551732        1.97233945597968        2.36284345829083
H           -9.14994831054459        0.51550407988418        0.41085264089400
H           -7.29281226373784       -0.75537933669187       -0.58677808992517
H           -6.63735334940553       -2.37400151056537        1.68495162774822
H           -8.30800073569744       -4.16592892527408        1.82799143830003

 projected vibrational frequencies (cm⁻¹)
eigval :       -0.00    -0.00     0.00     0.00     0.00     0.00
eigval :        7.83     9.64    11.34    19.77    21.69    28.61
eigval :       32.09    36.50    40.82    48.32    52.23    56.88
eigval :       59.04    62.43    72.35    80.50    81.88    95.61
eigval :      106.36   112.79   115.41   126.87   138.31   149.54
eigval :      164.85   169.32   187.66   197.51   213.72   216.91
eigval :      218.68   232.12   238.59   251.35   255.62   259.40
eigval :      293.23   303.20   310.22   315.61   321.56   347.29
eigval :      357.69   361.33   371.23   377.87   378.01   380.00
eigval :      383.74   390.49   396.63   408.86   411.30   426.85
eigval :      438.23   453.70   457.75   467.59   469.07   472.73
eigval :      479.57   495.94   502.16   505.05   519.37   526.72
eigval :      534.21   549.03   573.87   579.27   584.15   585.71
eigval :      588.21   588.71   593.03   600.78   611.46   617.08
eigval :      637.57   642.26   652.84   654.69   658.82   660.71
eigval :      664.11   670.13   674.70   678.54   680.62   691.40
eigval :      707.68   724.05   733.10   756.49   760.05   760.20
eigval :      764.06   768.42   772.39   774.33   782.95   813.30
eigval :      830.73   843.38   850.84   869.57   872.85   874.69
eigval :      875.84   877.26   877.74   888.66   890.78   892.58
eigval :      898.92   899.31   903.12   903.58   906.43   909.31
eigval :      913.41   915.25   921.57   927.24   928.21   928.68
eigval :      928.92   929.19   929.68   929.72   931.15   931.46
eigval :      939.58   941.65   948.16   953.78   979.34   983.23
eigval :     1003.56  1010.91  1011.85  1040.80  1047.40  1073.04
eigval :     1080.98  1081.95  1082.85  1083.03  1087.03  1096.50
eigval :     1106.85  1115.62  1118.68  1121.74  1121.87  1123.86
eigval :     1124.01  1140.18  1145.63  1152.69  1172.79  1177.02
eigval :     1180.23  1180.34  1180.99  1181.42  1181.61  1184.82
eigval :     1188.76  1193.82  1196.28  1197.29  1201.39  1207.76
eigval :     1217.55  1219.95  1231.90  1242.58  1255.42  1267.03
eigval :     1271.20  1274.86  1277.13  1279.35  1281.04  1284.47
eigval :     1301.23  1303.38  1304.29  1312.68  1316.16  1318.06
eigval :     1318.48  1319.03  1322.76  1327.15  1327.70  1335.42
eigval :     1338.72  1342.67  1362.64  1379.39  1399.81  1414.52
eigval :     1426.61  1430.09  1431.13  1433.43  1435.60  1439.84
eigval :     1441.60  1443.96  1454.63  1456.33  1457.92  1467.31
eigval :     1469.58  1476.82  1485.64  1490.40  1493.95  1520.03
eigval :     1534.46  1537.96  1561.94  1566.72  1569.62  1571.44
eigval :     1576.00  1577.42  1578.72  1588.13  1588.80  1594.28
eigval :     1595.59  1596.30  2894.22  2911.14  2999.16  3003.13
eigval :     3067.97  3069.90  3073.09  3073.38  3074.86  3075.57
eigval :     3076.55  3077.47  3077.85  3078.25  3079.08  3079.57
eigval :     3084.39  3085.59  3087.32  3087.76  3088.39  3088.59
eigval :     3088.67  3090.75  3091.37  3091.60  3092.88  3093.72
eigval :     3094.84  3097.45  3098.86  3099.38  3101.05  3104.29
eigval :     3108.41  3113.48  3117.26

   temp. (K)  partition function   enthalpy   heat capacity  entropy
                                   cal/mol     cal/K/mol   cal/K/mol   J/K/mol
 298.15  VIB  0.756E+22            26862.895    167.512    169.072
         ROT  0.151E+09              888.752      2.981     40.410
         INT  0.114E+31            27751.647    170.493    209.482
         TR   0.188E+29             1481.254      4.968     45.598
         TOT                       29232.9009   175.4607   255.0799  1067.2542

       T/K    H(0)-H(T)+PV         H(T)/Eh          T*S/Eh         G(T)/Eh
   ------------------------------------------------------------------------
    298.15    0.465856E-01    0.764349E+00    0.121197E+00    0.643153E+00
   ------------------------------------------------------------------------

         :::::::::::::::::::::::::::::::::::::::::::::::::::::
         ::                  THERMODYNAMIC                  ::
         :::::::::::::::::::::::::::::::::::::::::::::::::::::
         :: total free energy        -144.309386276039 Eh   ::
         ::.................................................::
         :: total energy             -144.952538930839 Eh   ::
         :: zero point energy           0.717763743672 Eh   ::
         :: G(RRHO) w/o ZPVE           -0.074611088872 Eh   ::
         :: G(RRHO) contrib.            0.643152654800 Eh   ::
         :::::::::::::::::::::::::::::::::::::::::::::::::::::

           -------------------------------------------------
          | TOTAL ENERGY             -144.952538930839 Eh   |
          | TOTAL ENTHALPY           -144.188189594285 Eh   |
          | TOTAL FREE ENERGY        -144.309386276039 Eh   |
          | GRADIENT NORM               0.000068260705 Eh/α |
           -------------------------------------------------

 * finished run on 2025/09/12 at 19:18:17.852
